Control file title. For DL_FIELD 4.10
49772
    1MOL     C1    1   5.629   3.734   0.972  0.1117 -0.1456  0.1418
    1MOL     C2    2   5.558   3.809   1.066 -0.2191  0.6139  0.3532
    1MOL     C3    3   5.622   3.841   1.185  0.1460 -0.1601 -1.4577
    1MOL     C4    4   5.748   3.788   1.216 -0.8753 -0.8240  0.3363
    1MOL     S5    5   5.822   3.820   1.382  0.7701  0.0616  0.1811
    1MOL     O6    6   5.719   3.898   1.457 -0.0259  0.6431  0.1948
    1MOL     O7    7   5.951   3.879   1.364 -0.7403 -0.3456  0.5589
    1MOL     C8    8   5.832   3.655   1.461 -0.7062  0.2039  0.0659
    1MOL     C9    9   5.770   3.538   1.405 -0.1214 -1.2553 -0.0642
    1MOL    C10   10   5.781   3.415   1.467  0.0166  0.5329 -0.2878
    1MOL    C11   11   5.847   3.408   1.593  0.3417  0.0596  0.2466
    1MOL    O12   12   5.852   3.293   1.661 -0.3428 -0.2758  0.7233
    1MOL    C13   13   5.772   3.290   1.776 -0.0496  0.2614 -0.3677
    1MOL    C14   14   5.834   3.274   1.905 -0.3630 -0.6587  0.4477
    1MOL    C15   15   5.761   3.278   2.020  0.7338  0.0520 -0.7899
    1MOL    C16   16   5.617   3.293   2.014 -0.0670 -0.0574 -0.1865
    1MOL    C17   17   5.528   3.298   2.143  0.4911  0.3455  0.4770
    1MOL    C18   18   5.605   3.318   2.277 -0.1659  0.1347  0.3084
    1MOL    C19   19   5.443   3.425   2.136 -0.4096 -0.1229  0.8629
    1MOL    C20   20   5.444   3.172   2.174 -0.0370  0.0947  0.1080
    1MOL    C21   21   5.487   3.046   2.130 -0.1599 -0.9683  0.2189
    1MOL    C22   22   5.408   2.930   2.152 -0.5755  0.2830  0.3755
    1MOL    C23   23   5.285   2.940   2.215 -0.4772  0.0460  0.0330
    1MOL    O24   24   5.207   2.826   2.228  0.2737  0.2917 -1.0187
    1MOL    C25   25   5.235   3.059   2.264  0.3059 -0.2389  0.6134
    1MOL    C26   26   5.314   3.178   2.235  0.0159  0.8263  0.0687
    1MOL    C27   27   5.555   3.303   1.882 -0.0509 -0.5402 -0.5684
    1MOL    C28   28   5.634   3.310   1.770  0.1822  0.6533 -0.0737
    1MOL    C29   29   5.918   3.517   1.637  0.3270 -0.1629  0.2449
    1MOL    C30   30   5.914   3.644   1.572 -0.1378 -0.3761  0.5571
    1MOL    C31   31   5.821   3.709   1.124 -0.4178 -0.1626 -0.2534
    1MOL    C32   32   5.756   3.686   1.003 -0.5943  0.1870  0.2352
    1MOL    H33   33   5.458   3.839   1.036 -0.0980  1.1706  0.4920
    1MOL    H34   34   5.576   3.901   1.262 -1.5113 -1.7708 -1.1545
    1MOL    H35   35   5.705   3.541   1.318 -0.4168  0.4074  0.2022
    1MOL    H36   36   5.724   3.328   1.437  0.6725 -0.0950  0.2544
    1MOL    H37   37   5.941   3.262   1.908 -0.4357 -1.0178  1.7763
    1MOL    H38   38   5.816   3.278   2.113 -1.6193 -2.0186  0.6741
    1MOL    H39   39   5.669   3.231   2.287  1.0154  0.9234 -0.2689
    1MOL    H40   40   5.556   3.310   2.374 -0.5182 -0.3410  0.0930
    1MOL    H41   41   5.666   3.409   2.280 -0.2151  0.2410 -1.5493
    1MOL    H42   42   5.505   3.507   2.100 -0.7355  0.4617  1.6092
    1MOL    H43   43   5.373   3.403   2.056  1.4903  0.9901 -1.1509
    1MOL    H44   44   5.391   3.449   2.229  1.7387  0.8644  1.8471
    1MOL    H45   45   5.580   3.025   2.079 -0.3189  0.6487 -0.7362
    1MOL    H46   46   5.450   2.834   2.125 -1.2616 -0.4897  1.9841
    1MOL    H47   47   5.138   3.065   2.311 -0.6341  2.4038 -1.5095
    1MOL    H48   48   5.276   3.269   2.280  1.1247  1.4280 -0.2061
    1MOL    H49   49   5.450   3.327   1.877  0.2955  1.2721  0.5270
    1MOL    H50   50   5.597   3.329   1.671 -0.1431  1.2688  0.1658
    1MOL    H51   51   5.990   3.514   1.718  1.0918  1.1720 -0.3565
    1MOL    H52   52   5.966   3.727   1.616  1.3774  0.8954 -3.4688
    1MOL    H53   53   5.911   3.656   1.153  0.1878 -0.9147 -3.3387
    1MOL    H54   54   5.810   3.623   0.935 -0.9591  2.5677 -2.3622
    1MOL    H55   55   5.580   3.713   0.879  0.1718 -1.0637  0.3146
    1MOL    C56   56   5.264   2.698   2.212 -0.2088  0.1170 -0.7485
    1MOL    C57   57   5.244   2.632   2.097 -0.3487  0.6521 -0.3940
    1MOL    C58   58   5.298   2.508   2.074 -0.1345  0.4086 -0.9423
    1MOL    C59   59   5.381   2.447   2.172 -0.4260  0.6211 -0.0406
    1MOL    S60   60   5.460   2.286   2.142 -0.1245 -0.0671 -0.1089
    1MOL    O61   61   5.567   2.273   2.244 -0.0134 -0.6413  0.3026
    1MOL    O62   62   5.499   2.279   2.001  0.1276 -0.1115  0.0857
    1MOL    C63   63   5.330   2.169   2.168 -0.7106  0.6806 -0.7745
    1MOL    C64   64   5.364   2.037   2.203 -0.3565  0.0615 -0.2296
    1MOL    C65   65   5.268   1.940   2.232  0.0339 -0.3249 -0.4789
    1MOL    C66   66   5.130   1.977   2.211  0.0294  0.6047 -0.4691
    1MOL    O67   67   5.034   1.880   2.223  0.1373  0.3288 -0.2731
    1MOL    C68   68   4.981   1.825   2.111 -0.2856  0.7762 -0.2285
    1MOL    C69   69   5.051   1.736   2.027 -0.9376 -0.6165 -0.1224
    1MOL    C70   70   4.986   1.674   1.914  0.4730  0.6107 -0.4228
    1MOL    C71   71   4.854   1.705   1.881  0.5929 -0.4742 -0.2282
    1MOL    C72   72   4.781   1.627   1.761 -0.3046  0.1157  0.3099
    1MOL    C73   73   4.866   1.517   1.695 -0.6597  0.8580  0.6650
    1MOL    C74   74   4.651   1.565   1.817  0.5450 -0.0790 -0.0516
    1MOL    C75   75   4.744   1.729   1.650 -0.4483 -0.1358  0.4507
    1MOL    C76   76   4.802   1.853   1.637 -0.3084 -0.1815  0.7348
    1MOL    C77   77   4.761   1.945   1.543 -0.2262  0.1350  0.9628
    1MOL    C78   78   4.660   1.912   1.449  0.1581 -0.2190 -0.3489
    1MOL    O79   79   4.630   2.005   1.350  0.1636 -0.1334 -0.2849
    1MOL    C80   80   4.612   1.780   1.439 -0.4610 -0.4321  0.0049
    1MOL    C81   81   4.646   1.692   1.546  0.0052  0.0579  0.4336
    1MOL    C82   82   4.785   1.788   1.964  0.8396  0.7433 -0.7715
    1MOL    C83   83   4.848   1.851   2.075 -0.1076 -0.0845  0.4383
    1MOL    C84   84   5.097   2.109   2.166 -0.2176 -1.0264 -0.0744
    1MOL    C85   85   5.197   2.206   2.151 -0.9882 -0.0768  1.0324
    1MOL    C86   86   5.409   2.522   2.286 -1.0418  0.7134  0.1288
    1MOL    C87   87   5.341   2.643   2.317  0.2590  0.1901  0.0756
    1MOL    H88   88   5.184   2.675   2.018 -1.4678  2.1656  1.2594
    1MOL    H89   89   5.273   2.468   1.977  1.8072 -2.0392 -0.4798
    1MOL    H90   90   5.469   2.015   2.212 -0.2631  0.3101 -0.6982
    1MOL    H91   91   5.294   1.839   2.259  2.2461 -0.5133 -3.1443
    1MOL    H92   92   5.157   1.719   2.041 -0.9941 -0.5565  0.3542
    1MOL    H93   93   5.039   1.606   1.848 -1.4798 -2.5447  1.1555
    1MOL    H94   94   4.950   1.558   1.639  0.0669 -0.5746  0.6938
    1MOL    H95   95   4.812   1.458   1.620  1.7334  1.0942 -1.3244
    1MOL    H96   96   4.903   1.442   1.764  0.1739  0.8689  0.2356
    1MOL    H97   97   4.687   1.481   1.877  1.2741  1.8447  2.2713
    1MOL    H98   98   4.575   1.621   1.871 -0.5244 -2.0168  0.5261
    1MOL    H99   99   4.591   1.525   1.736  0.6342 -2.6328  1.0651
    1MOL   H100  100   4.869   1.882   1.717  0.5540  2.8824 -0.9873
    1MOL   H101  101   4.818   2.036   1.539  3.3512 -2.0667 -0.8837
    1MOL   H102  102   4.542   1.757   1.360 -0.4036 -0.9057  0.0923
    1MOL   H103  103   4.604   1.592   1.548  2.4453 -1.0842 -1.8801
    1MOL   H104  104   4.678   1.795   1.951  0.8670  0.2060 -1.3197
    1MOL   H105  105   4.797   1.908   2.152  0.5536  0.9586  0.1219
    1MOL   H106  106   4.994   2.137   2.154  0.0310 -0.5892 -1.1843
    1MOL   H107  107   5.161   2.300   2.113  1.8674  0.8492  0.5129
    1MOL   H108  108   5.471   2.477   2.362 -0.0138  1.6899 -0.1225
    1MOL   H109  109   5.348   2.695   2.412  0.4747 -0.2673  0.3107
    1MOL   C110  110   4.499   2.042   1.327  0.0610  0.2645 -0.3169
    1MOL   C111  111   4.452   2.061   1.192 -0.1844 -0.1950 -1.0085
    1MOL   C112  112   4.316   2.083   1.175  0.7285 -0.1680 -0.1634
    1MOL   C113  113   4.232   2.103   1.288  0.1162  0.0973 -0.1287
    1MOL   S114  114   4.051   2.099   1.258  0.3055 -0.2736 -0.1951
    1MOL   O115  115   3.984   2.085   1.389  0.0646 -0.2487  0.1209
    1MOL   O116  116   4.024   1.998   1.153 -0.3395 -0.0864  0.2937
    1MOL   C117  117   3.996   2.255   1.193 -0.0232 -0.7760  0.1764
    1MOL   C118  118   4.086   2.364   1.196  0.3650 -0.1702 -0.6409
    1MOL   C119  119   4.041   2.491   1.142  0.5085  0.6315  0.2300
    1MOL   C120  120   3.906   2.513   1.108 -0.3926 -0.0218 -0.3915
    1MOL   O121  121   3.865   2.637   1.058 -0.2579 -0.0740 -0.1229
    1MOL   C122  122   3.897   2.747   1.126  0.8522  0.7194  0.2376
    1MOL   C123  123   3.845   2.761   1.250 -0.3296  0.5451  0.2316
    1MOL   C124  124   3.893   2.868   1.325  0.0695  0.1310 -0.3539
    1MOL   C125  125   3.994   2.962   1.287 -0.3586 -0.1500 -0.5309
    1MOL   C126  126   4.060   3.070   1.375 -0.2658 -1.0187 -0.7077
    1MOL   C127  127   4.011   3.208   1.336 -0.2504  0.2238 -0.5511
    1MOL   C128  128   3.999   3.067   1.518  0.0882 -0.2726  0.7753
    1MOL   C129  129   4.206   3.064   1.379 -0.1239 -0.1382  0.0048
    1MOL   C130  130   4.287   3.156   1.315 -0.8775  0.2161 -0.3439
    1MOL   C131  131   4.423   3.134   1.290  0.1457 -1.0663 -0.1806
    1MOL   C132  132   4.484   3.020   1.349  0.6144  0.0123  0.2692
    1MOL   O133  133   4.616   2.991   1.324 -0.0007  0.4905  0.5000
    1MOL   C134  134   4.405   2.930   1.429  0.1482 -0.0030  0.1891
    1MOL   C135  135   4.267   2.955   1.444 -0.2098  0.1186 -0.2694
    1MOL   C136  136   4.038   2.948   1.153  0.1052  0.8182  0.4366
    1MOL   C137  137   3.983   2.844   1.074 -0.3421  0.3202 -1.0982
    1MOL   C138  138   3.819   2.402   1.118 -0.1775 -0.3390 -0.0154
    1MOL   C139  139   3.860   2.272   1.153 -0.7547  0.3663 -0.2157
    1MOL   C140  140   4.281   2.108   1.416  0.1019 -0.5975  0.7081
    1MOL   C141  141   4.417   2.076   1.436 -0.2436  0.3610  0.3542
    1MOL   H142  142   4.523   2.038   1.115  0.0750  0.1595 -0.8741
    1MOL   H143  143   4.264   2.067   1.082 -1.6989 -0.9755  1.2946
    1MOL   H144  144   4.185   2.359   1.240  0.4797  0.7765 -0.7881
    1MOL   H145  145   4.107   2.576   1.136 -0.2230  1.1264 -0.9970
    1MOL   H146  146   3.786   2.685   1.298 -0.4307  0.1993 -0.4332
    1MOL   H147  147   3.829   2.863   1.412 -1.3968  1.8518 -1.2876
    1MOL   H148  148   3.902   3.217   1.347 -0.2809  0.0998 -0.7674
    1MOL   H149  149   4.009   3.227   1.229  0.8753 -0.3790 -0.6880
    1MOL   H150  150   4.061   3.284   1.397 -0.8142 -0.7673  1.2056
    1MOL   H151  151   4.025   3.152   1.580  2.0864  0.0980 -0.5058
    1MOL   H152  152   3.892   3.071   1.502  0.2050 -0.3848 -0.0473
    1MOL   H153  153   4.010   2.978   1.580  2.5785  0.1333  1.0003
    1MOL   H154  154   4.244   3.245   1.270  0.1216  0.6849 -0.3829
    1MOL   H155  155   4.477   3.197   1.221 -0.6478 -0.5685 -0.3527
    1MOL   H156  156   4.451   2.850   1.486  0.0009 -0.5278 -0.4174
    1MOL   H157  157   4.194   2.888   1.486 -0.8307  0.8726 -0.1435
    1MOL   H158  158   4.110   3.013   1.105  1.6614 -1.5418 -0.5293
    1MOL   H159  159   4.020   2.841   0.972 -0.3459  0.6688 -1.1107
    1MOL   H160  160   3.716   2.416   1.087 -0.0870  0.6702  0.1030
    1MOL   H161  161   3.794   2.188   1.169  0.0326 -0.8184 -2.9396
    1MOL   H162  162   4.217   2.134   1.499  1.0790  0.0914  1.2525
    1MOL   H163  163   4.453   2.078   1.538  0.1972  3.5540  0.1863
    1MOL   C164  164   4.644   2.870   1.258  0.4493  0.6780  0.6420
    1MOL   C165  165   4.571   2.834   1.144 -0.2127  0.1293 -0.4389
    1MOL   C166  166   4.612   2.721   1.073  0.3114 -0.4269  0.1371
    1MOL   C167  167   4.711   2.635   1.121  0.5203 -0.2478 -0.4641
    1MOL   S168  168   4.720   2.480   1.029 -0.3966 -0.3464  0.3027
    1MOL   O169  169   4.756   2.505   0.892  0.3987 -0.3700  0.3412
    1MOL   O170  170   4.598   2.405   1.058  0.3348  0.4000  0.2097
    1MOL   C171  171   4.855   2.384   1.101 -0.4732 -0.5737  0.2683
    1MOL   C172  172   4.829   2.303   1.212 -0.2019  0.0924 -0.5875
    1MOL   C173  173   4.939   2.242   1.286  0.0240 -0.1475  0.1248
    1MOL   C174  174   5.070   2.246   1.229 -0.8569  0.9580  0.6741
    1MOL   O175  175   5.172   2.177   1.285  0.3136  0.0641 -0.1784
    1MOL   C176  176   5.236   2.101   1.193 -0.1580 -0.0450 -0.1133
    1MOL   C177  177   5.365   2.134   1.146 -0.0657 -1.1026 -0.5970
    1MOL   C178  178   5.436   2.045   1.070  0.1707 -0.1175  0.4562
    1MOL   C179  179   5.385   1.921   1.024 -0.0210 -0.2487  0.0504
    1MOL   C180  180   5.471   1.836   0.932 -0.0019 -0.8090  0.6854
    1MOL   C181  181   5.409   1.692   0.912 -0.9623  0.6110 -0.7644
    1MOL   C182  182   5.475   1.907   0.796 -0.0410  0.0165 -0.0324
    1MOL   C183  183   5.610   1.817   0.995 -0.4256 -0.0986  0.0837
    1MOL   C184  184   5.630   1.764   1.128  0.4341  1.0167  0.8358
    1MOL   C185  185   5.760   1.738   1.180  0.3948 -0.1638 -0.5814
    1MOL   C186  186   5.872   1.789   1.112  0.4734 -0.8529  0.3032
    1MOL   O187  187   5.994   1.766   1.174  0.8168  0.0779  0.2292
    1MOL   C188  188   5.862   1.851   0.982 -0.5730  0.1027 -0.1033
    1MOL   C189  189   5.730   1.864   0.934 -0.3230 -0.9276 -0.0556
    1MOL   C190  190   5.253   1.884   1.064  0.5844 -0.7813  0.7829
    1MOL   C191  191   5.188   1.978   1.148  0.4057  0.2597  0.0848
    1MOL   C192  192   5.093   2.322   1.114 -0.8761  0.3709 -0.5105
    1MOL   C193  193   4.984   2.390   1.052 -0.7062  0.2271 -0.8217
    1MOL   C194  194   4.783   2.668   1.233 -0.5378  0.6086 -0.4383
    1MOL   C195  195   4.743   2.784   1.308 -0.4019  0.8328  0.0550
    1MOL   H196  196   4.493   2.900   1.108 -2.0727 -1.2911  0.9591
    1MOL   H197  197   4.547   2.696   0.990 -0.5577  0.0697  0.6723
    1MOL   H198  198   4.725   2.296   1.240 -0.0613  0.6519  0.0831
    1MOL   H199  199   4.932   2.181   1.375  0.8938  0.4356  0.6001
    1MOL   H200  200   5.421   2.218   1.185 -2.7064  0.1293  0.6217
    1MOL   H201  201   5.537   2.077   1.047 -0.2736 -0.2454 -1.8622
    1MOL   H202  202   5.326   1.685   0.842 -0.6202  0.8706 -1.2005
    1MOL   H203  203   5.369   1.645   1.003  0.4008 -1.5653 -1.2432
    1MOL   H204  204   5.481   1.625   0.864 -0.7257 -2.0181  3.0233
    1MOL   H205  205   5.502   2.012   0.807  0.5531 -0.0436 -0.8607
    1MOL   H206  206   5.555   1.860   0.739  1.3359  0.5777  1.4243
    1MOL   H207  207   5.378   1.905   0.744  0.4725 -2.1648 -0.9676
    1MOL   H208  208   5.545   1.729   1.185 -0.0244 -1.5914 -1.3432
    1MOL   H209  209   5.763   1.695   1.279 -1.9995  0.6609 -0.1203
    1MOL   H210  210   5.954   1.891   0.942  1.2599 -3.1327  0.6920
    1MOL   H211  211   5.717   1.925   0.845  1.4131  0.0125  0.3082
    1MOL   H212  212   5.198   1.795   1.036 -2.0871  0.6446  1.2529
    1MOL   H213  213   5.085   1.955   1.172  0.3763  3.3195  3.2351
    1MOL   H214  214   5.194   2.331   1.077 -0.9918  1.3217 -0.6211
    1MOL   H215  215   4.999   2.456   0.968  0.1462  0.2709 -0.6341
    1MOL   H216  216   4.861   2.597   1.257  0.8767  2.0232 -0.7636
    1MOL   H217  217   4.797   2.808   1.399  1.6788 -0.1322 -0.9052
    1MOL   C218  218   6.106   1.785   1.101  0.4118 -0.0437 -0.5216
    1MOL   C219  219   6.199   1.872   1.157 -0.8353 -0.1513 -0.9248
    1MOL   C220  220   6.316   1.896   1.082 -0.6219 -0.6442 -0.2912
    1MOL   C221  221   6.343   1.832   0.956 -0.1614  0.4120  0.0546
    1MOL   S222  222   6.495   1.859   0.868 -0.2011  0.0678  0.1762
    1MOL   O223  223   6.596   1.756   0.910  0.2204 -0.3744 -0.2231
    1MOL   O224  224   6.521   2.005   0.871  0.1241 -0.2615  0.3786
    1MOL   C225  225   6.456   1.831   0.699  0.5448  0.0132  0.3231
    1MOL   C226  226   6.510   1.729   0.622  0.2953 -0.3747  0.2618
    1MOL   C227  227   6.465   1.701   0.490 -0.1242 -0.0325  0.7864
    1MOL   C228  228   6.370   1.792   0.429  0.3282  0.8912 -0.4537
    1MOL   O229  229   6.318   1.771   0.302  0.2877 -0.0025 -0.3390
    1MOL   C230  230   6.407   1.802   0.197  0.2095  0.2742  0.3347
    1MOL   C231  231   6.512   1.721   0.165  0.3933  0.2149 -0.2913
    1MOL   C232  232   6.587   1.740   0.053  0.8338 -0.5018  0.0329
    1MOL   C233  233   6.563   1.853   8.223  0.4290  0.7417  0.2665
    1MOL   C234  234   6.650   1.874   8.095 -0.2354 -0.3764  0.2018
    1MOL   C235  235   6.622   1.753   8.001  0.0899 -0.0619 -0.5682
    1MOL   C236  236   6.612   1.998   8.013  0.7503 -0.6593  1.3481
    1MOL   C237  237   6.799   1.889   8.137 -0.0086  0.7417 -0.5977
    1MOL   C238  238   6.905   1.831   8.063  0.4776 -0.0880 -0.6156
    1MOL   C239  239   7.039   1.857   8.092 -0.4507  0.1864  0.4917
    1MOL   C240  240   7.072   1.937   8.207  0.1196 -0.8500  0.0939
    1MOL   O241  241   7.204   1.942   8.248  0.0174 -0.2863  0.5790
    1MOL   C242  242   6.966   1.983   0.038  0.4177 -0.7170  0.2132
    1MOL   C243  243   6.838   1.964   8.250  0.0064  0.3703 -0.1605
    1MOL   C244  244   6.457   1.941   0.002 -0.1808  1.0214  0.1136
    1MOL   C245  245   6.384   1.914   0.122 -0.5475 -0.1598  0.2077
    1MOL   C246  246   6.323   1.900   0.503  0.0348 -0.3064 -0.0896
    1MOL   C247  247   6.367   1.919   0.635  0.2737 -0.3638 -0.2753
    1MOL   C248  248   6.246   1.744   0.901 -0.0042 -0.3082  0.8049
    1MOL   C249  249   6.128   1.717   0.975 -0.2443 -0.0046 -0.3972
    1MOL   H250  250   6.184   1.914   1.256  1.6351 -1.2628 -0.0350
    1MOL   H251  251   6.393   1.961   1.122 -1.5861  0.5635 -0.3612
    1MOL   H252  252   6.574   1.657   0.671  2.2336 -0.2176 -1.9556
    1MOL   H253  253   6.493   1.608   0.442  1.2592  0.6517  0.2477
    1MOL   H254  254   6.529   1.631   0.223  3.7531  1.2044  0.3976
    1MOL   H255  255   6.668   1.671   0.032 -0.1610 -1.6434 -0.1282
    1MOL   H256  256   6.672   1.758   7.904  2.3546  0.4832  0.5974
    1MOL   H257  257   6.515   1.750   7.982 -0.2666 -0.2246  1.3522
    1MOL   H258  258   6.656   1.664   8.053 -2.0086 -0.3794  0.3060
    1MOL   H259  259   6.512   1.981   7.971  1.8158 -0.2530 -1.4851
    1MOL   H260  260   6.612   2.087   8.076 -3.6267 -0.4435  1.2311
    1MOL   H261  261   6.674   2.015   7.925  1.9682 -1.6926  1.9883
    1MOL   H262  262   6.881   1.776   7.973  0.2451  0.7572 -1.0776
    1MOL   H263  263   7.115   1.814   8.029 -0.3048 -1.5127  1.7824
    1MOL   H264  264   6.992   2.046   0.122  0.1414  2.4046 -1.9508
    1MOL   H265  265   6.758   2.012   0.050 -0.6224  0.2041 -0.9429
    1MOL   H266  266   6.443   2.034   8.202  3.0361  0.0407 -2.6293
    1MOL   H267  267   6.302   1.980   0.146  1.6168  1.9381  2.1678
    1MOL   H268  268   6.254   1.974   0.464  0.6621  1.6845  2.4789
    1MOL   H269  269   6.333   2.004   0.692 -0.8887 -0.2968 -1.0668
    1MOL   H270  270   6.268   1.704   0.803 -0.3279 -0.8888  0.9730
    1MOL   H271  271   6.042   1.663   0.937 -0.7103  0.3847  0.0958
    1MOL   C272  272   7.247   2.066   0.032 -0.0609  0.9920  0.7496
    1MOL   C273  273   7.261   2.113   0.162  1.0233 -0.3755  0.0059
    1MOL   C274  274   7.307   2.244   0.189  0.3071  0.1411  0.4660
    1MOL   C275  275   7.334   2.331   0.080 -0.9390  0.7288 -0.1021
    1MOL   S276  276   7.399   2.490   0.116 -0.0500 -0.3220 -0.4318
    1MOL   O277  277   7.437   2.551   8.244  0.3268 -0.0755  0.4682
    1MOL   O278  278   7.499   2.474   0.228 -0.0305 -0.7212  0.0175
    1MOL   C279  279   7.256   2.581   0.183  0.0439 -0.0207 -0.0627
    1MOL   C280  280   7.133   2.577   0.116 -0.1960 -0.1567  0.0509
    1MOL   C281  281   7.022   2.639   0.172  0.1046  0.1572 -0.8832
    1MOL   C282  282   7.029   2.698   0.296 -0.1322  1.0599  0.2889
    1MOL   O283  283   6.916   2.759   0.351 -0.4658 -0.3908 -0.1881
    1MOL   C284  284   6.813   2.803   0.264 -0.0630  0.1938 -0.2002
    1MOL   C285  285   6.827   2.913   0.177  0.4486 -0.1609  0.0737
    1MOL   C286  286   6.715   2.967   0.111  0.9948  0.1668  0.2447
    1MOL   C287  287   6.586   2.905   0.120  0.3404  0.3096 -0.4859
    1MOL   C288  288   6.469   2.956   0.039  0.3935 -0.3494 -0.2615
    1MOL   C289  289   6.344   2.877   0.071 -0.2643 -0.3203 -0.7795
    1MOL   C290  290   6.441   3.110   0.069  0.0283  0.2079  0.0706
    1MOL   C291  291   6.511   2.927   8.145  0.0855 -0.3987  0.2682
    1MOL   C292  292   6.469   3.001   8.035 -0.1378  0.1028 -0.6883
    1MOL   C293  293   6.505   2.959   7.903  0.1395  0.3974  0.4442
    1MOL   C294  294   6.578   2.845   7.876 -0.9670  0.0984  0.2530
    1MOL   O295  295   6.595   2.791   7.750  0.0757 -0.6026  0.3558
    1MOL   C296  296   6.614   2.766   7.986  0.5758 -0.2806  0.2990
    1MOL   C297  297   6.586   2.811   8.111  0.1162 -0.4680  0.0520
    1MOL   C298  298   6.573   2.795   0.206 -0.1355  0.1001  0.5308
    1MOL   C299  299   6.685   2.742   0.276  0.4832 -0.3717  0.5376
    1MOL   C300  300   7.148   2.704   0.362 -0.6560  0.6262  0.1800
    1MOL   C301  301   7.269   2.642   0.311 -0.0121  0.0221 -0.8778
    1MOL   C302  302   7.330   2.281   8.205 -0.3549 -0.6187  0.2353
    1MOL   C303  303   7.281   2.153   8.180 -0.6300  0.4631  0.1583
    1MOL   H304  304   7.219   2.055   0.243  1.1272 -0.1298  0.2386
    1MOL   H305  305   7.321   2.274   0.292 -0.7279 -1.0397  0.9700
    1MOL   H306  306   7.126   2.544   0.014  1.3339  1.6510 -0.6660
    1MOL   H307  307   6.928   2.629   0.118  0.2849  0.2660 -1.2212
    1MOL   H308  308   6.923   2.962   0.180 -0.5896  1.9475  0.4774
    1MOL   H309  309   6.728   3.041   0.034 -0.1611  0.8043  0.6406
    1MOL   H310  310   6.357   2.771   0.050 -2.1707 -0.5474 -0.9093
    1MOL   H311  311   6.256   2.906   0.014 -0.1898 -0.6950 -1.0903
    1MOL   H312  312   6.313   2.878   0.175  0.9007 -1.3130 -0.4083
    1MOL   H313  313   6.359   3.155   0.013  0.5380  0.8787 -0.1408
    1MOL   H314  314   6.424   3.118   0.177  0.1540 -0.2196  0.1220
    1MOL   H315  315   6.524   3.174   0.040  0.0212 -0.0488 -0.5117
    1MOL   H316  316   6.397   3.081   8.048  0.9154  1.3656 -2.4563
    1MOL   H317  317   6.471   3.013   7.816 -1.0339 -1.5653 -0.3472
    1MOL   H318  318   6.665   2.672   7.973 -0.3548 -0.5945 -1.1471
    1MOL   H319  319   6.617   2.754   8.197  1.0369  0.4090  0.3109
    1MOL   H320  320   6.486   2.731   0.209 -0.6253  0.7906  0.9607
    1MOL   H321  321   6.666   2.656   0.339 -0.1434 -0.9583 -0.4308
    1MOL   H322  322   7.140   2.746   0.462  2.0217  2.3435 -0.2791
    1MOL   H323  323   7.359   2.634   0.370 -0.2918  1.8061 -0.1901
    1MOL   H324  324   7.354   2.341   8.118  2.4481 -1.7372  0.2021
    1MOL   H325  325   7.271   2.119   8.078 -0.8673  0.7130  0.0997
    1MOL   C326  326   6.577   2.866   7.637  0.0359  0.0583 -0.1370
    1MOL   C327  327   6.453   2.864   7.570  0.0541 -0.5109 -0.1146
    1MOL   C328  328   6.430   2.936   7.454 -0.5819  0.6867 -0.0166
    1MOL   C329  329   6.531   3.023   7.409  0.1617  0.0138  0.3527
    1MOL   S330  330   6.500   3.123   7.272 -0.0750 -0.1925  0.1960
    1MOL   O331  331   6.382   3.073   7.200  0.0233  0.2863 -0.3236
    1MOL   O332  332   6.627   3.150   7.207 -0.0457  0.5051  0.0629
    1MOL   C333  333   6.463   3.276   7.357  0.3040 -0.2614 -0.6427
    1MOL   C334  334   6.551   3.386   7.366 -0.2313 -0.2302  0.6154
    1MOL   C335  335   6.524   3.494   7.451  0.4870  0.3119 -0.4119
    1MOL   C336  336   6.405   3.485   7.530  0.1169 -0.3039  0.4805
    1MOL   O337  337   6.380   3.591   7.616  0.5584 -0.9249 -0.0334
    1MOL   C338  338   6.321   3.555   7.738  0.1793  0.4704  0.5432
    1MOL   C339  339   6.190   3.606   7.764 -0.3401 -0.5068  0.2457
    1MOL   C340  340   6.112   3.550   7.867  0.7188  0.2636 -0.1687
    1MOL   C341  341   6.162   3.446   7.946  0.1465  0.2160  0.7664
    1MOL   C342  342   6.068   3.391   8.057  0.3075  0.0328  0.6961
    1MOL   C343  343   6.121   3.422   8.195  0.3814  0.3499  0.2100
    1MOL   C344  344   5.916   3.445   8.058  0.0382  0.7626  0.2495
    1MOL   C345  345   6.066   3.243   8.029 -0.6074 -0.4469  0.7569
    1MOL   C346  346   6.089   3.144   8.127  0.0563 -0.0808  0.0938
    1MOL   C347  347   6.073   3.002   8.104 -0.0734  1.0090  0.1014
    1MOL   C348  348   6.029   2.964   7.972  0.4304  0.1377  0.4477
    1MOL   O349  349   5.995   2.833   7.950 -0.2370  0.5009  0.3953
    1MOL   C350  350   5.997   3.063   7.877  0.4493 -0.1339  0.5662
    1MOL   C351  351   6.011   3.201   7.908  0.3220  0.5960 -0.0675
    1MOL   C352  352   6.287   3.388   7.920  0.6489 -0.5124 -0.1851
    1MOL   C353  353   6.371   3.447   7.817  0.1902  0.2638  0.7763
    1MOL   C354  354   6.316   3.380   7.516 -0.1747  0.5954 -0.1065
    1MOL   C355  355   6.346   3.273   7.428 -0.2816  0.1667 -0.6661
    1MOL   C356  356   6.651   3.033   7.480  0.7940 -0.3099 -0.2945
    1MOL   C357  357   6.679   2.952   7.592 -0.2416 -0.0033  1.1584
    1MOL   H358  358   6.368   2.808   7.606  0.8517 -1.0327  0.9886
    1MOL   H359  359   6.343   2.931   7.390  0.4421 -0.5279 -1.3369
    1MOL   H360  360   6.646   3.389   7.315 -1.3387  1.1516 -1.4529
    1MOL   H361  361   6.591   3.577   7.466  1.5325 -0.1778 -2.2279
    1MOL   H362  362   6.143   3.670   7.690 -0.8864  0.3219  1.3031
    1MOL   H363  363   6.017   3.596   7.888  1.4291  1.3657  0.7067
    1MOL   H364  364   6.126   3.528   8.222  1.2740  0.7624 -1.4883
    1MOL   H365  365   6.220   3.380   8.214  0.0440 -1.2333 -1.4235
    1MOL   H366  366   6.055   3.386   0.020  0.6634 -0.4537  0.0729
    1MOL   H367  367   5.912   3.554   8.060  1.7132  0.8556 -0.6570
    1MOL   H368  368   5.868   3.417   7.964  0.6022  1.1306 -0.1567
    1MOL   H369  369   5.855   3.414   8.143 -2.4362 -0.1986 -1.8076
    1MOL   H370  370   6.109   3.167   8.231  1.0146 -3.0954  0.6265
    1MOL   H371  371   6.085   2.917   8.170 -0.8191  0.7003 -0.1584
    1MOL   H372  372   5.957   3.047   7.778 -0.4663  0.7140  0.7828
    1MOL   H373  373   5.973   3.273   7.838  0.6183  1.4185  0.6059
    1MOL   H374  374   6.327   3.305   7.977 -1.2774 -0.4113  1.3773
    1MOL   H375  375   6.457   3.390   7.785 -0.4930  1.4434 -3.4428
    1MOL   H376  376   6.223   3.379   7.570  0.2274  1.0922  0.5978
    1MOL   H377  377   6.283   3.186   7.417 -2.2039  1.5418 -0.7743
    1MOL   H378  378   6.725   3.103   7.443 -0.6108  1.0500 -0.6002
    1MOL   H379  379   6.770   2.948   7.651  1.8372 -1.1981 -2.0250
    1MOL   C380  380   6.085   2.730   7.963  0.4047 -0.0453  0.0156
    1MOL   C381  381   6.201   2.730   7.887  0.3331  0.6194  0.3180
    1MOL   C382  382   6.286   2.618   7.897 -0.3278 -0.2046  0.9770
    1MOL   C383  383   6.257   2.509   7.981  0.0904  0.4345 -0.2382
    1MOL   S384  384   6.366   2.373   7.986  0.3589 -0.3398  0.0564
    1MOL   O385  385   6.362   2.322   8.124 -0.0999  0.1650 -0.6542
    1MOL   O386  386   6.494   2.417   7.926 -0.3996  0.6064  0.2567
    1MOL   C387  387   6.291   2.257   7.878 -0.1183  0.1979 -0.3887
    1MOL   C388  388   6.250   2.132   7.928 -0.3540 -0.0206 -0.1575
    1MOL   C389  389   6.183   2.047   7.839  0.1705 -0.3181 -0.2989
    1MOL   C390  390   6.169   2.071   7.704 -0.1824 -0.7898  0.6558
    1MOL   O391  391   6.105   1.980   7.620 -0.6829 -0.3840 -0.2128
    1MOL   C392  392   5.968   1.998   7.593 -0.4298  0.2816 -0.5406
    1MOL   C393  393   5.931   2.098   7.503  0.0275  0.8140  0.3776
    1MOL   C394  394   5.796   2.118   7.467 -0.3355  0.1249  0.1609
    1MOL   C395  395   5.694   2.033   7.524 -0.2036  0.5925  0.0021
    1MOL   C396  396   5.551   2.049   7.478  0.0659  0.6950 -0.0015
    1MOL   C397  397   5.538   1.997   7.325 -0.1483 -0.0758 -0.5378
    1MOL   C398  398   5.456   1.970   7.562  0.1879 -0.3177  0.3464
    1MOL   C399  399   5.508   2.195   7.486 -0.6954  0.7986  0.0177
    1MOL   C400  400   5.456   2.271   7.377  0.1600  0.4165  0.4806
    1MOL   C401  401   5.417   2.404   7.394  0.2002 -1.0246 -0.2850
    1MOL   C402  402   5.418   2.472   7.518 -0.1325  0.5471  0.6734
    1MOL   O403  403   5.371   2.595   7.539  0.2468  0.0768  0.0651
    1MOL   C404  404   5.461   2.400   7.626 -0.0249  0.3422 -0.4737
    1MOL   C405  405   5.507   2.267   7.608 -0.1221  0.7083 -0.3293
    1MOL   C406  406   5.734   1.943   7.624 -0.4410 -0.3625  0.1304
    1MOL   C407  407   5.870   1.928   7.660 -0.8182  0.1278  0.8506
    1MOL   C408  408   6.218   2.193   7.656  0.2307  0.2966  0.2282
    1MOL   C409  409   6.279   2.286   7.739  0.3906 -0.9296  0.4383
    1MOL   C410  410   6.142   2.509   8.060  0.0729 -0.0044  0.2604
    1MOL   C411  411   6.057   2.619   8.052 -0.2153 -0.3630  0.1674
    1MOL   H412  412   6.230   2.810   7.819 -0.3535  0.6354  0.0425
    1MOL   H413  413   6.379   2.612   7.843 -0.5900  1.8282  0.2682
    1MOL   H414  414   6.268   2.109   8.032  0.1282  2.1050  0.2516
    1MOL   H415  415   6.145   1.951   7.870 -2.5208  0.7956  0.0636
    1MOL   H416  416   6.009   2.153   7.454 -0.3010  0.4022 -0.6234
    1MOL   H417  417   5.772   2.177   7.380  0.5126 -2.3771 -1.8395
    1MOL   H418  418   5.436   1.995   7.287  0.0575 -0.4243 -1.0725
    1MOL   H419  419   5.577   1.896   7.323  0.6227  0.1870  0.7051
    1MOL   H420  420   5.599   2.058   7.259  0.5354 -0.7441 -0.5222
    1MOL   H421  421   5.446   1.983   7.670  2.4463  1.5833  0.3641
    1MOL   H422  422   5.359   1.999   7.519 -0.2128  0.1355  1.5364
    1MOL   H423  423   5.462   1.863   7.543  2.1137 -0.1321 -0.2193
    1MOL   H424  424   5.454   2.227   7.278 -1.2312 -0.4405  0.8824
    1MOL   H425  425   5.381   2.452   7.304  2.9387  0.1950 -0.8156
    1MOL   H426  426   5.455   2.439   7.726  2.1543 -0.6362  0.0758
    1MOL   H427  427   5.525   2.216   7.702 -0.7503 -2.1945 -1.7205
    1MOL   H428  428   5.660   1.884   7.676  0.2651 -1.9094 -0.5818
    1MOL   H429  429   5.908   1.855   7.730  1.3995 -0.0776 -0.5163
    1MOL   H430  430   6.204   2.220   7.553 -1.9007  1.3922  0.7675
    1MOL   H431  431   6.309   2.384   7.705  0.9761 -0.8200  1.2432
    1MOL   H432  432   6.115   2.438   8.137  1.1989  0.1020  0.7683
    1MOL   H433  433   5.960   2.610   8.098  0.0224 -0.4987  0.6436
    1MOL   C434  434   5.353   2.670   7.424  0.0725 -0.9492  0.2121
    1MOL   C435  435   5.457   2.754   7.383  0.0430 -0.5231 -0.1563
    1MOL   C436  436   5.439   2.836   7.268 -0.1790 -0.2635  0.4585
    1MOL   C437  437   5.320   2.831   7.195 -0.0247 -0.1426  0.7054
    1MOL   S438  438   5.304   2.942   7.057  0.1257  0.2813 -0.1550
    1MOL   O439  439   5.437   2.951   7.004  0.1102 -1.0315  0.1153
    1MOL   O440  440   5.221   3.057   7.103 -0.1251 -0.5299 -0.0592
    1MOL   C441  441   5.208   2.857   6.937 -0.4123 -0.8854 -0.1131
    1MOL   C442  442   5.069   2.852   6.943  0.2097  0.0663  0.5058
    1MOL   C443  443   4.995   2.776   6.852  0.0747 -0.5313  0.7655
    1MOL   C444  444   5.057   2.707   6.749  0.7781  0.6321  0.4303
    1MOL   O445  445   4.984   2.621   6.674 -0.4462 -0.4488 -0.0126
    1MOL   C446  446   4.902   2.670   6.573 -0.3535  0.3341 -0.3698
    1MOL   C447  447   4.774   2.618   6.559  0.0809  0.8553 -1.1101
    1MOL   C448  448   4.693   2.668   6.457  0.1093 -1.0199  0.1539
    1MOL   C449  449   4.732   2.786   6.378  0.0590  0.7846  0.0797
    1MOL   C450  450   4.638   2.829   6.260 -0.3774  0.1385 -0.2364
    1MOL   C451  451   4.542   2.942   6.323  0.8088 -0.4754 -0.7104
    1MOL   C452  452   4.724   2.898   6.153  0.2054  0.0718  0.0426
    1MOL   C453  453   4.556   2.716   6.196 -0.3302 -0.1550 -0.7525
    1MOL   C454  454   4.628   2.636   6.103 -0.1558  0.1083  0.0906
    1MOL   C455  455   4.555   2.533   6.034 -0.2030 -0.4031  0.8943
    1MOL   C456  456   4.429   2.495   6.085  0.1412 -0.4667  0.2453
    1MOL   O457  457   4.368   2.390   6.024 -0.3191 -0.6179 -0.2369
    1MOL   C458  458   4.356   2.580   6.172 -0.0380  0.4829  0.1421
    1MOL   C459  459   4.419   2.692   6.224  0.4920 -0.4081 -0.1167
    1MOL   C460  460   4.858   2.840   6.408  0.1130 -0.0523 -0.0521
    1MOL   C461  461   4.952   2.778   6.490 -0.4412  0.1046 -0.5342
    1MOL   C462  462   5.198   2.714   6.740  0.4657  0.1456 -0.2147
    1MOL   C463  463   5.277   2.796   6.829  0.3585  0.3647  0.3272
    1MOL   C464  464   5.222   2.742   7.240  0.0509  0.1916 -0.0201
    1MOL   C465  465   5.228   2.665   7.356 -0.7746  0.3733 -0.5422
    1MOL   H466  466   5.543   2.750   7.447 -0.0425 -3.3829 -0.1376
    1MOL   H467  467   5.521   2.898   7.237  0.4047 -0.5331  1.4398
    1MOL   H468  468   5.010   2.912   7.011  0.4636  0.6744  0.1906
    1MOL   H469  469   4.887   2.772   6.852  0.0316 -0.0160 -1.5917
    1MOL   H470  470   4.739   2.537   6.623 -0.8802  0.4956 -2.0668
    1MOL   H471  471   4.593   2.634   6.438  0.7993 -2.0698 -1.7674
    1MOL   H472  472   4.469   2.977   6.250 -1.7560 -1.2181  1.4116
    1MOL   H473  473   4.584   3.031   6.369  0.0143 -1.9398  3.0580
    1MOL   H474  474   4.481   2.903   6.404 -2.3218  0.7550 -2.3573
    1MOL   H475  475   4.769   2.991   6.189  2.5165 -0.0363 -2.3592
    1MOL   H476  476   4.808   2.837   6.119  0.3515  1.2325 -1.7178
    1MOL   H477  477   4.668   2.918   6.062  0.3577 -0.8008 -0.2497
    1MOL   H478  478   4.735   2.638   6.087  0.2010 -1.7273  1.9488
    1MOL   H479  479   4.585   2.469   5.953 -0.8926  1.5383 -0.9304
    1MOL   H480  480   4.253   2.558   6.197 -0.2280 -0.2127 -1.2330
    1MOL   H481  481   4.367   2.753   6.297 -0.8491 -1.2666 -0.3307
    1MOL   H482  482   4.888   2.932   6.360  1.2538 -0.1785  0.3943
    1MOL   H483  483   5.047   2.828   6.507  0.0102 -0.0442 -2.5284
    1MOL   H484  484   5.258   2.659   6.670  0.3660  0.5462 -0.6172
    1MOL   H485  485   5.384   2.801   6.814  0.0619  2.4148 -1.2275
    1MOL   H486  486   5.124   2.749   7.195  0.3015 -0.6071 -0.7194
    1MOL   H487  487   5.139   2.606   7.374  0.8630 -1.4235  1.9683
    1MOL   C488  488   4.324   2.403   5.901 -0.0063  1.0628 -0.9394
    1MOL   C489  489   4.333   2.292   5.812 -0.1371 -0.1698 -0.1078
    1MOL   C490  490   4.281   2.293   5.680 -1.1526  0.0000  0.4310
    1MOL   C491  491   4.229   2.418   5.634  0.1473  0.4972  0.7123
    1MOL   S492  492   4.174   2.435   5.466  0.6774 -0.0835 -0.1418
    1MOL   O493  493   4.076   2.546   5.466  0.1199  0.5040  0.6178
    1MOL   O494  494   4.133   2.302   5.423  0.0314  0.5534 -0.1771
    1MOL   C495  495   4.319   2.482   5.380 -0.2131 -0.3184 -0.1708
    1MOL   C496  496   4.413   2.583   5.425  0.0539  0.1928 -0.4360
    1MOL   C497  497   4.528   2.603   5.351 -0.1706 -0.2128 -0.1978
    1MOL   C498  498   4.556   2.534   5.234 -0.6068 -0.2205 -0.2988
    1MOL   O499  499   4.671   2.568   5.163 -0.2254  0.1071 -0.1147
    1MOL   C500  500   4.787   2.497   5.179 -0.0945  0.1299 -0.0677
    1MOL   C501  501   4.794   2.367   5.132 -0.3040  0.1643  0.3231
    1MOL   C502  502   4.918   2.303   5.124 -0.0775  0.4004  0.2139
    1MOL   C503  503   5.035   2.368   5.154 -0.0215  0.0465  0.7501
    1MOL   C504  504   5.181   2.306   5.119  0.9659  0.1404  0.2509
    1MOL   C505  505   5.246   2.390   5.003 -0.0359 -0.4211  0.4799
    1MOL   C506  506   5.285   2.328   5.229 -0.1543  0.1590 -0.5378
    1MOL   C507  507   5.167   2.162   5.072  0.1911  0.3263 -0.2175
    1MOL   C508  508   5.150   2.126   4.929  0.3487 -0.5029 -0.1461
    1MOL   C509  509   5.145   1.988   4.898 -0.1556  0.0100 -0.4610
    1MOL   C510  510   5.150   1.891   4.996 -0.2662  0.2980 -0.0040
    1MOL   O511  511   5.139   1.759   4.952 -0.0788 -0.2122  0.1232
    1MOL   C512  512   5.168   1.922   5.134 -0.0816 -0.5630  0.0375
    1MOL   C513  513   5.175   2.061   5.173  0.2963  0.6902 -1.1084
    1MOL   C514  514   5.025   2.498   5.207  0.2803  0.2131 -0.3525
    1MOL   C515  515   4.901   2.565   5.225  0.1386  0.4442  0.2539
    1MOL   C516  516   4.462   2.441   5.178 -0.6050 -0.3433 -0.7584
    1MOL   C517  517   4.343   2.414   5.259  0.0055  0.6414 -0.7038
    1MOL   C518  518   4.216   2.526   5.722  0.1980  0.1126 -0.3018
    1MOL   C519  519   4.258   2.515   5.857 -0.3095 -0.5455  0.9454
    1MOL   H520  520   4.375   2.200   5.851  0.5592  0.6874  1.2007
    1MOL   H521  521   4.265   2.204   5.620 -2.5172 -0.6706  1.7598
    1MOL   H522  522   4.383   2.642   5.510 -0.6866  1.1353 -1.3346
    1MOL   H523  523   4.602   2.673   5.387 -1.3421 -0.1132  2.0667
    1MOL   H524  524   4.703   2.329   5.088 -0.7486  0.8913  0.6041
    1MOL   H525  525   4.925   2.200   5.092 -1.7178 -0.0114  1.1127
    1MOL   H526  526   5.254   2.495   5.027 -0.0764  0.3093 -2.4440
    1MOL   H527  527   5.177   2.392   4.918  0.1033 -0.3332  0.3681
    1MOL   H528  528   5.348   2.356   4.982  0.1569 -0.9994  2.3289
    1MOL   H529  529   5.384   2.285   5.214  0.3953  0.4695  1.9798
    1MOL   H530  530   5.318   2.429   5.254  0.2996 -0.0390 -0.3354
    1MOL   H531  531   5.242   2.300   5.324  0.8700 -0.1743 -0.1666
    1MOL   H532  532   5.141   2.195   4.846  0.4582 -0.4775 -0.1369
    1MOL   H533  533   5.147   1.953   4.796 -2.6336 -0.2703 -0.4348
    1MOL   H534  534   5.194   1.834   5.192  1.2677 -0.8799 -1.0051
    1MOL   H535  535   5.190   2.093   5.275 -0.2744  0.4363 -0.9417
    1MOL   H536  536   5.116   2.553   5.224 -0.4506  1.0569  0.9412
    1MOL   H537  537   4.899   2.667   5.261  1.8054  0.2269  0.9874
    1MOL   H538  538   4.475   2.398   5.080  3.7448 -1.0178 -0.0159
    1MOL   H539  539   4.268   2.352   5.214 -0.2938 -0.0601  0.7438
    1MOL   H540  540   4.174   2.619   5.688 -1.1113 -0.4492 -0.2297
    1MOL   H541  541   4.247   2.595   5.928 -1.5250  0.2394 -0.1221
    1MOL   C542  542   5.243   1.671   4.953 -0.6468  0.5233 -0.1329
    1MOL   C543  543   5.380   1.702   4.998  0.0624  0.3783  0.0313
    1MOL   C544  544   5.480   1.606   5.006 -0.0820  0.2086  0.5100
    1MOL   C545  545   5.451   1.477   4.958 -0.0370 -0.0418 -0.3601
    1MOL   S546  546   5.570   1.345   4.974 -0.0843 -0.4539  0.1188
    1MOL   O547  547   5.573   1.279   4.844 -0.8113  0.5711 -0.2703
    1MOL   O548  548   5.537   1.275   5.102  0.1585  0.8199 -0.2996
    1MOL   C549  549   5.729   1.430   4.988 -0.5421  0.4668  0.8985
    1MOL   C550  550   5.785   1.491   4.873 -0.0776  0.6515 -0.0311
    1MOL   C551  551   5.903   1.571   4.884 -0.2381 -0.4636 -0.7146
    1MOL   C552  552   5.977   1.573   4.997 -0.5785 -0.4250  0.1580
    1MOL   O553  553   6.092   1.641   5.002 -0.0558 -0.5492 -0.1449
    1MOL   C554  554   6.211   1.578   4.959 -0.5953  0.1021 -0.9759
    1MOL   C555  555   6.244   1.552   4.826 -0.0733  0.6867  0.2605
    1MOL   C556  556   6.371   1.492   4.796 -0.2594  0.0130  0.5625
    1MOL   C557  557   6.465   1.453   4.901  0.4495 -0.4776  0.5485
    1MOL   C558  558   6.606   1.396   4.864 -0.2922 -0.0932  0.5729
    1MOL   C559  559   6.627   1.290   4.972  0.5052 -0.9355 -0.0483
    1MOL   C560  560   6.616   1.324   4.720  0.0325  0.0427  0.0840
    1MOL   C561  561   6.720   1.503   4.872  0.5342 -0.5517 -0.6253
    1MOL   C562  562   6.690   1.644   4.889  0.4050 -0.1312 -0.3171
    1MOL   C563  563   6.795   1.732   4.881 -0.3392 -0.3341 -0.0201
    1MOL   C564  564   6.930   1.690   4.872  0.7280 -0.0686  0.3515
    1MOL   O565  565   7.029   1.782   4.856 -0.0347  0.5468  0.6035
    1MOL   C566  566   6.962   1.554   4.863  0.4814 -1.0797  0.1050
    1MOL   C567  567   6.854   1.467   4.857 -0.0562 -0.2863 -0.0359
    1MOL   C568  568   6.431   1.488   5.035 -0.2907 -0.4033  0.3043
    1MOL   C569  569   6.306   1.550   5.059 -0.3234  0.4907  0.2160
    1MOL   C570  570   5.925   1.505   5.110 -0.3027  0.3175  0.0464
    1MOL   C571  571   5.808   1.431   5.106  0.2717 -0.1232 -0.5609
    1MOL   C572  572   5.326   1.446   4.905 -0.1345  0.3188 -0.3407
    1MOL   C573  573   5.225   1.544   4.904 -0.3417  0.2103 -0.3969
    1MOL   H574  574   5.392   1.801   5.041 -0.3301  1.6418 -2.6504
    1MOL   H575  575   5.577   1.637   5.040  1.0254  2.2092 -4.0587
    1MOL   H576  576   5.738   1.475   4.777 -1.5359  0.8643  0.6290
    1MOL   H577  577   5.946   1.610   4.793  2.2327 -2.2637 -0.3497
    1MOL   H578  578   6.176   1.570   4.744 -1.1423 -0.7220  0.8225
    1MOL   H579  579   6.395   1.476   4.692  4.2667  2.3656  1.1063
    1MOL   H580  580   6.558   1.206   4.962  0.2000 -1.0668  2.7561
    1MOL   H581  581   6.635   1.326   5.075  1.2634  2.1493 -1.1311
    1MOL   H582  582   6.719   1.243   4.937  0.2957  0.5537 -2.6727
    1MOL   H583  583   6.564   1.378   4.641 -0.4645 -1.2808 -0.5063
    1MOL   H584  584   6.712   1.292   4.682 -0.2215 -0.1979 -0.3526
    1MOL   H585  585   6.560   1.230   4.724 -0.2137  0.1711 -0.3473
    1MOL   H586  586   6.591   1.686   4.897 -0.4221 -2.2530  1.1510
    1MOL   H587  587   6.770   1.837   4.876  1.6200  0.2418  1.5150
    1MOL   H588  588   7.064   1.520   4.860  0.7423 -0.5741  2.2743
    1MOL   H589  589   6.878   1.362   4.845  0.5610 -0.2728  0.9662
    1MOL   H590  590   6.496   1.477   5.120 -0.4822 -1.1533  0.3559
    1MOL   H591  591   6.278   1.594   5.153 -1.8247 -1.0461  0.5076
    1MOL   H592  592   5.991   1.515   5.195  0.2343  1.0346 -0.4505
    1MOL   H593  593   5.770   1.379   5.192  0.6850  0.0284 -0.2869
    1MOL   H594  594   5.299   1.351   4.861  0.4065 -0.8230  1.7555
    1MOL   H595  595   5.125   1.521   4.870 -0.0249  1.0031 -1.9353
    1MOL   C596  596   7.029   1.837   4.727 -0.4760 -0.0778 -0.0374
    1MOL   C597  597   7.111   1.771   4.632 -0.5918  0.4447 -0.8853
    1MOL   C598  598   7.105   1.809   4.497  0.0545  0.5435  0.6607
    1MOL   C599  599   7.034   1.924   4.455 -0.4083 -0.0675  0.8390
    1MOL   S600  600   7.025   1.969   4.282 -0.0211 -0.2591 -0.0562
    1MOL   O601  601   6.923   1.885   4.212 -0.1894  0.0973  0.1336
    1MOL   O602  602   7.163   1.978   4.228 -0.5114 -0.6238  0.0087
    1MOL   C603  603   6.965   2.143   4.269  0.5851 -0.2931  0.1683
    1MOL   C604  604   6.845   2.179   4.198  0.0013 -0.4485  0.7799
    1MOL   C605  605   6.819   2.317   4.177  0.5556 -0.3971 -0.3415
    1MOL   C606  606   6.909   2.412   4.219 -0.7956  0.1246 -0.4516
    1MOL   O607  607   6.887   2.539   4.183 -0.2567 -0.5039 -0.3706
    1MOL   C608  608   6.993   2.622   4.151  0.2844  0.8658 -0.6303
    1MOL   C609  609   7.046   2.720   4.240 -0.0973 -0.4682  0.9090
    1MOL   C610  610   7.148   2.809   4.202  0.1912  0.3321  0.5230
    1MOL   C611  611   7.207   2.799   4.076  0.3606 -0.3152  0.7585
    1MOL   C612  612   7.322   2.904   4.037 -0.3824 -0.4967 -0.5953
    1MOL   C613  613   7.449   2.869   4.114  0.2344  0.1829 -0.1975
    1MOL   C614  614   7.352   2.907   3.882 -0.0484 -0.2642 -1.0599
    1MOL   C615  615   7.269   3.051   4.075 -0.1093  0.0240  0.0549
    1MOL   C616  616   7.145   3.092   4.017 -0.2555 -0.2428 -0.3163
    1MOL   C617  617   7.096   3.223   4.046  0.1121  0.3640 -0.4705
    1MOL   C618  618   7.167   3.299   4.145  0.4950  0.3500  0.1931
    1MOL   O619  619   7.119   3.424   4.174 -0.3060 -0.3871  0.5031
    1MOL   C620  620   7.283   3.255   4.200  0.2958 -0.0301  0.0137
    1MOL   C621  621   7.335   3.134   4.163  0.7182  0.9232 -0.2829
    1MOL   C622  622   7.156   2.701   3.987  0.3204 -0.0310 -0.0192
    1MOL   C623  623   7.048   2.621   4.021  0.2303 -0.2101 -0.5101
    1MOL   C624  624   7.019   2.379   4.296  0.4584 -0.1733 -0.1186
    1MOL   C625  625   7.050   2.246   4.327 -0.0389  0.3525 -0.3701
    1MOL   C626  626   6.961   1.992   4.552 -0.5110 -0.1303 -0.3125
    1MOL   C627  627   6.955   1.951   4.684 -0.0302 -0.8612 -0.8724
    1MOL   H628  628   7.173   1.691   4.669 -2.2589 -0.1453  0.6859
    1MOL   H629  629   7.137   1.749   4.413 -0.2093  1.9883 -0.5045
    1MOL   H630  630   6.794   2.100   4.144  1.1405 -0.5708 -0.1435
    1MOL   H631  631   6.736   2.354   4.118  1.4653 -1.7145 -2.4788
    1MOL   H632  632   7.013   2.736   4.342  2.2133 -1.3847  1.8189
    1MOL   H633  633   7.178   2.888   4.269 -1.6319  1.2211  0.2970
    1MOL   H634  634   7.488   2.768   4.103  0.6789  0.2462  0.7016
    1MOL   H635  635   7.421   2.858   4.219 -0.4870 -2.4394 -0.6182
    1MOL   H636  636   7.520   2.951   4.106 -1.0170  1.3023  0.0420
    1MOL   H637  637   7.382   2.808   3.847 -0.4697 -1.7435  2.5237
    1MOL   H638  638   7.269   2.944   3.821  1.2486  4.0616 -0.3778
    1MOL   H639  639   7.435   2.972   3.853  1.7917 -1.6220  1.0084
    1MOL   H640  640   7.083   3.034   3.951  0.2678 -1.3856  0.1728
    1MOL   H641  641   7.012   3.264   3.992 -0.8631 -0.9237  0.0582
    1MOL   H642  642   7.335   3.321   4.268  0.0405 -0.1187  0.2954
    1MOL   H643  643   7.429   3.113   4.212  0.5784  2.5206  0.7004
    1MOL   H644  644   7.197   2.682   3.889  1.4965 -1.6917  0.7756
    1MOL   H645  645   7.023   2.537   3.958  0.2880 -2.4438  2.3309
    1MOL   H646  646   7.069   2.455   4.354  1.5440  0.6423 -2.0496
    1MOL   H647  647   7.132   2.233   4.395 -2.2672 -2.6768  1.8611
    1MOL   H648  648   6.918   2.088   4.528 -0.5641 -0.0433  0.1419
    1MOL   H649  649   6.906   2.016   4.755  4.1732  0.5225  0.9224
    1MOL   C650  650   7.209   3.529   4.155 -1.3959 -0.2046  0.2683
    1MOL   C651  651   7.203   3.632   4.241  0.6317  0.2158 -0.2188
    1MOL   C652  652   7.304   3.734   4.240 -0.2552 -0.3178 -0.2978
    1MOL   C653  653   7.406   3.737   4.138 -0.3529 -0.2225 -0.8008
    1MOL   S654  654   7.531   3.863   4.141 -0.1532  0.0198  0.0277
    1MOL   O655  655   7.565   3.885   4.285 -0.0104 -0.5465  0.1817
    1MOL   O656  656   7.479   3.971   4.052 -0.1983 -0.1951 -0.0581
    1MOL   C657  657   7.676   3.800   4.053  0.2569  0.8876 -0.3564
    1MOL   C658  658   7.799   3.766   4.119  0.6056  0.5086 -0.1749
    1MOL   C659  659   7.908   3.700   4.057  0.2528 -0.8490  0.7310
    1MOL   C660  660   7.903   3.687   3.916 -0.0291 -0.3127 -0.0954
    1MOL   O661  661   8.005   3.632   3.846  0.4754 -0.2358 -0.5794
    1MOL   C662  662   8.032   3.665   3.719  0.4761 -0.8376 -0.4435
    1MOL   C663  663   8.048   3.807   3.698 -0.1072 -0.2693 -0.3324
    1MOL   C664  664   8.083   3.851   3.568 -0.1084 -0.7829  0.1270
    1MOL   C665  665   8.107   3.757   3.458 -0.5332 -0.5435 -0.0245
    1MOL   C666  666   8.161   3.820   3.323 -0.3487  0.0838  0.1054
    1MOL   C667  667   8.046   3.851   3.224  0.4920 -0.0849 -0.0650
    1MOL   C668  668   8.232   3.950   3.354 -0.4616 -0.4683  0.2527
    1MOL   C669  669   0.014   3.724   3.268  0.4296  0.8804  0.0525
    1MOL   C670  670   0.119   3.681   3.357  0.0515  0.1449  0.7790
    1MOL   C671  671   0.229   3.603   3.310  0.4376 -0.3727 -0.0033
    1MOL   C672  672   0.229   3.560   3.178  0.1391 -0.0737  0.2438
    1MOL   O673  673   0.335   3.498   3.130 -0.5451 -0.1341  0.1808
    1MOL   C674  674   0.127   3.598   3.091 -0.4053 -0.2697 -0.3370
    1MOL   C675  675   0.018   3.673   3.135  0.4128 -0.5803 -0.1212
    1MOL   C676  676   8.078   3.621   3.476  0.2134 -0.8195  0.1304
    1MOL   C677  677   8.036   3.575   3.606  0.4741 -0.3086  0.1434
    1MOL   C678  678   7.784   3.722   3.847 -0.5172  0.4878  0.1090
    1MOL   C679  679   7.671   3.775   3.915 -0.0724  0.0782  0.8282
    1MOL   C680  680   7.412   3.624   4.055 -0.1831  0.4084  0.5222
    1MOL   C681  681   7.312   3.524   4.060  0.0673  0.1486 -0.2826
    1MOL   H682  682   7.119   3.624   4.309  1.0242 -3.5342 -0.0938
    1MOL   H683  683   7.316   3.808   4.317 -1.4650  1.7776 -2.0507
    1MOL   H684  684   7.802   3.789   4.224  2.2433 -4.1312  0.9037
    1MOL   H685  685   7.996   3.671   4.113 -0.5023 -1.5237  1.5949
    1MOL   H686  686   8.040   3.882   3.774  0.4610  0.7055 -1.2201
    1MOL   H687  687   8.097   3.956   3.547 -1.0912 -0.2568  1.9659
    1MOL   H688  688   7.997   3.758   3.192 -0.5449  0.5558 -0.3744
    1MOL   H689  689   8.080   3.900   3.133  0.9012  1.9479  1.1539
    1MOL   H690  690   7.964   3.913   3.260  0.0305  0.6855 -2.3957
    1MOL   H691  691   0.057   3.941   3.430  0.3019  0.0768 -0.4590
    1MOL   H692  692   0.040   3.976   3.268 -1.4756  1.0630 -0.0372
    1MOL   H693  693   8.166   4.035   3.373  0.1702 -0.0724  0.6942
    1MOL   H694  694   0.119   3.703   3.462 -0.0435 -0.5515  0.9207
    1MOL   H695  695   0.314   3.570   3.368  1.3950  1.5878 -0.2671
    1MOL   H696  696   0.132   3.564   2.989  2.4097  1.0927 -0.6975
    1MOL   H697  697   8.189   3.704   3.072 -0.7828 -0.2990  1.5344
    1MOL   H698  698   8.090   3.543   3.402  0.9558 -0.1530 -0.4669
    1MOL   H699  699   8.024   3.469   3.627 -0.2092 -0.1610  0.5072
    1MOL   H700  700   7.783   3.706   3.740  3.4619 -1.9483  0.3274
    1MOL   H701  701   7.589   3.797   3.849  0.9635 -0.2769 -0.5954
    1MOL   H702  702   7.493   3.601   3.987  0.5719 -0.4032  1.6672
    1MOL   H703  703   7.318   3.446   3.985  0.2381 -0.4189  0.3221
    1MOL   C704  704   0.334   3.364   3.111 -0.1291  0.2280 -0.4607
    1MOL   C705  705   0.352   3.282   3.225  0.3017  0.3882  0.0317
    1MOL   C706  706   0.342   3.141   3.207 -0.4980  0.1650  0.4852
    1MOL   C707  707   0.319   3.094   3.080  0.3822  0.0233  0.0070
    1MOL   S708  708   0.335   2.919   3.057  0.1974  0.0706  0.1961
    1MOL   O709  709   0.422   2.866   3.158  0.3425  0.1146 -0.2552
    1MOL   O710  710   0.367   2.898   2.915  0.6650 -0.0056  0.0552
    1MOL   C711  711   0.170   2.845   3.079  0.5366 -0.1987  0.3264
    1MOL   C712  712   0.087   2.832   2.965  0.7516 -0.6077  0.4712
    1MOL   C713  713   8.217   2.765   2.984  0.8953  0.0465 -0.1065
    1MOL   C714  714   8.191   2.711   3.111  0.2073 -0.2692 -0.8033
    1MOL   O715  715   8.078   2.642   3.125 -0.2757  0.5634 -0.2138
    1MOL   C716  716   8.084   2.519   3.187  0.6830  0.1784  0.4985
    1MOL   C717  717   8.135   2.405   3.126  0.3246 -0.3173  0.0516
    1MOL   C718  718   8.143   2.282   3.190  0.3090  0.0938  0.3935
    1MOL   C719  719   8.103   2.275   3.329 -0.5464  0.4685  0.2669
    1MOL   C720  720   8.116   2.145   3.410 -0.4694  0.0694  0.3421
    1MOL   C721  721   7.987   2.064   3.393  0.3316 -0.2835  0.1098
    1MOL   C722  722   8.223   2.047   3.357 -0.7087 -0.0957 -0.3517
    1MOL   C723  723   8.155   2.171   3.561  0.0285  0.1949 -0.0650
    1MOL   C724  724   0.029   2.221   3.599 -0.4545 -0.4962 -0.7353
    1MOL   C725  725   0.063   2.253   3.731 -0.2382 -0.6925  0.0240
    1MOL   C726  726   8.224   2.234   3.837 -0.0180 -0.3620  0.2426
    1MOL   O727  727   0.008   2.247   3.966  0.0015  0.2387  0.3426
    1MOL   C728  728   8.097   2.187   3.793  0.1744  0.0495 -0.2245
    1MOL   C729  729   8.058   2.155   3.662 -0.3574 -0.1628  0.0199
    1MOL   C730  730   8.042   2.387   3.392  0.1748 -0.8077 -0.3661
    1MOL   C731  731   8.023   2.504   3.317 -0.0507 -0.4859  0.3906
    1MOL   C732  732   0.025   2.718   3.217  0.1489 -0.2034 -0.0324
    1MOL   C733  733   0.138   2.797   3.203  0.4769 -0.3134 -0.5259
    1MOL   C734  734   0.293   3.170   2.968  0.0630 -0.1328  0.6087
    1MOL   C735  735   0.303   3.306   2.984 -0.3218  0.3574 -0.3034
    1MOL   H736  736   0.360   3.328   3.322 -0.6005  1.1605 -0.2610
    1MOL   H737  737   0.375   3.076   3.287  0.5005  0.5161  0.3705
    1MOL   H738  738   0.120   2.878   2.873  0.5221 -1.9347 -0.2922
    1MOL   H739  739   8.142   2.763   2.906  0.7209 -2.0432  0.1068
    1MOL   H740  740   8.175   2.418   3.027 -0.0249  0.6194  0.0216
    1MOL   H741  741   8.200   2.204   3.141  1.9039  0.6088  1.3664
    1MOL   H742  742   7.960   2.044   3.290 -1.9706 -0.0394  0.6225
    1MOL   H743  743   7.904   2.123   3.433 -1.3710 -2.7025  0.2765
    1MOL   H744  744   7.989   1.971   3.450 -0.9444 -0.4768 -0.1525
    1MOL   H745  745   0.073   2.081   3.368 -1.1918  0.9519  1.1259
    1MOL   H746  746   8.224   1.965   3.429  2.4538  0.8554  0.7556
    1MOL   H747  747   8.201   2.015   3.255 -1.7525 -1.5484  0.3216
    1MOL   H748  748   0.108   2.222   3.526  2.4025  1.1791  2.2942
    1MOL   H749  749   0.161   2.283   3.766 -1.1356  2.9086 -0.4463
    1MOL   H750  750   8.019   2.187   3.867  1.8422 -0.1334  1.5720
    1MOL   H751  751   7.953   2.134   3.647  0.0840 -0.8845 -2.2461
    1MOL   H752  752   8.006   2.374   3.493 -0.0627 -2.0743 -0.6062
    1MOL   H753  753   7.972   2.589   3.359 -0.1862  0.3914 -1.5090
    1MOL   H754  754   0.010   2.670   3.312  0.6202  0.5943  0.4578
    1MOL   H755  755   0.217   2.800   3.275 -0.1349 -2.0355  0.2501
    1MOL   H756  756   0.286   3.140   2.865 -1.4787 -0.7597  0.8698
    1MOL   H757  757   0.275   3.372   2.904 -1.5482 -0.7316 -0.7850
    1MOL   C758  758   8.214   2.354   4.035 -0.1579  0.4015  1.0272
    1MOL   C759  759   8.090   2.345   4.103 -0.2874 -0.2806  0.1573
    1MOL   C760  760   8.039   2.464   4.160 -0.4261 -0.5550  0.2647
    1MOL   C761  761   8.099   2.593   4.145  0.0299 -0.4755  0.1365
    1MOL   S762  762   8.020   2.736   4.204  0.2842 -0.0419  0.3255
    1MOL   O763  763   7.984   2.698   4.341  1.2115 -0.1808 -0.2155
    1MOL   O764  764   7.920   2.776   4.104 -0.5472  0.9130 -0.2461
    1MOL   C765  765   8.149   2.867   4.220 -0.6595  0.1333  0.5351
    1MOL   C766  766   8.144   2.988   4.151  0.1227  0.2009  0.1719
    1MOL   C767  767   8.242   3.082   4.162  0.0848  0.1519  0.2501
    1MOL   C768  768   0.095   3.059   4.254 -0.3503 -0.0217 -0.0197
    1MOL   O769  769   0.207   3.137   4.252  0.1624  0.0304  0.7072
    1MOL   C770  770   0.209   3.240   4.339  0.8706  0.4096 -0.2275
    1MOL   C771  771   0.265   3.362   4.302  0.2788  0.4290  0.0673
    1MOL   C772  772   0.256   3.473   4.395 -0.2872 -0.6033 -0.3974
    1MOL   C773  773   0.202   3.466   4.527  0.5539  0.1681 -0.2388
    1MOL   C774  774   0.192   3.582   4.627  0.3880  0.9981 -0.8114
    1MOL   C775  775   0.251   3.536   4.769 -0.6428 -0.1582  0.2558
    1MOL   C776  776   0.282   3.699   4.591 -0.2239 -0.0075  0.4233
    1MOL   C777  777   0.053   3.641   4.636  0.1751  0.2408  0.5410
    1MOL   C778  778   8.197   3.595   4.557  0.1256 -0.1065  0.5106
    1MOL   C779  779   8.069   3.653   4.554  0.5907 -0.8011 -0.0824
    1MOL   C780  780   8.038   3.760   4.642  0.2869  0.5132  0.5674
    1MOL   O781  781   7.917   3.825   4.644  0.1031 -0.2172  0.3331
    1MOL   C782  782   8.141   3.807   4.727  0.3920  0.2843 -0.1356
    1MOL   C783  783   0.019   3.746   4.727  0.1521  0.4221  0.2852
    1MOL   C784  784   0.155   3.337   4.562  0.3063  0.5398  0.3434
    1MOL   C785  785   0.167   3.230   4.475  0.6671 -0.3669  0.9026
    1MOL   C786  786   0.098   2.940   4.331 -0.0512 -0.0849  0.2028
    1MOL   C787  787   8.251   2.843   4.312  0.3086 -0.2629 -0.2889
    1MOL   C788  788   8.227   2.594   4.091 -0.3907  0.3057  0.9137
    1MOL   C789  789   0.031   2.479   4.031 -0.0927  0.2735  0.3154
    1MOL   H790  790   8.022   2.263   4.086 -0.4080  0.5920 -4.4199
    1MOL   H791  791   7.947   2.463   4.215 -0.7729  0.2501 -0.2952
    1MOL   H792  792   8.066   3.001   4.078 -2.5961 -2.4868  2.4981
    1MOL   H793  793   8.246   3.162   4.090  0.5540  0.3903  0.5352
    1MOL   H794  794   0.317   3.378   4.209 -1.0529 -0.4305 -0.8333
    1MOL   H795  795   0.293   3.566   4.355 -1.1192  0.2739  0.8444
    1MOL   H796  796   0.246   3.619   4.839  3.5746 -0.4384  0.9879
    1MOL   H797  797   0.354   3.501   4.761 -0.9025 -0.7317 -0.7481
    1MOL   H798  798   0.195   3.450   4.807 -1.9715 -1.1297 -3.6612
    1MOL   H799  799   0.295   3.768   4.674 -1.9866 -1.0024  1.5423
    1MOL   H800  800   0.384   3.663   4.575  0.4780  2.2126 -0.2709
    1MOL   H801  801   0.241   3.755   4.507  0.4126 -2.0257 -1.2799
    1MOL   H802  802   8.214   3.507   4.497  0.6269 -1.3065  2.3753
    1MOL   H803  803   7.993   3.616   4.487 -0.9942  1.2606  0.5208
    1MOL   H804  804   8.128   3.886   4.798 -0.7816  2.2769 -2.4821
    1MOL   H805  805   0.096   3.784   4.792 -1.0622  0.7116  1.5712
    1MOL   H806  806   0.101   3.313   4.653 -0.2677  0.2040 -0.0901
    1MOL   H807  807   0.131   3.136   4.513  0.5727 -0.1676  1.3159
    1MOL   H808  808   0.182   2.922   4.396  1.4419  1.4417 -1.2480
    1MOL   H809  809   8.242   2.759   4.379  0.3215  0.3676  0.5081
    1MOL   H810  810   0.016   2.691   4.068  0.4955  0.4256  2.9361
    1MOL   H811  811   0.128   2.505   3.993 -0.3309  0.7149  0.0000
    1MOL   C812  812   7.805   3.742   4.628  0.0416 -0.2294  0.5759
    1MOL   C813  813   7.720   3.749   4.520  0.1190  0.3002 -0.3399
    1MOL   C814  814   7.606   3.668   4.503  0.3949 -0.0241  0.5387
    1MOL   C815  815   7.568   3.588   4.612 -0.4143 -0.2509 -0.0269
    1MOL   S816  816   7.426   3.487   4.586 -0.3925  0.3027  0.0310
    1MOL   O817  817   7.439   3.370   4.670  0.4667 -0.4086 -0.3585
    1MOL   O818  818   7.418   3.468   4.441 -0.3977  0.1085 -0.0640
    1MOL   C819  819   7.290   3.584   4.639  0.4602  0.1608  0.4613
    1MOL   C820  820   7.181   3.532   4.713  0.4006 -0.0351  0.2392
    1MOL   C821  821   7.066   3.610   4.731  0.3926  0.1906  0.3284
    1MOL   C822  822   7.059   3.745   4.698  0.0852 -0.3402 -0.6051
    1MOL   O823  823   6.944   3.817   4.734 -0.1157 -0.1482  0.1709
    1MOL   C824  824   6.844   3.842   4.640 -0.5032  0.0630  0.2832
    1MOL   C825  825   6.819   3.746   4.545  0.1635  0.0723  1.0872
    1MOL   C826  826   6.706   3.754   4.464  0.2268  0.6887 -0.3629
    1MOL   C827  827   6.618   3.863   4.474  0.4605  0.1640 -0.7596
    1MOL   C828  828   6.493   3.876   4.389  0.0101  0.3139  0.3623
    1MOL   C829  829   6.455   3.739   4.324  0.8331  0.0692  0.0165
    1MOL   C830  830   6.374   3.923   4.478 -0.2411 -0.0695 -0.0867
    1MOL   C831  831   6.517   3.967   4.264  0.8416 -0.2757 -0.6196
    1MOL   C832  832   6.403   4.022   4.202 -0.0827  0.5753  0.2779
    1MOL   C833  833   6.413   4.096   4.084 -0.1508 -0.5127  0.3562
    1MOL   C834  834   6.538   4.115   4.025  0.6512  0.8447 -0.4735
    1MOL   O835  835   6.560   4.167   3.903  0.1909 -0.2563 -0.0065
    1MOL   C836  836   6.654   4.058   4.084  0.1025 -0.1867 -0.0706
    1MOL   C837  837   6.644   3.991   4.205  0.1223  0.4902 -0.1801
    1MOL   C838  838   6.644   3.965   4.569  0.0496  0.8194  0.6084
    1MOL   C839  839   6.757   3.948   4.650 -0.4631 -0.2938 -0.0223
    1MOL   C840  840   7.168   3.801   4.632 -0.4623  0.1907 -0.3261
    1MOL   C841  841   7.281   3.719   4.594 -0.2884  0.3902  1.2456
    1MOL   C842  842   7.651   3.575   4.727  0.0567 -0.1798 -0.0445
    1MOL   C843  843   7.770   3.649   4.734 -0.4615  0.1928 -0.2793
    1MOL   H844  844   7.753   3.826   4.451 -1.4008 -0.2864 -1.7470
    1MOL   H845  845   7.537   3.662   4.420  2.0828 -1.7907 -0.8023
    1MOL   H846  846   7.186   3.429   4.748  0.8366  0.7650  2.6355
    1MOL   H847  847   6.981   3.566   4.781  1.1939 -0.3946  1.1924
    1MOL   H848  848   6.890   3.665   4.543  0.5695  0.4194  1.3762
    1MOL   H849  849   6.684   3.677   4.391  1.2023  0.3995 -0.3622
    1MOL   H850  850   6.359   3.742   4.272  0.6346  2.1664  0.4583
    1MOL   H851  851   6.447   3.663   4.401  2.6258  0.5050  0.6623
    1MOL   H852  852   6.523   3.706   4.246  0.9319  0.9457 -0.2750
    1MOL   H853  853   6.282   3.901   4.424  0.3301 -2.4917 -0.1260
    1MOL   H854  854   6.376   3.874   4.576  0.0321  1.7364  0.8349
    1MOL   H855  855   6.368   4.031   4.487 -1.4520  0.0864 -2.3692
    1MOL   H856  856   6.303   4.000   4.237 -0.4280  2.8338  0.7715
    1MOL   H857  857   6.327   4.137   4.034 -1.7300 -0.0654  3.3327
    1MOL   H858  858   6.746   4.052   4.027  0.7606 -0.1093  0.9637
    1MOL   H859  859   6.732   3.946   4.247 -1.4386 -1.5288  1.0523
    1MOL   H860  860   6.580   4.049   4.589  1.0670  1.2583  2.1210
    1MOL   H861  861   6.772   4.024   4.725 -1.8667 -0.2545  0.2291
    1MOL   H862  862   7.178   3.903   4.599  3.0385 -0.1129 -0.4048
    1MOL   H863  863   7.357   3.769   4.536  1.1047 -2.2472  0.6976
    1MOL   H864  864   7.614   3.498   4.793 -2.6157  1.0495 -0.0330
    1MOL   H865  865   7.845   3.650   4.812  0.0005  0.5171 -0.7229
    1MOL   C866  866   6.582   4.302   3.897 -0.4024  0.3260  0.0949
    1MOL   C867  867   6.509   4.377   3.988 -0.1448 -0.6650 -0.3639
    1MOL   C868  868   6.528   4.517   3.982 -0.6966 -0.2987 -0.4450
    1MOL   C869  869   6.617   4.582   3.889  0.4336  0.2627 -0.6316
    1MOL   S870  870   6.636   4.761   3.886 -0.5274  0.1654  0.4630
    1MOL   O871  871   6.695   4.797   4.016 -0.2735 -0.3497  0.1019
    1MOL   O872  872   6.501   4.815   3.871 -0.0594  0.4116  0.6500
    1MOL   C873  873   6.748   4.795   3.750  0.0984 -0.3989 -0.4657
    1MOL   C874  874   6.883   4.832   3.768  0.1800  0.2889 -0.2658
    1MOL   C875  875   6.968   4.831   3.659 -0.4016  0.5367 -0.4517
    1MOL   C876  876   6.915   4.818   3.527 -0.9023 -0.0188 -0.4554
    1MOL   O877  877   7.001   4.828   3.422 -0.7096 -0.6736  0.2376
    1MOL   C878  878   7.079   4.721   3.391  0.2995 -0.6506 -0.3902
    1MOL   C879  879   7.204   4.747   3.324 -0.0120 -0.3141  0.1255
    1MOL   C880  880   7.281   4.641   3.283  0.3761 -0.5930  0.5568
    1MOL   C881  881   7.240   4.507   3.301  0.5582 -0.2964  0.2914
    1MOL   C882  882   7.329   4.389   3.245  0.8574 -0.2087 -0.2042
    1MOL   C883  883   7.341   4.267   3.348  0.0058 -0.0989 -0.2960
    1MOL   C884  884   7.266   4.328   3.118 -0.1449  0.1824  0.5501
    1MOL   C885  885   7.472   4.429   3.216 -0.1526  0.6959 -0.0517
    1MOL   C886  886   7.522   4.453   3.081  0.1201 -0.1858 -0.0402
    1MOL   C887  887   7.650   4.487   3.057  0.7483  0.0221  0.4540
    1MOL   C888  888   7.740   4.511   3.167 -0.4765  0.6464 -0.4892
    1MOL   O889  889   7.868   4.542   3.142  0.3563 -0.0710 -0.0213
    1MOL   C890  890   7.696   4.492   3.299 -0.5052 -0.8000 -0.1327
    1MOL   C891  891   7.564   4.448   3.320 -0.6942 -0.5549  0.8819
    1MOL   C892  892   7.116   4.480   3.360  0.0714  0.9731 -0.7970
    1MOL   C893  893   7.044   4.590   3.411  0.0748  0.6368  0.7529
    1MOL   C894  894   6.775   4.799   3.508 -0.3649 -0.8862 -0.2192
    1MOL   C895  895   6.693   4.784   3.620 -0.0787 -0.1897  0.1148
    1MOL   C896  896   6.690   4.494   3.803 -0.3511  0.3078  0.2993
    1MOL   C897  897   6.670   4.357   3.802 -0.6954  0.0736  0.2156
    1MOL   H898  898   6.447   4.337   4.067 -0.7347  3.8088  1.6027
    1MOL   H899  899   6.466   4.581   4.043 -0.0404  2.9039 -3.0356
    1MOL   H900  900   6.922   4.841   3.869 -2.1314 -0.5889  0.7397
    1MOL   H901  901   7.071   4.854   3.681 -0.2936  0.5609 -0.9781
    1MOL   H902  902   7.229   4.849   3.299 -0.5478 -1.0162 -3.5124
    1MOL   H903  903   7.374   4.662   3.232  0.1771 -0.1219  0.3881
    1MOL   H904  904   7.405   4.184   3.319  2.2458  0.9021  1.5858
    1MOL   H905  905   7.246   4.214   3.357  0.3150 -0.7213 -0.6541
    1MOL   H906  906   7.369   4.287   3.452  0.3647 -0.1092 -0.3912
    1MOL   H907  907   7.246   4.402   3.041  0.4378 -1.7921 -1.5308
    1MOL   H908  908   7.322   4.247   3.072 -1.3954 -0.4019  0.0254
    1MOL   H909  909   7.164   4.291   3.132 -0.2799 -0.5774 -2.3066
    1MOL   H910  910   7.447   4.432   3.006 -0.1019  0.9418 -0.1495
    1MOL   H911  911   7.687   4.492   2.956 -0.3231 -1.1491 -0.0087
    1MOL   H912  912   7.755   4.513   3.387 -0.2508  0.6330 -0.6355
    1MOL   H913  913   7.535   4.419   3.419 -2.9634  1.4107  0.8480
    1MOL   H914  914   7.089   4.378   3.378 -1.2115  1.5169  0.4443
    1MOL   H915  915   6.950   4.577   3.462 -0.1480  1.6045  0.5930
    1MOL   H916  916   6.743   4.804   3.405 -0.9132 -1.0714 -0.0552
    1MOL   H917  917   6.587   4.767   3.606  0.2581 -1.8597 -0.4436
    1MOL   H918  918   6.771   4.537   3.746  0.1884  1.1833  1.6928
    1MOL   H919  919   6.717   4.281   3.742  1.3522  0.8443  0.8061
    1MOL   C920  920   7.960   4.451   3.103  0.3573 -0.1732  0.1734
    1MOL   C921  921   8.030   4.481   2.992  1.0383  0.5052  0.3112
    1MOL   C922  922   8.141   4.397   2.956  0.8271  0.0878  0.4649
    1MOL   C923  923   8.170   4.283   3.036  0.9231 -0.2368  0.2244
    1MOL   S924  924   0.055   4.180   2.984 -0.4572  0.0870 -0.1548
    1MOL   O925  925   0.073   4.187   2.838  0.4806 -0.4436  0.3431
    1MOL   O926  926   0.040   4.046   3.041  0.0794  0.8117 -0.6774
    1MOL   C927  927   0.206   4.251   3.057 -0.0070 -0.6040 -0.9832
    1MOL   C928  928   0.199   4.342   3.165 -0.0380  0.2443  0.6060
    1MOL   C929  929   0.315   4.391   3.227 -0.1707 -0.7285 -0.4916
    1MOL   C930  930   0.439   4.352   3.177 -0.0569 -0.1808  0.0805
    1MOL   O931  931   0.551   4.397   3.241  0.3463 -0.3309  0.2830
    1MOL   C932  932   0.645   4.316   3.298 -0.3134 -0.0612 -0.8618
    1MOL   C933  933   0.777   4.353   3.270  0.5137  0.0664 -0.1189
    1MOL   C934  934   0.883   4.294   3.343  1.2330  0.4154 -0.6108
    1MOL   C935  935   0.856   4.202   3.444  0.6700 -0.0618  0.5704
    1MOL   C936  936   0.969   4.148   3.538 -0.1073 -0.4265 -0.1218
    1MOL   C937  937   1.116   4.195   3.491 -0.3184 -0.2042 -0.5759
    1MOL   C938  938   0.965   4.224   3.677 -0.8875 -0.6196  1.2041
    1MOL   C939  939   0.966   3.993   3.544  0.2360  0.5480 -1.1122
    1MOL   C940  940   1.001   3.908   3.430  0.4144 -0.1900 -0.2850
    1MOL   C941  941   1.018   3.773   3.434  0.0234  0.2864 -0.6588
    1MOL   C942  942   0.988   3.710   3.556 -0.4903  0.1430  0.4723
    1MOL   O943  943   1.004   3.575   3.564  0.5695  0.2958  0.7962
    1MOL   C944  944   0.951   3.786   3.667  0.1704  0.0994  0.5129
    1MOL   C945  945   0.938   3.924   3.664  0.1895 -0.1487  0.0759
    1MOL   C946  946   0.723   4.164   3.471  0.4092 -0.2700 -0.2392
    1MOL   C947  947   0.622   4.224   3.401 -0.5940 -0.2467  0.0674
    1MOL   C948  948   0.448   4.268   3.065 -0.4750 -0.1925 -0.4167
    1MOL   C949  949   0.333   4.218   3.004  0.2521  0.2555  0.1186
    1MOL   C950  950   8.100   4.252   3.155  0.9057  0.0414  0.0562
    1MOL   C951  951   7.993   4.338   3.181 -0.4036 -0.3066  0.5103
    1MOL   H952  952   8.017   4.571   2.933  0.0484 -1.7803 -3.1156
    1MOL   H953  953   8.203   4.408   2.868 -0.1225 -3.2191 -0.6833
    1MOL   H954  954   0.114   4.375   3.223 -0.7954 -1.5545  0.5337
    1MOL   H955  955   0.329   4.442   3.321 -1.1584 -1.0729 -0.1570
    1MOL   H956  956   0.796   4.434   3.202  0.9766 -0.0651 -0.1496
    1MOL   H957  957   0.983   4.325   3.316  0.7549  1.1024 -1.6181
    1MOL   H958  958   1.135   4.164   3.388  0.8789  1.2626 -0.8243
    1MOL   H959  959   1.185   4.136   3.551  0.0868  1.5735  0.7411
    1MOL   H960  960   1.132   4.303   3.501 -1.4187  0.0069 -1.0525
    1MOL   H961  961   1.049   4.198   3.741 -0.6843 -0.6318  0.9379
    1MOL   H962  962   0.980   4.330   3.659 -0.3668 -1.0569 -1.1374
    1MOL   H963  963   0.872   4.212   3.733 -0.5876  0.0308  1.8396
    1MOL   H964  964   1.009   3.953   3.332 -4.6335 -0.0320 -0.7556
    1MOL   H965  965   1.042   3.704   3.354 -1.0978 -0.9217  0.0240
    1MOL   H966  966   0.933   3.730   3.758  2.0778  0.0776  0.9109
    1MOL   H967  967   0.920   3.984   3.752 -3.1181 -1.8297  0.6017
    1MOL   H968  968   0.699   4.095   3.550  2.0949 -0.4278  0.1401
    1MOL   H969  969   0.523   4.190   3.426 -0.7860  0.4183  0.2338
    1MOL   H970  970   0.544   4.230   3.034 -0.5553 -0.6659 -0.0946
    1MOL   H971  971   0.341   4.153   2.919  1.7147  0.9590 -0.2910
    1MOL   H972  972   8.123   4.174   3.226 -0.5207 -0.7007 -0.2788
    1MOL   H973  973   7.938   4.324   3.273  1.7651 -1.6528  1.6424
    1MOL   C974  974   1.096   3.517   3.642 -0.2547  0.2880 -0.2790
    1MOL   C975  975   1.219   3.572   3.667 -1.0535 -0.0619 -0.3992
    1MOL   C976  976   1.313   3.501   3.734  0.3402 -0.6778 -0.6289
    1MOL   C977  977   1.273   3.381   3.800 -0.5955  0.2854  0.0439
    1MOL   S978  978   1.392   3.292   3.901  0.1384  0.1828 -0.0450
    1MOL   O979  979   1.522   3.272   3.828 -0.5810  0.0739 -0.4653
    1MOL   O980  980   1.324   3.175   3.964 -0.0662  0.4582 -0.3508
    1MOL   C981  981   1.427   3.398   4.037  0.1842  0.6953  0.0555
    1MOL   C982  982   1.529   3.489   4.039 -0.0440  0.0425  0.5423
    1MOL   C983  983   1.559   3.555   4.164  1.2608 -0.3254 -0.2268
    1MOL   C984  984   1.476   3.540   4.283  0.0751 -1.0525  0.1011
    1MOL   O985  985   1.485   3.610   4.403  0.4878 -0.1821 -0.1351
    1MOL   C986  986   1.588   3.707   4.423 -0.4614 -0.3836 -0.2357
    1MOL   C987  987   1.725   3.678   4.422  0.2931  0.2163  0.9363
    1MOL   C988  988   1.819   3.777   4.450 -0.7027  0.3648  0.9281
    1MOL   C989  989   1.785   3.917   4.473  0.4039  0.1922  0.1915
    1MOL   C990  990   1.883   4.026   4.506 -0.1159  0.4565 -0.4328
    1MOL   C991  991   1.862   4.051   4.658  0.2742 -0.2533 -0.3238
    1MOL   C992  992   2.022   3.972   4.481 -0.5549 -0.2327 -0.0874
    1MOL   C993  993   1.865   4.150   4.413 -0.7163 -0.2223  0.6503
    1MOL   C994  994   1.870   4.131   4.269  0.3811  0.1361 -0.4999
    1MOL   C995  995   1.829   4.233   4.183  1.0045 -0.0053  0.2150
    1MOL   C996  996   1.810   4.361   4.234 -0.2030 -0.3006  0.0846
    1MOL   O997  997   1.772   4.464   4.151 -0.0412 -0.0784  0.0643
    1MOL   C998  998   1.818   4.383   4.373  0.8945 -0.1999 -0.0190
    1MOL   C999  999   1.839   4.280   4.467  0.7055  0.3921  0.4378
    1MOL     C1 1000   1.646   3.946   4.464  0.4766 -0.3674 -0.4096
    1MOL     C2 1001   1.552   3.843   4.441  0.1057  0.2910 -0.6994
    1MOL     C3 1002   1.369   3.451   4.270 -0.6851  0.5691 -0.2757
    1MOL     C4 1003   1.345   3.386   4.150  0.2385  0.9037  0.1171
    1MOL     C5 1004   1.142   3.336   3.798 -1.0693  0.4950  0.2836
    1MOL     C6 1005   1.048   3.401   3.717 -0.2230 -0.3105 -0.3256
    1MOL     H7 1006   1.251   3.668   3.630 -0.4548 -0.7683 -1.7325
    1MOL     H8 1007   1.407   3.551   3.751  0.4363 -0.9810 -0.2520
    1MOL     H9 1008   1.595   3.492   3.954  0.1740  0.4088  0.7209
    1MOL    H10 1009   1.642   3.623   4.172  1.8565 -0.8980 -1.4545
    1MOL    H11 1010   1.752   3.575   4.401 -3.1382 -0.4462 -0.6501
    1MOL    H12 1011   1.921   3.745   4.469 -0.4834 -0.2416 -1.1222
    1MOL    H13 1012   1.937   4.119   4.698 -0.2497 -0.5344  1.1631
    1MOL    H14 1013   1.861   3.965   4.725 -0.9113 -0.9619 -1.2414
    1MOL    H15 1014   1.765   4.097   4.676  0.2534  0.2335 -1.6276
    1MOL    H16 1015   2.036   3.934   4.380 -0.3650 -1.2865  0.3240
    1MOL    H17 1016   2.088   4.058   4.491 -1.2180  0.0658  1.7938
    1MOL    H18 1017   2.042   3.888   4.548  1.2211 -0.7814 -1.2502
    1MOL    H19 1018   1.889   4.030   4.235 -1.0445 -0.7574  1.2477
    1MOL    H20 1019   1.831   4.216   4.077  3.8876  0.3184  0.1704
    1MOL    H21 1020   1.810   4.487   4.400 -2.1413 -0.2130 -0.7277
    1MOL    H22 1021   1.830   4.293   4.573  0.0832  2.9047  0.1110
    1MOL    H23 1022   1.617   4.048   4.485  0.5276 -0.2421 -0.9446
    1MOL    H24 1023   1.449   3.876   4.439 -0.0811 -0.2344  0.1804
    1MOL    H25 1024   1.302   3.438   4.353  0.3459 -0.7219  0.3580
    1MOL    H26 1025   1.270   3.308   4.146  2.4392 -1.2099 -1.5878
    1MOL    H27 1026   1.108   3.245   3.846  0.5159 -0.7642 -0.8801
    1MOL    H28 1027   0.948   3.362   3.706 -1.5786  2.8201  0.0571
    1MOL    C29 1028   1.660   4.541   4.174 -0.1557 -0.4800  0.4566
    1MOL    C30 1029   1.534   4.505   4.121 -0.0101  0.1766 -0.7323
    1MOL    C31 1030   1.423   4.580   4.142  1.0360  0.1682 -0.0154
    1MOL    C32 1031   1.433   4.707   4.203 -0.3431  0.1978 -0.4475
    1MOL    S33 1032   1.293   4.805   4.217  0.0240  0.2973 -0.4392
    1MOL    O34 1033   1.282   4.849   4.359  0.2926  0.8669  0.1994
    1MOL    O35 1034   1.182   4.732   4.153 -0.1232  0.0826 -0.4343
    1MOL    C36 1035   1.324   4.946   4.105 -0.6458  0.3000 -0.0896
    1MOL    C37 1036   1.339   5.071   4.156 -0.1063 -0.0301 -0.2021
    1MOL    C38 1037   1.340   5.183   4.070 -0.4947 -0.2751 -0.3898
    1MOL    C39 1038   1.337   5.160   3.928  0.6064 -0.0923  0.3651
    1MOL    O40 1039   1.316   5.266   3.847  0.0371 -0.0153  0.9579
    1MOL    C41 1040   1.395   5.377   3.856  0.4500 -0.4465 -0.5773
    1MOL    C42 1041   1.344   5.502   3.886 -0.5111 -0.0335 -0.1095
    1MOL    C43 1042   1.421   5.620   3.878  0.6911  0.5949 -0.4613
    1MOL    C44 1043   1.555   5.612   3.833  0.3827 -0.2397 -0.2221
    1MOL    C45 1044   1.643   5.738   3.810 -0.6636 -0.0985 -0.1130
    1MOL    C46 1045   1.564   5.869   3.839 -0.8120  0.1645  0.3497
    1MOL    C47 1046   1.759   5.733   3.914 -0.3041 -0.3362 -0.8871
    1MOL    C48 1047   1.701   5.741   3.666  0.0929 -0.1721 -0.5486
    1MOL    C49 1048   1.642   5.665   3.561 -0.4449  0.4261 -0.1145
    1MOL    C50 1049   1.704   5.659   3.437  0.0340  0.0372  0.4132
    1MOL    C51 1050   1.806   5.752   3.409 -0.3630  0.7593  0.5117
    1MOL    O52 1051   1.864   5.760   3.282  0.1334  0.2407  0.3135
    1MOL    C53 1052   1.863   5.836   3.510 -0.4072  0.2921 -0.4032
    1MOL    C54 1053   1.811   5.833   3.644  0.0184  0.3896 -1.1003
    1MOL    C55 1054   1.610   5.483   3.806  0.4502  0.3109 -0.2420
    1MOL    C56 1055   1.531   5.370   3.823  0.2829 -0.0700  0.8291
    1MOL    C57 1056   1.348   5.033   3.877 -0.1892  0.0739 -0.0487
    1MOL    C58 1057   1.341   4.924   3.967  0.0791  0.1571 -0.0927
    1MOL    C59 1058   1.559   4.747   4.251 -0.0539 -0.3185 -0.4830
    1MOL    C60 1059   1.669   4.660   4.255 -0.2306  0.0504 -0.2408
    1MOL    H61 1060   1.529   4.410   4.070  2.4397  0.7897 -2.2190
    1MOL    H62 1061   1.328   4.549   4.101 -0.5059  0.4780  3.2136
    1MOL    H63 1062   1.322   5.093   4.260 -1.0039  1.2192 -0.6008
    1MOL    H64 1063   1.336   5.281   4.114  2.3432 -0.4580  0.3801
    1MOL    H65 1064   1.240   5.508   3.914 -0.4620  1.8642 -0.2584
    1MOL    H66 1065   1.380   5.717   3.900 -1.1517  0.2142 -2.0845
    1MOL    H67 1066   1.531   5.869   3.943 -0.7074 -0.3088  0.3826
    1MOL    H68 1067   1.469   5.873   3.784  0.3191 -0.3504 -1.6825
    1MOL    H69 1068   1.622   5.957   3.812  0.7622 -1.3229 -1.3022
    1MOL    H70 1069   1.710   5.723   4.011 -1.5366 -1.7166 -1.6250
    1MOL    H71 1070   1.825   5.649   3.896  1.3425  0.9889 -1.1357
    1MOL    H72 1071   1.825   5.818   3.901  1.3888 -1.5467 -0.3284
    1MOL    H73 1072   1.555   5.602   3.566 -0.4372  0.3175 -1.1035
    1MOL    H74 1073   1.676   5.581   3.367 -2.2886  1.8943 -0.8408
    1MOL    H75 1074   1.951   5.895   3.489 -1.1433  0.7455 -2.2259
    1MOL    H76 1075   1.864   5.897   3.712 -2.1133  1.5887 -0.5001
    1MOL    H77 1076   1.711   5.466   3.772  0.1555 -1.4718 -0.2591
    1MOL    H78 1077   1.575   5.275   3.798  1.5753  1.1344 -1.6993
    1MOL    H79 1078   1.345   5.009   3.772 -1.5064 -2.0875  0.4588
    1MOL    H80 1079   1.337   4.820   3.940 -0.7552  0.0909  0.2873
    1MOL    H81 1080   1.573   4.847   4.289 -0.1736 -1.2963  2.2397
    1MOL    H82 1081   1.766   4.697   4.285 -1.5273  1.4852  2.3260
    1MOL    H83 1082   1.854   5.678   3.237  1.3096 -0.0915  0.6449
    2MOL     C1 1083   6.380   4.597   2.923  0.7264  0.0033 -0.2986
    2MOL     C2 1084   6.456   4.711   2.929 -0.4636 -0.1625 -0.6442
    2MOL     C3 1085   6.411   4.840   2.925  0.4082 -0.2659  0.5263
    2MOL     C4 1086   6.273   4.858   2.903 -0.2061 -0.7721 -0.4029
    2MOL     S5 1087   6.207   5.027   2.884 -0.0638 -0.0877 -0.0353
    2MOL     O6 1088   6.299   5.111   2.963 -0.1794 -0.3412  0.2259
    2MOL     O7 1089   6.064   5.021   2.913 -0.0546  0.2688 -0.2169
    2MOL     C8 1090   6.233   5.074   2.713 -0.3501  1.1873 -0.5619
    2MOL     C9 1091   6.134   5.138   2.631 -0.0553  0.1622  0.3553
    2MOL    C10 1092   6.172   5.179   2.499 -0.3893 -0.0904  0.0427
    2MOL    C11 1093   6.301   5.149   2.444  0.1534 -0.0382  0.4447
    2MOL    O12 1094   6.332   5.204   2.320 -0.0490  0.4711 -0.4576
    2MOL    C13 1095   6.247   5.167   2.217 -0.7154  0.3281 -0.2571
    2MOL    C14 1096   6.164   5.269   2.165  0.1793 -0.5061 -0.5178
    2MOL    C15 1097   6.067   5.242   2.067 -0.1414 -0.0440  0.1397
    2MOL    C16 1098   6.050   5.106   2.022  0.2842 -1.4329  0.5672
    2MOL    C17 1099   5.945   5.066   1.905  0.0570  0.7335  0.5951
    2MOL    C18 1100   5.844   4.957   1.967 -0.4373 -0.4444  0.4830
    2MOL    C19 1101   5.865   5.185   1.851 -0.3697 -0.0178  0.5280
    2MOL    C20 1102   6.017   5.006   1.783  1.3858 -0.0054  0.5301
    2MOL    C21 1103   5.972   4.893   1.711 -0.2143 -0.4401  0.4425
    2MOL    C22 1104   6.048   4.839   1.603  0.2314 -0.3873  0.7317
    2MOL    C23 1105   6.159   4.906   1.557 -0.2570  0.3102 -0.4786
    2MOL    O24 1106   6.235   4.864   1.452  0.2685  0.0504  0.1094
    2MOL    C25 1107   6.212   5.011   1.637 -0.0518 -0.4824 -0.2510
    2MOL    C26 1108   6.146   5.060   1.749 -0.2514  0.0353  0.2250
    2MOL    C27 1109   6.124   5.006   2.082  0.3196 -0.3171 -0.8693
    2MOL    C28 1110   6.216   5.032   2.185 -0.4491 -0.0187  0.8461
    2MOL    C29 1111   6.398   5.085   2.522  0.1690  0.1624  0.1337
    2MOL    C30 1112   6.357   5.037   2.652 -0.3672 -0.4763  0.0090
    2MOL    C31 1113   6.188   4.750   2.910 -0.9262  0.0476  0.6609
    2MOL    C32 1114   6.243   4.618   2.919  0.4039  0.1492  0.2335
    2MOL    H33 1115   6.560   4.689   2.947 -0.9811 -1.1734  1.2210
    2MOL    H34 1116   6.483   4.921   2.925  0.3085 -0.1516 -1.8526
    2MOL    H35 1117   6.038   5.166   2.671 -0.6738 -2.9386  1.1711
    2MOL    H36 1118   6.110   5.235   2.431  1.8060 -2.3365 -4.0484
    2MOL    H37 1119   6.164   5.372   2.198 -1.5768 -0.4632 -0.5794
    2MOL    H38 1120   6.002   5.321   2.033  1.4593  1.1927 -0.0912
    2MOL    H39 1121   5.787   5.010   2.044 -1.7031 -1.2224  0.1139
    2MOL    H40 1122   5.896   4.870   2.007  1.2910  0.1501 -0.4211
    2MOL    H41 1123   5.763   4.923   1.902  0.1589 -0.8934 -0.0278
    2MOL    H42 1124   5.922   5.274   1.825 -1.5321  0.8582  0.9498
    2MOL    H43 1125   5.800   5.153   1.769  1.0516 -1.6646  0.0091
    2MOL    H44 1126   5.786   5.226   1.913  0.3248  2.7129 -0.3242
    2MOL    H45 1127   5.891   4.827   1.740  0.1137 -1.2127 -0.3902
    2MOL    H46 1128   6.008   4.754   1.550  0.5859  0.2154 -0.5054
    2MOL    H47 1129   6.307   5.056   1.614 -1.0535  1.8582  0.0954
    2MOL    H48 1130   6.189   5.135   1.814 -0.6982  0.5582 -0.0784
    2MOL    H49 1131   6.109   4.904   2.050 -0.3445 -0.6283  0.3631
    2MOL    H50 1132   6.270   4.962   2.248 -0.2760 -1.9667 -1.4192
    2MOL    H51 1133   6.493   5.051   2.484  0.9292  1.5198  0.7993
    2MOL    H52 1134   6.430   4.981   2.709  0.2530 -0.2301 -0.5360
    2MOL    H53 1135   6.081   4.766   2.909 -1.0330 -0.6546  0.5043
    2MOL    H54 1136   6.177   4.533   2.913 -1.6158  1.7164 -0.6761
    2MOL    H55 1137   6.413   4.495   2.929  0.8116  0.1085  1.0745
    2MOL    C56 1138   6.343   4.777   1.477  1.0401 -0.3269  0.1036
    2MOL    C57 1139   6.435   4.753   1.374  0.4854  0.0216  0.2877
    2MOL    C58 1140   6.536   4.660   1.390  0.4657 -0.4323  0.6209
    2MOL    C59 1141   6.550   4.583   1.508  0.2325 -0.6724 -1.1092
    2MOL    S60 1142   6.672   4.462   1.530 -0.3215 -0.0495  0.0525
    2MOL    O61 1143   6.687   4.400   1.397  0.5696  0.0718 -0.0448
    2MOL    O62 1144   6.637   4.383   1.651  0.0454  0.1142  0.6985
    2MOL    C63 1145   6.831   4.544   1.557  0.5671 -0.5844  1.4779
    2MOL    C64 1146   6.908   4.599   1.453  0.2482  0.2659  0.3273
    2MOL    C65 1147   7.013   4.687   1.479  0.3368 -0.0941  0.7230
    2MOL    C66 1148   7.054   4.710   1.612  0.6474 -0.5505 -0.1061
    2MOL    O67 1149   7.163   4.786   1.644  0.2408 -0.0011 -0.4240
    2MOL    C68 1150   7.166   4.909   1.586 -0.7579 -0.0544 -0.1338
    2MOL    C69 1151   7.265   4.940   1.493 -0.5957  0.2479  0.0921
    2MOL    C70 1152   7.281   5.072   1.444  0.9177 -0.7944 -0.6445
    2MOL    C71 1153   7.202   5.177   1.499  0.1491 -0.0694  0.5319
    2MOL    C72 1154   7.233   5.323   1.474 -0.3091  0.6645 -0.0503
    2MOL    C73 1155   7.207   5.356   1.330 -0.1892 -0.2587  0.0873
    2MOL    C74 1156   7.147   5.411   1.562 -0.5507  1.3408 -0.7938
    2MOL    C75 1157   7.382   5.344   1.514  0.0311 -0.2671 -0.0802
    2MOL    C76 1158   7.429   5.284   1.632  0.4337  0.2667  0.3158
    2MOL    C77 1159   7.563   5.289   1.669  0.2751  0.4111 -0.0660
    2MOL    C78 1160   7.654   5.360   1.589 -0.1536 -0.0351 -0.0444
    2MOL    O79 1161   7.782   5.374   1.623  0.6970  0.0481  0.3274
    2MOL    C80 1162   7.607   5.430   1.477 -0.4836 -0.2027 -0.7978
    2MOL    C81 1163   7.474   5.422   1.435  0.3791  0.3783  0.7249
    2MOL    C82 1164   7.093   5.138   1.581 -0.3107 -0.5038  0.1794
    2MOL    C83 1165   7.078   5.012   1.630 -0.5051  0.4053 -0.6273
    2MOL    C84 1166   6.974   4.654   1.717 -0.9711 -0.3133  0.4655
    2MOL    C85 1167   6.860   4.576   1.692 -0.4340  0.6505  0.3813
    2MOL    C86 1168   6.465   4.615   1.613  0.1069  0.2926  0.4059
    2MOL    C87 1169   6.364   4.712   1.600 -0.7078 -0.1376 -0.9286
    2MOL    H88 1170   6.436   4.815   1.285 -0.2217  0.4026  0.5502
    2MOL    H89 1171   6.603   4.647   1.307  0.1401  0.5196  0.1986
    2MOL    H90 1172   6.886   4.578   1.349 -2.5687  1.8815  0.5588
    2MOL    H91 1173   7.062   4.732   1.394 -1.7725  1.7915  0.4700
    2MOL    H92 1174   7.333   4.862   1.458  0.4733  0.9102  0.6576
    2MOL    H93 1175   7.360   5.090   1.373  0.6651  1.2582 -0.4275
    2MOL    H94 1176   7.222   5.463   1.314  0.2381 -0.4019 -0.4832
    2MOL    H95 1177   7.107   5.344   1.288 -0.6425  3.4179 -0.0610
    2MOL    H96 1178   7.284   5.308   1.270  1.3850  0.1158  1.7655
    2MOL    H97 1179   7.151   5.387   1.669 -0.5990  0.8249 -0.9077
    2MOL    H98 1180   7.188   5.511   1.553 -1.6315  1.8597 -0.1092
    2MOL    H99 1181   7.040   5.411   1.542 -0.4129 -0.8763 -1.7129
    2MOL   H100 1182   7.355   5.230   1.689  0.7747 -0.2900  0.2335
    2MOL   H101 1183   7.600   5.244   1.760  1.0545  1.1198 -0.0256
    2MOL   H102 1184   7.684   5.489   1.429 -0.5914 -0.1551 -0.9130
    2MOL   H103 1185   7.462   5.480   1.345  0.0178  4.3960  3.2816
    2MOL   H104 1186   7.025   5.210   1.624  0.7461  1.4712 -1.3894
    2MOL   H105 1187   6.996   4.994   1.698 -2.5043  2.0033 -2.5597
    2MOL   H106 1188   7.010   4.671   1.817 -0.0098 -1.1770  0.2710
    2MOL   H107 1189   6.800   4.534   1.772  0.3846 -0.8987  0.1957
    2MOL   H108 1190   6.487   4.565   1.706  1.0966  0.6479  0.3776
    2MOL   H109 1191   6.298   4.720   1.686  0.5805 -0.3119  0.0879
    2MOL   C110 1192   7.805   5.442   1.736  0.0414  0.0851 -0.7574
    2MOL   C111 1193   7.775   5.578   1.751 -0.0045  0.3559  0.4668
    2MOL   C112 1194   7.814   5.649   1.864  0.1517  0.4580  0.1380
    2MOL   C113 1195   7.903   5.593   1.957  0.1507 -0.4211  0.1362
    2MOL   S114 1196   7.987   5.687   2.085  0.2154  0.3132 -0.3161
    2MOL   O115 1197   8.066   5.590   2.156  0.4562  0.5832 -0.6517
    2MOL   O116 1198   7.889   5.763   2.164  0.2187 -0.2177  0.0910
    2MOL   C117 1199   8.088   5.804   2.009 -0.4231 -0.6505  1.1815
    2MOL   C118 1200   8.189   5.758   1.929 -0.0884 -0.9763  0.0060
    2MOL   C119 1201   0.033   5.848   1.879  0.2840  0.1979 -0.2293
    2MOL   C120 1202   0.024   5.987   1.915 -0.4740  0.0200 -0.0663
    2MOL   O121 1203   0.120   6.081   1.881 -0.3200 -0.3336 -0.4720
    2MOL   C122 1204   0.180   6.074   1.761 -0.7783  0.0640 -0.1217
    2MOL   C123 1205   0.112   6.094   1.639  0.8193 -0.6034 -0.6940
    2MOL   C124 1206   0.180   6.084   1.518 -0.3208 -0.4428  0.3340
    2MOL   C125 1207   0.317   6.068   1.508  0.3828  0.2182  1.0655
    2MOL   C126 1208   0.408   6.066   1.381  0.7277 -0.2998  0.3999
    2MOL   C127 1209   0.470   5.919   1.371  0.7747 -0.2130  0.0174
    2MOL   C128 1210   0.321   6.095   1.262  0.4430  0.2778 -0.3914
    2MOL   C129 1211   0.516   6.174   1.387  0.0482 -0.3432  0.6538
    2MOL   C130 1212   0.637   6.160   1.321 -0.4853 -0.1464  1.1939
    2MOL   C131 1213   0.732   6.263   1.326  0.2715 -0.1580 -0.1954
    2MOL   C132 1214   0.716   6.375   1.409  0.2228 -0.1145  0.0177
    2MOL   O133 1215   0.810   6.476   1.412  0.2378  0.7770 -0.7965
    2MOL   C134 1216   0.591   6.390   1.471  0.1866 -0.1795  0.0483
    2MOL   C135 1217   0.485   6.294   1.453  0.1948 -0.1975 -0.5753
    2MOL   C136 1218   0.384   6.045   1.634 -0.4424 -0.1461  0.6018
    2MOL   C137 1219   0.314   6.050   1.754  0.4750  0.4202  0.6177
    2MOL   C138 1220   8.178   6.028   2.004 -0.4735 -0.2524  0.6026
    2MOL   C139 1221   8.082   5.937   2.053 -0.5973  0.5331  0.3946
    2MOL   C140 1222   7.948   5.461   1.939 -0.3424  0.2390 -0.5384
    2MOL   C141 1223   7.894   5.382   1.835  0.3973  0.4659  0.0045
    2MOL   H142 1224   7.723   5.619   1.666  0.3018 -1.3079 -0.5490
    2MOL   H143 1225   7.791   5.754   1.875 -0.3123  0.4472 -0.6732
    2MOL   H144 1226   8.211   5.655   1.902  1.8576 -0.4321 -0.5222
    2MOL   H145 1227   0.109   5.808   1.814  1.9793 -1.0721  2.4152
    2MOL   H146 1228   0.008   6.122   1.645  0.5614 -1.7068  0.2355
    2MOL   H147 1229   0.130   6.093   1.422 -0.8234 -2.9557  0.3173
    2MOL   H148 1230   0.501   5.886   1.272 -3.0367 -2.2045 -0.6092
    2MOL   H149 1231   0.400   5.841   1.402  0.2073  0.0996 -0.4634
    2MOL   H150 1232   0.550   5.912   1.445 -0.5982 -2.3940  1.3907
    2MOL   H151 1233   0.238   6.024   1.269 -0.7852  1.5544 -1.7235
    2MOL   H152 1234   0.266   6.189   1.256 -0.9615 -0.5942 -1.4012
    2MOL   H153 1235   0.371   6.088   1.166  1.1251 -0.0629 -0.0160
    2MOL   H154 1236   0.657   6.063   1.278 -1.5442  0.4202 -0.6201
    2MOL   H155 1237   0.823   6.244   1.271  1.2973  2.3271  0.5989
    2MOL   H156 1238   0.573   6.479   1.530  1.4453  0.3192 -0.2933
    2MOL   H157 1239   0.389   6.316   1.495  1.7987  2.6953  1.7820
    2MOL   H158 1240   0.491   6.034   1.636 -0.5029 -1.5465 -1.3317
    2MOL   H159 1241   0.363   6.047   1.850 -2.6770  1.2283  2.3063
    2MOL   H160 1242   8.181   6.126   2.048 -1.3483  1.1296 -2.2929
    2MOL   H161 1243   8.012   5.969   2.128 -0.8207 -1.8447  1.2412
    2MOL   H162 1244   8.016   5.411   2.006 -0.4306  1.5228  0.5201
    2MOL   H163 1245   7.931   5.281   1.823 -1.4069 -0.2119 -0.0041
    2MOL   C164 1246   0.943   6.452   1.412  0.0982  0.3903 -0.0798
    2MOL   C165 1247   1.012   6.430   1.533  0.0223  0.2598 -0.0473
    2MOL   C166 1248   1.152   6.425   1.537 -0.0310 -0.5754 -0.3500
    2MOL   C167 1249   1.226   6.436   1.423 -0.9071 -0.0504  0.9872
    2MOL   S168 1250   1.401   6.433   1.426 -0.2387 -0.3218  0.5356
    2MOL   O169 1251   1.453   6.409   1.292  0.4750  0.5694 -0.2985
    2MOL   O170 1252   1.450   6.342   1.532  0.2598 -0.0781 -0.0449
    2MOL   C171 1253   1.443   6.602   1.479 -0.6857  0.2911  0.2254
    2MOL   C172 1254   1.429   6.636   1.621  1.0208  0.4308  0.0450
    2MOL   C173 1255   1.467   6.764   1.659 -0.1926 -0.5688 -0.1612
    2MOL   C174 1256   1.517   6.866   1.571 -0.2907 -0.2318 -0.1382
    2MOL   O175 1257   1.544   6.991   1.617  0.0047 -0.0387  0.6722
    2MOL   C176 1258   1.449   7.084   1.588 -0.9441  0.6005  0.5411
    2MOL   C177 1259   1.471   7.184   1.490 -0.3822  0.7566  0.0340
    2MOL   C178 1260   1.370   7.275   1.458 -0.1559  0.0604  0.1589
    2MOL   C179 1261   1.240   7.263   1.512 -0.1078 -0.1806  0.0007
    2MOL   C180 1262   1.122   7.367   1.474 -0.1353  0.0173 -0.4624
    2MOL   C181 1263   1.045   7.423   1.592 -0.1853  0.8185  0.2952
    2MOL   C182 1264   1.164   7.495   1.394 -0.1647  0.5630 -0.5531
    2MOL   C183 1265   1.024   7.293   1.373 -0.7590 -0.5215 -1.0137
    2MOL   C184 1266   0.890   7.334   1.366  0.7461 -0.3521 -0.5093
    2MOL   C185 1267   0.804   7.284   1.267 -0.2966  0.3765 -0.0014
    2MOL   C186 1268   0.846   7.177   1.184  0.1181  0.9039 -0.0400
    2MOL   O187 1269   0.746   7.128   1.105  0.5635 -0.2834  0.1092
    2MOL   C188 1270   0.982   7.135   1.190 -0.9985 -1.1561 -0.4324
    2MOL   C189 1271   1.072   7.196   1.288 -0.2276  0.4284  0.1618
    2MOL   C190 1272   1.216   7.153   1.604 -0.8273 -0.6243 -0.7658
    2MOL   C191 1273   1.320   7.066   1.639  0.2081 -0.1147 -0.2387
    2MOL   C192 1274   1.531   6.827   1.434 -0.4377 -0.4737  0.0095
    2MOL   C193 1275   1.498   6.699   1.388 -0.5116 -0.4936 -1.0535
    2MOL   C194 1276   1.161   6.443   1.292 -0.1308 -0.4458 -0.6514
    2MOL   C195 1277   1.019   6.455   1.293 -0.1122  0.3579 -0.2731
    2MOL   H196 1278   0.956   6.431   1.625  1.4171 -0.4801  0.8260
    2MOL   H197 1279   1.200   6.420   1.634  1.0421  0.4669 -0.8225
    2MOL   H198 1280   1.392   6.557   1.684  0.3227 -0.1304 -1.0366
    2MOL   H199 1281   1.459   6.797   1.762 -0.7568  2.0326 -1.0023
    2MOL   H200 1282   1.566   7.200   1.441  0.2834 -1.6623  0.4731
    2MOL   H201 1283   1.388   7.353   1.386  0.8321 -0.1430  0.1815
    2MOL   H202 1284   0.961   7.488   1.567 -1.0713 -1.5170 -3.0299
    2MOL   H203 1285   1.124   7.460   1.658 -1.1995  1.0566  1.4022
    2MOL   H204 1286   1.000   7.346   1.655 -0.1573  0.5649  0.0066
    2MOL   H205 1287   1.244   7.549   1.446 -0.2536  1.1314 -0.9930
    2MOL   H206 1288   1.208   7.462   1.299  0.9638  0.9853 -0.1904
    2MOL   H207 1289   1.075   7.556   1.384  0.6273  1.5778 -1.5940
    2MOL   H208 1290   0.845   7.418   1.417  2.4939  1.2714 -1.6009
    2MOL   H209 1291   0.699   7.309   1.260 -0.6485 -0.8280  0.8054
    2MOL   H210 1292   1.027   7.059   1.129  1.4056  1.1241 -1.5786
    2MOL   H211 1293   1.173   7.157   1.297 -0.5351 -0.5311 -0.5572
    2MOL   H212 1294   1.114   7.130   1.632 -1.7070  1.1613 -2.3987
    2MOL   H213 1295   1.307   6.979   1.702 -1.1970 -0.9712 -1.6656
    2MOL   H214 1296   1.558   6.902   1.361  0.9173 -2.7158 -1.8374
    2MOL   H215 1297   1.520   6.662   1.289  0.9539 -1.3780 -0.4214
    2MOL   H216 1298   1.223   6.440   1.204  2.4162  0.9205  1.0308
    2MOL   H217 1299   0.969   6.471   1.198  1.4778 -1.5065 -1.4799
    2MOL   C218 1300   0.761   7.017   1.036  0.6668  0.6147 -0.1499
    2MOL   C219 1301   0.686   6.902   1.064  0.0572  0.2545 -0.4558
    2MOL   C220 1302   0.688   6.784   0.988 -0.6117  0.0450  0.2178
    2MOL   C221 1303   0.770   6.781   0.871  0.3056 -0.0720  0.4187
    2MOL   S222 1304   0.770   6.643   0.756 -0.1581  0.1361  0.5481
    2MOL   O223 1305   0.771   6.520   0.835  0.3361 -1.0057  0.1912
    2MOL   O224 1306   0.883   6.659   0.660 -0.3699  0.4066 -0.5996
    2MOL   C225 1307   0.618   6.664   0.665  0.2221 -0.4184 -0.6268
    2MOL   C226 1308   0.613   6.748   0.552  0.0084 -0.6319  0.1329
    2MOL   C227 1309   0.492   6.770   0.483 -0.2546 -0.4408  0.0369
    2MOL   C228 1310   0.369   6.720   0.534  0.6818 -0.3173 -0.0192
    2MOL   O229 1311   0.250   6.741   0.467 -0.0803 -0.0262  0.4780
    2MOL   C230 1312   0.169   6.635   0.440 -1.1568 -0.2195  0.5073
    2MOL   C231 1313   0.170   6.566   0.315 -0.5247  0.4715 -0.0743
    2MOL   C232 1314   0.072   6.467   0.290 -0.1739 -0.3295 -0.8835
    2MOL   C233 1315   8.232   6.427   0.387 -0.0813 -0.1921 -0.2375
    2MOL   C234 1316   8.133   6.311   0.368 -0.1866 -0.0095 -1.1893
    2MOL   C235 1317   8.154   6.215   0.484  0.1622 -0.2072  0.5604
    2MOL   C236 1318   7.990   6.375   0.380  0.0431 -0.1743  0.1156
    2MOL   C237 1319   8.154   6.245   0.229  0.5898 -0.5558 -0.2416
    2MOL   C238 1320   0.020   6.173   0.203 -0.0273  0.5422  0.9593
    2MOL   C239 1321   0.038   6.118   0.071  0.0452 -0.3549 -0.3427
    2MOL   C240 1322   8.198   6.130   8.220  0.8674  0.1099 -0.8779
    2MOL   O241 1323   8.211   6.070   8.101 -0.4144 -0.4439  0.0820
    2MOL   C242 1324   8.084   6.218   8.238 -0.5213  0.2782  0.2979
    2MOL   C243 1325   8.065   6.271   0.119 -0.3708  0.2830  0.1459
    2MOL   C244 1326   8.230   6.497   0.509 -0.5025 -0.4401 -0.3097
    2MOL   C245 1327   0.070   6.602   0.534  0.4653 -0.4117  0.4412
    2MOL   C246 1328   0.381   6.630   0.644 -0.0022 -0.0251  0.3629
    2MOL   C247 1329   0.500   6.605   0.711  0.8007  0.0633 -0.4110
    2MOL   C248 1330   0.846   6.896   0.835  0.2689 -0.1753 -0.0938
    2MOL   C249 1331   0.836   7.012   0.913 -0.1042 -0.2359 -0.7155
    2MOL   H250 1332   0.619   6.897   1.149 -2.1863  1.0572 -2.1125
    2MOL   H251 1333   0.631   6.701   1.026 -0.0648 -0.7183 -0.6143
    2MOL   H252 1334   0.707   6.787   0.517  1.4683 -0.7527  3.6804
    2MOL   H253 1335   0.484   6.830   0.393 -0.4761 -1.0687 -0.3694
    2MOL   H254 1336   0.245   6.596   0.243  0.7083  1.7918  1.7018
    2MOL   H255 1337   0.078   6.414   0.196  2.9091 -1.1758 -0.2589
    2MOL   H256 1338   8.107   6.118   0.476  2.4990 -1.2906 -0.4018
    2MOL   H257 1339   8.130   6.257   0.582 -0.3448 -1.2603  0.8926
    2MOL   H258 1340   0.007   6.192   0.485 -0.0975 -1.4369  1.3589
    2MOL   H259 1341   7.912   6.302   0.358 -0.0441 -0.2900  0.7798
    2MOL   H260 1342   7.969   6.410   0.482  2.4109 -2.6188  1.4989
    2MOL   H261 1343   7.976   6.453   0.305  0.2331 -2.2905 -2.1765
    2MOL   H262 1344   0.092   6.160   0.283  1.1855 -1.0067 -0.3502
    2MOL   H263 1345   0.135   6.074   0.054 -0.3961 -0.9925 -1.2187
    2MOL   H264 1346   8.023   6.251   8.155 -1.2679 -1.0118  0.3247
    2MOL   H265 1347   7.980   6.336   0.131  0.4130  1.6614 -1.5664
    2MOL   H266 1348   8.156   6.469   0.583  0.0394 -2.1252 -0.3848
    2MOL   H267 1349   0.057   6.659   0.625 -0.3895 -0.2306  0.2050
    2MOL   H268 1350   0.295   6.571   0.672  0.1225 -1.6995 -2.5569
    2MOL   H269 1351   0.496   6.537   0.795  1.0768 -0.5516 -0.9027
    2MOL   H270 1352   0.905   6.915   0.746  0.5721  1.6202  0.4893
    2MOL   H271 1353   0.909   7.087   0.886 -1.3154  1.2026 -0.0501
    2MOL   C272 1354   8.179   5.935   8.091  0.5803 -0.5538 -0.1201
    2MOL   C273 1355   8.145   5.856   8.203  0.3618  0.0520  0.0142
    2MOL   C274 1356   8.127   5.717   8.185  0.1647 -0.9266 -0.4137
    2MOL   C275 1357   8.127   5.664   8.056  0.2104  0.5836 -0.2114
    2MOL   S276 1358   8.102   5.488   8.027 -0.0728  0.6835  0.6168
    2MOL   O277 1359   8.204   5.425   8.115  0.4880 -0.0779  0.0998
    2MOL   O278 1360   8.105   5.461   7.885 -0.1263  0.1259 -0.2184
    2MOL   C279 1361   7.938   5.457   8.096  0.8758 -0.2047 -0.3261
    2MOL   C280 1362   7.916   5.434   8.241  0.2056  0.6284 -0.3229
    2MOL   C281 1363   7.792   5.444   0.046  0.1285 -0.1995 -0.8966
    2MOL   C282 1364   7.677   5.465   8.215 -0.4254 -0.2817  0.1533
    2MOL   O283 1365   7.557   5.480   0.020  0.0513 -0.9369  0.0438
    2MOL   C284 1366   7.464   5.567   8.212 -0.1887  0.5271  0.6054
    2MOL   C285 1367   7.340   5.506   8.171 -0.3297 -0.2713  0.7853
    2MOL   C286 1368   7.236   5.583   8.113 -0.3202 -0.0686 -0.0622
    2MOL   C287 1369   7.251   5.722   8.092 -0.3410  0.8960 -0.3722
    2MOL   C288 1370   7.141   5.797   8.019  0.4905  0.2944 -0.3634
    2MOL   C289 1371   7.135   5.940   8.073 -0.4685 -0.7900 -1.0051
    2MOL   C290 1372   7.185   5.815   7.865  0.0530  0.0215 -0.0681
    2MOL   C291 1373   6.999   5.739   8.047 -0.5182  0.0382 -0.5058
    2MOL   C292 1374   6.947   5.747   8.182 -0.0504 -0.7024  0.4363
    2MOL   C293 1375   6.818   5.712   8.207 -0.1266  0.5791  0.0932
    2MOL   C294 1376   6.741   5.648   8.104  0.0214  0.3403  0.2796
    2MOL   O295 1377   6.607   5.616   8.123  0.5129  0.3208 -0.0773
    2MOL   C296 1378   6.798   5.629   7.967  0.0119  0.0528 -0.4001
    2MOL   C297 1379   6.931   5.668   7.943 -0.1000  0.6389  0.2736
    2MOL   C298 1380   7.376   5.780   8.124  0.3151 -0.4020  0.2316
    2MOL   C299 1381   7.478   5.704   8.187 -0.0924 -0.5891  0.0981
    2MOL   C300 1382   7.693   5.486   8.077  0.7932  0.2029  0.1300
    2MOL   C301 1383   7.818   5.479   8.017  0.1697 -0.1679 -0.5472
    2MOL   C302 1384   8.149   5.750   7.945  0.9484 -0.7541 -0.3370
    2MOL   C303 1385   8.172   5.884   7.959  0.1730  0.3471 -0.5137
    2MOL   H304 1386   8.152   5.896   0.050  0.3603 -0.1174  0.0808
    2MOL   H305 1387   8.122   5.652   0.017 -1.2681 -0.4270 -0.0897
    2MOL   H306 1388   8.011   5.417   0.036  1.0467  1.4712 -1.6499
    2MOL   H307 1389   7.783   5.431   0.152  2.7283 -0.0657 -0.6347
    2MOL   H308 1390   7.331   5.399   8.183  0.9913 -0.2805  1.8190
    2MOL   H309 1391   7.148   5.529   8.082 -0.8144  0.1710  0.9088
    2MOL   H310 1392   7.223   5.990   8.032 -1.3625  0.4095 -1.4842
    2MOL   H311 1393   7.137   5.951   8.181 -0.7885 -1.2807 -0.9468
    2MOL   H312 1394   7.047   5.982   8.025  0.1230  2.1016  0.3848
    2MOL   H313 1395   7.107   5.874   7.817 -0.1936  0.1324  0.4613
    2MOL   H314 1396   7.279   5.869   7.866 -0.1569  0.4343 -2.0251
    2MOL   H315 1397   7.188   5.718   7.816 -1.2196  0.4032 -0.9228
    2MOL   H316 1398   7.010   5.789   0.006  0.0597  1.7527 -0.9187
    2MOL   H317 1399   6.779   5.719   0.054  1.1117  0.9080  0.5635
    2MOL   H318 1400   6.747   5.566   7.896 -0.1496  2.2024 -2.2241
    2MOL   H319 1401   6.962   5.663   7.840 -1.4788 -0.1113 -0.1234
    2MOL   H320 1402   7.391   5.884   8.102  1.3091 -0.3176  1.2837
    2MOL   H321 1403   7.567   5.755   8.219 -0.9958  0.2210  1.3611
    2MOL   H322 1404   7.607   5.494   8.013  0.0316  1.3369  1.2894
    2MOL   H323 1405   7.821   5.509   7.914 -1.5899 -0.6403 -0.7557
    2MOL   H324 1406   8.145   5.715   7.843  0.5580  0.1158 -0.6259
    2MOL   H325 1407   8.187   5.952   7.877 -0.5909  2.0688  0.7462
    2MOL   C326 1408   6.552   5.512   8.052  0.3677  0.0023 -0.4287
    2MOL   C327 1409   6.605   5.384   8.060  0.3682 -0.6462  0.4242
    2MOL   C328 1410   6.552   5.282   7.979  0.7553 -0.3597 -0.3605
    2MOL   C329 1411   6.429   5.303   7.918  0.2968  0.7099 -0.3775
    2MOL   S330 1412   6.329   5.163   7.860 -0.0523  0.2087 -0.2228
    2MOL   O331 1413   6.198   5.163   7.927  0.1275 -0.6203  0.6734
    2MOL   O332 1414   6.408   5.040   7.871 -0.4141 -0.9686  0.6255
    2MOL   C333 1415   6.307   5.181   7.683  0.6171 -0.0039 -0.2450
    2MOL   C334 1416   6.215   5.095   7.620 -0.3066 -0.3415 -0.3832
    2MOL   C335 1417   6.200   5.098   7.480 -0.1796  0.2993  0.0511
    2MOL   C336 1418   6.280   5.183   7.402 -0.3180  0.1897  0.1984
    2MOL   O337 1419   6.276   5.188   7.266 -0.1793  0.0277 -0.2176
    2MOL   C338 1420   6.368   5.110   7.202 -0.5707 -0.0496 -0.3083
    2MOL   C339 1421   6.374   4.965   7.199 -0.0126  0.4755 -0.6627
    2MOL   C340 1422   6.477   4.896   7.132 -0.5165  0.3584 -0.3220
    2MOL   C341 1423   6.574   4.965   7.056 -0.7592 -0.1788 -0.3648
    2MOL   C342 1424   6.696   4.899   6.987  0.0609 -1.1013  0.5115
    2MOL   C343 1425   6.677   4.749   6.979  0.2534  0.4834 -0.4314
    2MOL   C344 1426   6.703   4.953   6.838  0.2011 -0.4169 -0.0364
    2MOL   C345 1427   6.824   4.928   7.072 -0.4828  0.0833 -0.4704
    2MOL   C346 1428   6.923   5.019   7.032  0.8977  0.8283 -0.6468
    2MOL   C347 1429   7.039   5.042   7.104 -0.0029 -0.4112  0.2586
    2MOL   C348 1430   7.067   4.970   7.220  0.0787 -0.1999 -0.3060
    2MOL   O349 1431   7.184   4.987   7.284 -0.2115  0.2672  0.0703
    2MOL   C350 1432   6.971   4.875   7.263  0.2479  0.7999 -0.2310
    2MOL   C351 1433   6.845   4.867   7.194  0.1829  0.0170  0.8486
    2MOL   C352 1434   6.562   5.104   7.050  0.5024  0.4282 -0.7820
    2MOL   C353 1435   6.462   5.175   7.123  0.3289 -0.3967 -0.4650
    2MOL   C354 1436   6.378   5.263   7.465 -0.0745 -0.4495  0.0183
    2MOL   C355 1437   6.389   5.262   7.607  0.3440 -0.5752 -0.4554
    2MOL   C356 1438   6.372   5.432   7.908 -0.3044  0.3770  1.1024
    2MOL   C357 1439   6.432   5.535   7.981 -0.1587 -0.0127  0.1574
    2MOL   H358 1440   6.694   5.369   8.119  0.9165  0.7598 -0.0467
    2MOL   H359 1441   6.586   5.179   7.976 -1.5128 -1.1827  0.8077
    2MOL   H360 1442   6.141   5.041   7.677  0.6161 -0.8584  0.3299
    2MOL   H361 1443   6.131   5.020   7.452  0.8907 -1.3478  1.8361
    2MOL   H362 1444   6.295   4.909   7.246  0.0193  1.0667  0.1144
    2MOL   H363 1445   6.473   4.788   7.128  2.2871  0.2494 -1.2723
    2MOL   H364 1446   6.583   4.725   6.929  0.7317 -0.3598 -0.9278
    2MOL   H365 1447   6.671   4.699   7.075  0.9034 -0.8606 -1.0723
    2MOL   H366 1448   6.748   4.694   6.918  0.2006 -0.7444  0.6043
    2MOL   H367 1449   6.605   4.929   6.796 -0.2053  0.5353  0.3453
    2MOL   H368 1450   6.720   5.060   6.825  0.8547 -0.6682 -1.3870
    2MOL   H369 1451   6.780   4.898   6.784 -0.3834 -1.3525  0.0851
    2MOL   H370 1452   6.901   5.076   6.943 -0.3915  0.9506 -0.2631
    2MOL   H371 1453   7.118   5.110   7.078 -0.4326 -0.2606 -0.6468
    2MOL   H372 1454   6.981   4.809   7.349 -1.3490 -0.7461 -1.1820
    2MOL   H373 1455   6.768   4.808   7.242  0.7445 -0.9421  0.6025
    2MOL   H374 1456   6.634   5.162   6.995 -1.9535  0.1926 -4.4170
    2MOL   H375 1457   6.450   5.282   7.121  3.6599  0.0145 -0.3227
    2MOL   H376 1458   6.441   5.321   7.400  0.5341 -1.3195 -0.1743
    2MOL   H377 1459   6.475   5.316   7.642 -1.1778  0.6756  1.4840
    2MOL   H378 1460   6.279   5.447   7.855 -0.3417  1.6160  1.5053
    2MOL   H379 1461   6.377   5.628   7.979  2.4824  1.5818 -0.8063
    2MOL   C380 1462   7.186   5.068   7.396  0.2143  0.5317 -0.8557
    2MOL   C381 1463   7.143   5.203   7.389  0.7046  0.3608 -0.5149
    2MOL   C382 1464   7.133   5.281   7.508 -0.1430 -0.0149 -0.7102
    2MOL   C383 1465   7.164   5.228   7.635 -0.2314  0.2536  0.3657
    2MOL   S384 1466   7.180   5.340   7.780 -0.0031  0.5569 -0.0649
    2MOL   O385 1467   7.059   5.342   7.860  0.5527  0.1686  0.1694
    2MOL   O386 1468   7.228   5.472   7.731  0.3291 -0.2769  0.5760
    2MOL   C387 1469   7.301   5.263   7.883  0.5085 -0.3156  0.0097
    2MOL   C388 1470   7.260   5.180   7.992  0.7371  0.8846  0.0507
    2MOL   C389 1471   7.348   5.105   8.075  0.8534  0.2840 -0.0774
    2MOL   C390 1472   7.487   5.109   8.049  0.3577 -0.0660  0.6422
    2MOL   O391 1473   7.574   5.031   8.122 -0.3340 -0.8384  0.0379
    2MOL   C392 1474   7.695   4.990   8.074  1.1032  0.5947 -0.0060
    2MOL   C393 1475   7.810   5.075   8.089 -0.1093  0.3904 -0.2637
    2MOL   C394 1476   7.929   5.039   8.023 -0.0638  0.3382  0.4075
    2MOL   C395 1477   7.933   4.927   7.937 -0.2743 -0.2720  0.1964
    2MOL   C396 1478   8.061   4.909   7.855  0.2106  0.5661  0.3949
    2MOL   C397 1479   8.184   4.882   7.950  0.0315 -0.3466  0.0749
    2MOL   C398 1480   8.045   4.795   7.758 -0.1408  0.4327 -0.6014
    2MOL   C399 1481   8.078   5.035   7.763  1.0248 -0.1356 -0.1134
    2MOL   C400 1482   7.969   5.071   7.687 -0.5525 -0.5738  0.5568
    2MOL   C401 1483   7.971   5.197   7.632 -0.0008 -0.1244  0.0524
    2MOL   C402 1484   8.083   5.279   7.625 -0.8814  0.2823  0.1420
    2MOL   O403 1485   8.091   5.401   7.560 -0.8117  0.4104  0.8417
    2MOL   C404 1486   8.196   5.234   7.693  0.4131  0.1359  0.2369
    2MOL   C405 1487   8.197   5.112   7.764  0.0975  0.2501  0.6898
    2MOL   C406 1488   7.823   4.842   7.934  0.0423  0.1198  0.0920
    2MOL   C407 1489   7.701   4.866   8.004 -0.6093  0.2241 -0.3580
    2MOL   C408 1490   7.533   5.201   7.941  0.2783 -0.7262 -0.5553
    2MOL   C409 1491   7.444   5.275   7.864  0.7741 -0.2648  0.5514
    2MOL   C410 1492   7.198   5.091   7.635 -0.4275  1.1294 -0.4501
    2MOL   C411 1493   7.209   5.011   7.520  0.1601 -0.4547 -0.1645
    2MOL   H412 1494   7.102   5.251   7.302  0.1418  0.5695 -0.1417
    2MOL   H413 1495   7.114   5.387   7.516  2.7206  0.4714  0.2235
    2MOL   H414 1496   7.155   5.177   8.017  0.5866  0.5323 -0.6211
    2MOL   H415 1497   7.314   5.041   8.155 -0.0419  1.6799  0.6995
    2MOL   H416 1498   7.803   5.173   8.133 -1.1262  0.1787  0.0666
    2MOL   H417 1499   8.013   5.107   8.033  0.1871 -0.0969  1.3685
    2MOL   H418 1500   0.015   4.862   7.885 -0.6681 -0.2228 -0.8808
    2MOL   H419 1501   8.154   4.794   8.007 -0.5886  0.8904  1.6929
    2MOL   H420 1502   8.223   4.961   8.014 -0.4582 -1.7067  2.1258
    2MOL   H421 1503   7.946   4.787   7.714 -1.5778 -0.0602  2.6333
    2MOL   H422 1504   8.121   4.801   7.680 -1.1166 -0.8904 -1.6709
    2MOL   H423 1505   8.073   4.699   7.800  1.9184  1.2372 -0.0335
    2MOL   H424 1506   7.880   5.011   7.682 -1.4848  0.6784  1.7566
    2MOL   H425 1507   7.877   5.224   7.585 -0.1267 -2.5677 -1.1555
    2MOL   H426 1508   0.026   5.302   7.701 -1.4992  2.5334  0.3083
    2MOL   H427 1509   0.027   5.093   7.830 -0.8934 -2.9232  1.1214
    2MOL   H428 1510   7.833   4.753   7.874 -1.8407 -1.6539  2.2999
    2MOL   H429 1511   7.623   4.791   7.998 -0.2005 -0.1533 -0.9975
    2MOL   H430 1512   7.638   5.199   7.916 -0.3840  2.0885 -3.9189
    2MOL   H431 1513   7.474   5.343   7.786 -0.6252  0.0363  0.2633
    2MOL   H432 1514   7.214   5.061   7.738  1.7887  1.8022 -0.5626
    2MOL   H433 1515   7.225   4.904   7.532  2.1873 -0.2797 -1.1365
    2MOL   C434 1516   8.145   5.407   7.435 -0.1954  0.0290  0.4907
    2MOL   C435 1517   8.059   5.445   7.330 -0.4314 -0.3029  0.4338
    2MOL   C436 1518   8.115   5.457   7.197 -0.7022  0.1767 -0.0310
    2MOL   C437 1519   8.253   5.442   7.179  0.7979  0.8780 -1.2326
    2MOL   S438 1520   0.073   5.459   7.016  0.2888 -0.4449 -0.6320
    2MOL   O439 1521   0.071   5.321   6.962 -0.6294 -0.8639  0.2388
    2MOL   O440 1522   0.201   5.534   7.022 -0.5141 -0.0934  0.1241
    2MOL   C441 1523   8.212   5.563   6.916  0.4472 -0.3209 -0.9139
    2MOL   C442 1524   8.160   5.686   6.966 -0.3468  0.2417 -0.6603
    2MOL   C443 1525   8.063   5.747   6.883 -0.0784  0.0185  0.0596
    2MOL   C444 1526   8.037   5.706   6.752  0.1528  0.3430  0.3363
    2MOL   O445 1527   7.933   5.769   6.689  0.4420 -0.1435  0.2994
    2MOL   C446 1528   7.957   5.827   6.569  0.3426 -0.0343 -0.6069
    2MOL   C447 1529   7.914   5.768   6.452  0.1720  0.1480 -0.3854
    2MOL   C448 1530   7.936   5.832   6.326 -0.2356 -0.9681  0.3006
    2MOL   C449 1531   7.985   5.964   6.319 -0.0784  0.1950  0.4771
    2MOL   C450 1532   7.979   6.050   6.189 -0.0577  0.5070  0.1768
    2MOL   C451 1533   8.122   6.059   6.147  0.0627  0.5319 -0.2885
    2MOL   C452 1534   7.914   5.965   6.081  0.6277  0.3074 -0.8495
    2MOL   C453 1535   7.913   6.187   6.201 -0.2509  0.3121 -0.1934
    2MOL   C454 1536   7.776   6.205   6.191  0.9125  0.3108  0.4173
    2MOL   C455 1537   7.716   6.333   6.192  0.0954  0.0639 -0.1560
    2MOL   C456 1538   7.791   6.444   6.224  0.1236  0.3161 -0.1404
    2MOL   O457 1539   7.732   6.566   6.226 -0.5610  0.0337 -0.4772
    2MOL   C458 1540   7.925   6.426   6.251 -0.5867 -0.7279 -0.1137
    2MOL   C459 1541   7.991   6.302   6.229  0.1307 -0.0360  0.3063
    2MOL   C460 1542   8.039   6.016   6.441 -0.1345  0.0323 -0.3147
    2MOL   C461 1543   8.016   5.953   6.563  0.0289 -0.2997  0.4372
    2MOL   C462 1544   8.099   5.590   6.704  0.0663  0.5445 -0.4584
    2MOL   C463 1545   8.190   5.516   6.785 -0.0682  0.1181 -0.3123
    2MOL   C464 1546   0.089   5.402   7.287 -0.7863 -0.6401  0.7862
    2MOL   C465 1547   0.026   5.384   7.416 -0.3678 -0.0054 -0.2313
    2MOL   H466 1548   7.954   5.458   7.349 -0.2085  0.6800  1.0393
    2MOL   H467 1549   8.050   5.474   7.113 -0.0793  0.9881 -0.3420
    2MOL   H468 1550   8.190   5.722   7.064 -0.8180 -0.7824 -0.1310
    2MOL   H469 1551   8.013   5.837   6.918 -1.3563 -1.2313  1.5218
    2MOL   H470 1552   7.866   5.671   6.446  0.3665  0.0769 -0.8584
    2MOL   H471 1553   7.913   5.770   6.241 -3.0250  1.0730 -0.4887
    2MOL   H472 1554   8.194   6.096   6.220  0.1023 -2.3190  1.1548
    2MOL   H473 1555   8.130   6.120   6.056 -1.2671  0.4741 -0.4535
    2MOL   H474 1556   8.164   5.960   6.128 -2.7838 -0.6227 -0.7847
    2MOL   H475 1557   7.815   5.936   6.118 -0.1321  1.1373 -2.1849
    2MOL   H476 1558   7.902   6.036   6.000 -0.8186  0.8654 -0.1634
    2MOL   H477 1559   7.984   5.887   6.051 -0.4772 -0.9465 -0.2099
    2MOL   H478 1560   7.703   6.125   6.183  2.2534 -0.5518 -3.9237
    2MOL   H479 1561   7.611   6.357   6.183 -0.3013 -1.1439  1.0687
    2MOL   H480 1562   7.976   6.517   6.280 -1.6014  0.2295 -1.2710
    2MOL   H481 1563   8.097   6.296   6.250  0.0519 -1.6773  0.3600
    2MOL   H482 1564   8.080   6.116   6.439  0.0819 -0.0490  0.1993
    2MOL   H483 1565   8.054   6.002   6.651  0.7059  1.7275 -0.9558
    2MOL   H484 1566   8.067   5.562   6.604  0.8911  1.6055 -1.0295
    2MOL   H485 1567   8.244   5.431   6.744 -1.3634 -0.4846 -0.7953
    2MOL   H486 1568   0.196   5.386   7.276 -0.8784 -2.1749  1.9911
    2MOL   H487 1569   0.087   5.357   7.501  0.4685 -0.2795 -0.9231
    2MOL   C488 1570   7.784   6.669   6.151 -0.0233 -0.5313 -0.4059
    2MOL   C489 1571   7.811   6.795   6.215  0.1464  0.4016 -0.4069
    2MOL   C490 1572   7.868   6.904   6.144  0.6082 -0.5105  0.4049
    2MOL   C491 1573   7.899   6.888   6.007 -0.4342 -0.3309 -0.5194
    2MOL   S492 1574   7.982   7.016   5.917  0.0529  0.0036  0.0325
    2MOL   O493 1575   7.949   7.144   5.975  0.3866 -0.2229 -0.0077
    2MOL   O494 1576   7.966   6.999   5.773 -0.0966  0.0836 -0.2012
    2MOL   C495 1577   8.160   6.992   5.932  0.3447  0.3732  0.3501
    2MOL   C496 1578   8.210   6.873   5.999 -0.5056  0.6311  0.6374
    2MOL   C497 1579   0.096   6.852   5.996 -0.1043 -0.0257  0.4131
    2MOL   C498 1580   0.181   6.944   5.937 -0.5245 -0.0076 -0.4808
    2MOL   O499 1581   0.316   6.943   5.965 -0.1857 -0.4929  0.2516
    2MOL   C500 1582   0.396   6.865   5.883  0.1588  0.0917  0.1108
    2MOL   C501 1583   0.495   6.781   5.934 -0.0166 -0.1343  0.2906
    2MOL   C502 1584   0.569   6.694   5.848 -0.2762 -0.3545 -0.4085
    2MOL   C503 1585   0.534   6.684   5.711  0.0472 -0.1742  0.4441
    2MOL   C504 1586   0.618   6.597   5.607  0.6337  0.4241  0.4273
    2MOL   C505 1587   0.735   6.515   5.669 -0.1029 -0.4125  0.6457
    2MOL   C506 1588   0.522   6.487   5.543  0.3781 -0.2614 -0.3377
    2MOL   C507 1589   0.674   6.690   5.501 -0.6700  0.3374  0.0029
    2MOL   C508 1590   0.768   6.790   5.541  0.2941  0.9766 -0.1575
    2MOL   C509 1591   0.821   6.877   5.445  0.5048  0.2169 -1.7020
    2MOL   C510 1592   0.769   6.883   5.315 -0.1488 -0.0638 -0.8842
    2MOL   O511 1593   0.822   6.965   5.216  0.2909 -0.6011  0.5579
    2MOL   C512 1594   0.670   6.793   5.278 -0.0612 -0.5555 -0.7399
    2MOL   C513 1595   0.627   6.696   5.367 -0.5163 -0.2259 -0.3881
    2MOL   C514 1596   0.434   6.769   5.659 -0.8375  0.3859  0.4180
    2MOL   C515 1597   0.368   6.863   5.741  0.0578 -0.2914 -0.2249
    2MOL   C516 1598   0.127   7.055   5.873 -1.0192  0.3393 -0.5604
    2MOL   C517 1599   8.245   7.074   5.865  0.5333 -0.2871 -0.5594
    2MOL   C518 1600   7.878   6.763   5.945 -0.1528 -0.4682 -0.9359
    2MOL   C519 1601   7.815   6.657   6.013 -0.5429 -0.8334 -0.4201
    2MOL   H520 1602   7.804   6.812   6.322 -1.0330 -0.1542 -0.3836
    2MOL   H521 1603   7.884   7.000   6.189  3.2866 -0.7212 -0.0048
    2MOL   H522 1604   8.144   6.802   6.047 -1.5752  1.3819  0.3058
    2MOL   H523 1605   0.136   6.770   6.056  1.5974  2.0746  2.2645
    2MOL   H524 1606   0.518   6.778   6.039  1.4037  1.3875  0.0492
    2MOL   H525 1607   0.643   6.634   5.900 -0.3927  0.7462  1.0288
    2MOL   H526 1608   0.719   6.430   5.735 -1.5188  0.0343  0.8958
    2MOL   H527 1609   0.796   6.582   5.729 -1.7896  1.9157 -0.1726
    2MOL   H528 1610   0.809   6.479   5.597 -0.2920 -3.8427  2.0907
    2MOL   H529 1611   0.472   6.433   5.624 -1.5865  1.0500 -0.6217
    2MOL   H530 1612   0.439   6.533   5.488  1.4042 -0.9087 -2.4742
    2MOL   H531 1613   0.579   6.424   5.476  1.2070  0.9620 -0.7874
    2MOL   H532 1614   0.804   6.801   5.642  4.0775 -0.7898 -1.2051
    2MOL   H533 1615   0.906   6.936   5.474  0.1818 -1.0857  2.0855
    2MOL   H534 1616   0.631   6.794   5.177  1.8699 -2.2836 -1.5310
    2MOL   H535 1617   0.565   6.614   5.334  0.4264 -1.7171  1.4579
    2MOL   H536 1618   0.404   6.763   5.555 -0.9658  3.6021  0.2076
    2MOL   H537 1619   0.291   6.929   5.704 -0.9199  0.0416  2.3026
    2MOL   H538 1620   0.189   7.129   5.825  1.8531 -0.3624  1.9111
    2MOL   H539 1621   8.211   7.165   5.818  0.9773  0.1085 -0.1268
    2MOL   H540 1622   7.915   6.760   5.843 -0.3274 -0.1406 -1.0083
    2MOL   H541 1623   7.795   6.560   5.969  0.9552 -0.0871 -2.8410
    2MOL   C542 1624   0.955   6.960   5.188 -0.3129 -0.5810 -0.0423
    2MOL   C543 1625   1.040   7.069   5.224 -0.1129  0.6464  0.0686
    2MOL   C544 1626   1.181   7.070   5.193 -0.1817  0.2144 -0.0193
    2MOL   C545 1627   1.226   6.955   5.116  0.5894 -0.6792  0.4426
    2MOL   S546 1628   1.392   6.945   5.049  0.1605 -0.0925 -0.3375
    2MOL   O547 1629   1.465   6.853   5.141 -0.7226  0.2055 -0.5609
    2MOL   O548 1630   1.437   7.087   5.043  0.1705  0.5866  0.2366
    2MOL   C549 1631   1.380   6.881   4.881  0.0504 -0.0386 -0.3913
    2MOL   C550 1632   1.316   6.963   4.784  0.6807 -0.1912 -0.2143
    2MOL   C551 1633   1.261   6.902   4.669  0.0697 -0.5534 -0.6475
    2MOL   C552 1634   1.281   6.769   4.647 -1.0679  0.0163  0.5551
    2MOL   O553 1635   1.205   6.718   4.543  0.0062  0.0413 -0.6001
    2MOL   C554 1636   1.251   6.729   4.415 -0.2102 -0.5173  0.4096
    2MOL   C555 1637   1.348   6.646   4.363  0.6530  0.1675 -0.2131
    2MOL   C556 1638   1.385   6.659   4.231 -0.3708 -0.2867 -0.2869
    2MOL   C557 1639   1.342   6.765   4.147  0.6856  0.3719  0.6145
    2MOL   C558 1640   1.387   6.789   4.003 -0.5371 -0.0001  0.1478
    2MOL   C559 1641   1.344   6.922   3.943 -0.2275  0.6781  0.2484
    2MOL   C560 1642   1.544   6.782   3.997  0.4200  0.5944 -0.3177
    2MOL   C561 1643   1.323   6.686   3.913  0.3487  0.0554 -0.0647
    2MOL   C562 1644   1.203   6.616   3.953  0.2765 -0.0019  0.2898
    2MOL   C563 1645   1.147   6.520   3.867  0.1585  0.1039  0.3998
    2MOL   C564 1646   1.218   6.480   3.753 -0.1772 -0.5019  0.0159
    2MOL   O565 1647   1.177   6.370   3.675  0.4117  0.3864 -0.2783
    2MOL   C566 1648   1.324   6.552   3.706  0.4509 -0.4953  0.4693
    2MOL   C567 1649   1.382   6.650   3.787  0.2796 -0.4715 -0.5575
    2MOL   C568 1650   1.247   6.852   4.203 -0.6060 -0.3173  1.0243
    2MOL   C569 1651   1.201   6.837   4.336 -0.3283 -0.2501 -1.5108
    2MOL   C570 1652   1.365   6.687   4.727 -0.2700 -0.4976 -0.3719
    2MOL   C571 1653   1.410   6.743   4.846  0.4091  0.6211 -0.5014
    2MOL   C572 1654   1.140   6.851   5.075  0.0915 -0.6731 -0.1338
    2MOL   C573 1655   1.004   6.850   5.117 -0.6789  0.6309  0.0133
    2MOL   H574 1656   0.989   7.154   5.266  0.8352  0.2146  2.1454
    2MOL   H575 1657   1.250   7.149   5.220  0.7875 -0.7109  0.2825
    2MOL   H576 1658   1.291   7.065   4.808 -1.0909 -0.3349 -1.3604
    2MOL   H577 1659   1.202   6.960   4.600  0.9497  0.4035 -0.6098
    2MOL   H578 1660   1.378   6.555   4.414 -1.4450 -1.4215 -1.7389
    2MOL   H579 1661   1.449   6.578   4.196 -0.0964 -0.4294  0.5303
    2MOL   H580 1662   1.239   6.921   3.917  0.3190  0.8595 -2.0309
    2MOL   H581 1663   1.392   6.959   3.852 -0.7280 -2.2535 -1.2637
    2MOL   H582 1664   1.355   7.001   4.017  1.7974 -0.8710  1.6795
    2MOL   H583 1665   1.590   6.691   4.035 -0.3554  1.1302  1.9911
    2MOL   H584 1666   1.574   6.810   3.896  0.0802 -1.8178 -1.1320
    2MOL   H585 1667   1.596   6.860   4.053  0.4926 -0.4194  1.0557
    2MOL   H586 1668   1.152   6.628   4.047 -2.0262  1.9759 -1.1809
    2MOL   H587 1669   1.056   6.468   3.891  1.3194 -1.4583  1.5548
    2MOL   H588 1670   1.376   6.517   3.618 -0.5778 -1.8649  0.3817
    2MOL   H589 1671   1.472   6.695   3.747 -0.5251 -1.2903 -3.3905
    2MOL   H590 1672   1.203   6.924   4.135  2.1835  1.6606  1.2351
    2MOL   H591 1673   1.123   6.900   4.376  1.5373  1.4038 -0.4090
    2MOL   H592 1674   1.373   6.580   4.719  2.8694 -0.4211  0.9736
    2MOL   H593 1675   1.446   6.674   4.922  1.0168  1.7686  0.2586
    2MOL   H594 1676   1.157   6.759   5.022  1.0983 -0.9872  0.7182
    2MOL   H595 1677   0.937   6.770   5.087 -0.9423  1.4741 -1.6902
    2MOL   C596 1678   1.146   6.257   3.739 -0.0280  0.3361  0.5193
    2MOL   C597 1679   1.009   6.212   3.763  0.0237 -0.3193  0.2339
    2MOL   C598 1680   0.983   6.089   3.829  0.6098  0.3218 -0.0926
    2MOL   C599 1681   1.088   6.013   3.875  0.1085 -0.1313 -0.0690
    2MOL   S600 1682   1.056   5.866   3.969 -0.3215  0.5480  0.2177
    2MOL   O601 1683   1.145   5.767   3.908  0.5129  0.4512 -0.0866
    2MOL   O602 1684   0.913   5.836   3.976  0.1804  0.0164 -0.5394
    2MOL   C603 1685   1.111   5.901   4.137  0.1340 -0.2162 -0.0058
    2MOL   C604 1686   1.253   5.906   4.165  0.4486 -0.2062 -0.2815
    2MOL   C605 1687   1.296   5.939   4.292  0.1028 -0.1025  0.2781
    2MOL   C606 1688   1.196   5.966   4.393 -0.3397 -0.0347  0.8632
    2MOL   O607 1689   1.235   5.985   4.524  0.0485 -0.5139 -0.0007
    2MOL   C608 1690   1.234   5.874   4.605  0.0448  0.3521 -0.0730
    2MOL   C609 1691   1.316   5.766   4.572  0.9055 -0.0012 -0.0919
    2MOL   C610 1692   1.314   5.652   4.657  0.1515  0.2952  0.7314
    2MOL   C611 1693   1.226   5.640   4.768  0.2241  0.4141 -0.2279
    2MOL   C612 1694   1.238   5.522   4.864  0.3514 -1.4234  0.4590
    2MOL   C613 1695   1.296   5.395   4.810 -0.1263  0.6766 -0.4506
    2MOL   C614 1696   1.330   5.573   4.978 -0.1133 -0.0172 -0.3050
    2MOL   C615 1697   1.092   5.486   4.915  0.0796  0.4568 -0.9505
    2MOL   C616 1698   1.063   5.465   5.051  0.0262  0.7178 -0.2140
    2MOL   C617 1699   0.940   5.410   5.090  0.5521  0.5376  0.7157
    2MOL   C618 1700   0.834   5.410   4.999 -0.3151  0.0163  0.2467
    2MOL   O619 1701   0.708   5.383   5.042  0.0530 -0.3451 -0.4170
    2MOL   C620 1702   0.858   5.440   4.865  0.1380 -0.0746  0.1155
    2MOL   C621 1703   0.989   5.471   4.825  0.0538  0.4731 -0.3710
    2MOL   C622 1704   1.144   5.748   4.798 -0.0421 -0.3694  0.1025
    2MOL   C623 1705   1.148   5.864   4.719 -0.4279 -0.5543  0.6308
    2MOL   C624 1706   1.057   5.951   4.372  0.2667 -0.4054  0.3057
    2MOL   C625 1707   1.019   5.926   4.238  0.0306  0.2767  0.5147
    2MOL   C626 1708   1.221   6.056   3.862 -0.3663 -0.0596  0.6615
    2MOL   C627 1709   1.248   6.170   3.785  0.1478  0.0390 -0.2451
    2MOL   H628 1710   0.927   6.278   3.740 -0.0993 -0.1404  1.1619
    2MOL   H629 1711   0.888   6.047   3.859  0.0139  2.4039  0.9737
    2MOL   H630 1712   1.321   5.873   4.088 -0.1570  1.1778 -1.4503
    2MOL   H631 1713   1.401   5.938   4.314 -0.0360 -1.2499  0.9294
    2MOL   H632 1714   1.390   5.761   4.494 -1.0922 -0.5179 -2.0088
    2MOL   H633 1715   1.389   5.577   4.636 -1.9874 -1.5548 -0.3937
    2MOL   H634 1716   1.247   5.350   4.723 -2.5084 -0.3854  1.3873
    2MOL   H635 1717   1.290   5.321   4.890  0.7731  2.3073  1.1451
    2MOL   H636 1718   1.402   5.395   4.788  0.1433 -0.2406  0.7903
    2MOL   H637 1719   1.297   5.667   5.024  0.5732  1.9794 -3.7551
    2MOL   H638 1720   1.361   5.493   5.046  2.3251  1.1407 -0.0130
    2MOL   H639 1721   1.425   5.607   4.937  0.9023  2.5349  3.8675
    2MOL   H640 1722   1.137   5.483   5.127 -1.3019 -0.6292  1.4185
    2MOL   H641 1723   0.927   5.384   5.194 -0.7222 -1.5961  0.0632
    2MOL   H642 1724   0.785   5.434   4.787  0.9910  0.4291 -0.7287
    2MOL   H643 1725   1.009   5.485   4.720  3.4118  2.3504  0.4643
    2MOL   H644 1726   1.086   5.746   4.889 -0.2798 -1.3064 -0.0734
    2MOL   H645 1727   1.085   5.951   4.735  0.1267  0.2662 -1.4590
    2MOL   H646 1728   0.982   5.973   4.447 -0.1835  2.5066 -0.9262
    2MOL   H647 1729   0.912   5.909   4.234 -0.2372  1.9386  0.3003
    2MOL   H648 1730   1.305   6.002   3.905 -0.7308 -1.7053 -0.6018
    2MOL   H649 1731   1.352   6.191   3.766 -0.5497  2.5741 -1.4586
    2MOL   C650 1732   0.642   5.481   5.115 -0.0066 -0.1530 -0.4937
    2MOL   C651 1733   0.563   5.448   5.224  0.1116  0.4148  0.1364
    2MOL   C652 1734   0.483   5.543   5.295  0.4055  0.5874  0.1466
    2MOL   C653 1735   0.480   5.680   5.250  0.2678  0.2994 -0.2116
    2MOL   S654 1736   0.372   5.801   5.332 -0.0487 -0.1671 -0.3438
    2MOL   O655 1737   0.388   5.772   5.479 -0.1965 -0.0112  0.6174
    2MOL   O656 1738   0.242   5.793   5.264 -0.2490 -0.1156 -0.2084
    2MOL   C657 1739   0.430   5.967   5.293 -0.1364 -0.9479  0.0805
    2MOL   C658 1740   0.505   6.032   5.390 -0.6946 -0.0569  0.5783
    2MOL   C659 1741   0.573   6.152   5.359  0.5037  0.6400 -1.3045
    2MOL   C660 1742   0.550   6.209   5.231 -0.3363  0.7235  1.0869
    2MOL   O661 1743   0.615   6.323   5.202 -0.6862 -0.0837 -0.0542
    2MOL   C662 1744   0.743   6.329   5.148  1.1289  0.3472 -0.5844
    2MOL   C663 1745   0.790   6.235   5.059  0.0113  0.5420  0.8004
    2MOL   C664 1746   0.926   6.243   5.011 -0.8564 -0.0201 -1.0525
    2MOL   C665 1747   1.013   6.344   5.064 -0.0505  0.4492  0.3580
    2MOL   C666 1748   1.162   6.345   5.030  0.0555  0.0687 -1.1706
    2MOL   C667 1749   1.245   6.474   5.075 -0.2282 -0.3874  0.1448
    2MOL   C668 1750   1.225   6.223   5.099 -0.1811  0.1819 -0.6077
    2MOL   C669 1751   1.181   6.332   4.883  0.6023  0.3024  1.0388
    2MOL   C670 1752   1.104   6.418   4.800  0.5364 -0.3776 -0.0525
    2MOL   C671 1753   1.115   6.404   4.660  0.1887 -0.0892  0.1555
    2MOL   C672 1754   1.192   6.311   4.593  0.6640 -0.1986  0.2717
    2MOL   O673 1755   1.197   6.312   4.456 -0.1811  0.9607  0.1437
    2MOL   C674 1756   1.270   6.226   4.679  0.0903 -1.3471 -0.1610
    2MOL   C675 1757   1.258   6.233   4.822 -0.4180 -0.6539  0.7418
    2MOL   C676 1758   0.957   6.438   5.157  0.3154  0.2073  0.7403
    2MOL   C677 1759   0.827   6.431   5.195  0.0285  0.3023 -0.0999
    2MOL   C678 1760   0.467   6.143   5.137 -0.3426 -0.1395 -0.0766
    2MOL   C679 1761   0.407   6.020   5.164 -0.0827 -0.6661  0.0739
    2MOL   C680 1762   0.559   5.713   5.135 -1.0069 -0.8205 -0.0001
    2MOL   C681 1763   0.634   5.615   5.068 -0.5397 -0.4507 -0.1401
    2MOL   H682 1764   0.570   5.344   5.254 -2.5355 -0.6283 -2.6033
    2MOL   H683 1765   0.429   5.500   5.379 -1.9847 -0.0330 -1.6364
    2MOL   H684 1766   0.520   5.974   5.480  0.7098 -1.1406 -0.3377
    2MOL   H685 1767   0.636   6.206   5.429 -2.7531  3.2414 -0.2202
    2MOL   H686 1768   0.729   6.154   5.020  0.2334  0.7352  0.0506
    2MOL   H687 1769   0.960   6.161   4.949  1.4751 -0.7736  1.1141
    2MOL   H688 1770   1.212   6.565   5.024  0.4735  0.0313  0.4334
    2MOL   H689 1771   1.351   6.471   5.049 -0.7372 -0.3899 -1.9909
    2MOL   H690 1772   1.240   6.497   5.181  1.3402 -0.0497  0.1607
    2MOL   H691 1773   1.331   6.211   5.075 -0.0412  1.0956 -0.4740
    2MOL   H692 1774   1.212   6.211   5.206 -0.4570  0.7476 -0.5751
    2MOL   H693 1775   1.182   6.128   5.066  1.3657 -0.6221 -0.3558
    2MOL   H694 1776   1.030   6.489   4.836  0.5756 -0.9252  1.1239
    2MOL   H695 1777   1.053   6.468   4.598  2.4740  1.1231 -0.9612
    2MOL   H696 1778   1.345   6.159   4.639  1.5951 -0.0539  0.4287
    2MOL   H697 1779   1.324   6.169   4.879  0.3690 -1.6264 -1.1947
    2MOL   H698 1780   1.013   6.526   5.185 -0.0863  0.9354 -0.6934
    2MOL   H699 1781   0.786   6.499   5.268 -1.3391 -0.2840 -0.2927
    2MOL   H700 1782   0.448   6.176   5.036 -0.9293 -0.8180 -0.1887
    2MOL   H701 1783   0.332   5.976   5.099 -0.1823 -1.2887  0.6049
    2MOL   H702 1784   0.557   5.813   5.095 -2.4414  0.1216  2.3210
    2MOL   H703 1785   0.704   5.640   4.990  0.9284  0.4923  1.4429
    2MOL   C704 1786   1.318   6.313   4.384  0.3016  0.5049 -0.6127
    2MOL   C705 1787   1.312   6.286   4.247 -0.5606  1.0500  0.8047
    2MOL   C706 1788   1.435   6.265   4.184 -0.1246 -0.1263  0.1825
    2MOL   C707 1789   1.560   6.280   4.251  0.0048  0.0719 -0.2003
    2MOL   S708 1790   1.719   6.243   4.174 -0.2252 -0.2490 -0.0235
    2MOL   O709 1791   1.826   6.329   4.229 -0.4078  0.5310 -0.5992
    2MOL   O710 1792   1.691   6.250   4.027 -0.2963  0.4247  0.1832
    2MOL   C711 1793   1.750   6.073   4.215 -0.3085 -0.3068 -0.0709
    2MOL   C712 1794   1.879   6.018   4.252 -1.1325  0.2885  0.1861
    2MOL   C713 1795   1.903   5.883   4.285  0.4494 -0.3695  0.1509
    2MOL   C714 1796   1.787   5.794   4.285 -0.2764  0.7400  0.0055
    2MOL   O715 1797   1.822   5.664   4.313  0.9125 -0.5984 -1.0222
    2MOL   C716 1798   1.810   5.617   4.437  0.1308 -0.8488  0.1086
    2MOL   C717 1799   1.701   5.657   4.517  0.1150  0.2066 -0.0656
    2MOL   C718 1800   1.705   5.629   4.658 -0.3541  0.4102 -0.0410
    2MOL   C719 1801   1.817   5.559   4.715 -0.1319  0.4052  0.3253
    2MOL   C720 1802   1.829   5.510   4.863 -0.0374 -0.1029 -0.3669
    2MOL   C721 1803   1.712   5.559   4.947  0.4323 -0.4941  0.0690
    2MOL   C722 1804   1.818   5.357   4.855 -0.1750  0.9660 -0.1928
    2MOL   C723 1805   1.963   5.556   4.920 -0.1900 -0.5423 -0.2161
    2MOL   C724 1806   2.054   5.463   4.976 -0.1167  0.7378  0.5249
    2MOL   C725 1807   2.175   5.513   5.026 -0.0548 -0.2855 -0.1655
    2MOL   C726 1808   2.218   5.648   5.022 -0.0161  0.5406  0.2935
    2MOL   O727 1809   2.321   5.690   5.093 -0.5461  0.5604  0.0422
    2MOL   C728 1810   2.135   5.737   4.954  0.1102  0.3562 -0.2265
    2MOL   C729 1811   2.013   5.691   4.902  0.4974 -0.0522 -0.0673
    2MOL   C730 1812   1.921   5.517   4.630 -0.6057  0.3905  0.2318
    2MOL   C731 1813   1.920   5.548   4.491 -0.2806  0.5412 -0.8422
    2MOL   C732 1814   1.656   5.835   4.250 -0.1216 -0.0875 -0.4255
    2MOL   C733 1815   1.648   5.973   4.215  0.8884  1.2006  0.0881
    2MOL   C734 1816   1.561   6.326   4.387 -0.1262  0.3098 -0.5947
    2MOL   C735 1817   1.438   6.341   4.453  0.5287  0.3074 -0.1404
    2MOL   H736 1818   1.222   6.265   4.191  0.8429  1.7048 -1.7613
    2MOL   H737 1819   1.438   6.228   4.083  0.8299  0.5642 -0.0525
    2MOL   H738 1820   1.965   6.083   4.255 -1.1785  0.3962 -0.7048
    2MOL   H739 1821   2.006   5.855   4.296  1.4527  1.8875 -2.8810
    2MOL   H740 1822   1.612   5.701   4.474  0.0421  1.7777  1.6468
    2MOL   H741 1823   1.615   5.643   4.717 -1.1144 -0.0508 -1.0881
    2MOL   H742 1824   1.719   5.667   4.961 -2.6984 -0.2984  0.4299
    2MOL   H743 1825   1.708   5.515   5.046  0.1507  0.6270  0.5705
    2MOL   H744 1826   1.617   5.532   4.901 -0.7682  0.0086  2.2034
    2MOL   H745 1827   1.899   5.306   4.803 -0.2789 -0.4062  0.9476
    2MOL   H746 1828   1.836   5.323   4.957  0.6916 -1.3000 -1.0756
    2MOL   H747 1829   1.722   5.314   4.827 -0.2676  0.9140  0.2035
    2MOL   H748 1830   2.036   5.358   4.995 -0.3877  1.1254  2.4603
    2MOL   H749 1831   2.238   5.448   5.085  0.9849  1.4563  0.6833
    2MOL   H750 1832   2.154   5.843   4.966 -0.1958  0.2587  1.1951
    2MOL   H751 1833   1.951   5.764   4.853  0.3505  0.1687  0.4414
    2MOL   H752 1834   2.013   5.469   4.660 -1.2987 -0.8026  0.5018
    2MOL   H753 1835   2.007   5.517   4.435  1.5203 -0.2388  2.2768
    2MOL   H754 1836   1.573   5.766   4.261 -0.0502  0.1881  2.0113
    2MOL   H755 1837   1.547   5.997   4.186 -0.5397 -0.2094  3.5862
    2MOL   H756 1838   1.654   6.333   4.441 -0.4352 -0.2583  0.0100
    2MOL   H757 1839   1.438   6.370   4.557  2.5183  1.8614 -0.5495
    2MOL   C758 1840   2.300   5.764   5.203  0.0274 -0.1048 -0.0041
    2MOL   C759 1841   2.215   5.717   5.311  0.1727  0.5167  0.2491
    2MOL   C760 1842   2.188   5.802   5.417  0.4840  0.0552  0.0282
    2MOL   C761 1843   2.237   5.930   5.429  0.2954 -0.2751 -0.5289
    2MOL   S762 1844   2.197   6.042   5.569  0.0175  0.2929  0.2264
    2MOL   O763 1845   2.053   6.080   5.549  0.2604  0.1402 -0.0821
    2MOL   O764 1846   2.302   6.146   5.583  0.3100  0.1930  0.4082
    2MOL   C765 1847   2.189   5.944   5.722  0.2195 -0.1912  0.1141
    2MOL   C766 1848   2.254   5.823   5.735 -0.3595 -0.0790  0.3618
    2MOL   C767 1849   2.242   5.744   5.850 -0.3795  0.5145  0.3006
    2MOL   C768 1850   2.169   5.794   5.956 -0.2469 -0.1332  0.0055
    2MOL   O769 1851   2.155   5.725   6.068 -0.8838 -0.5739 -0.3081
    2MOL   C770 1852   2.032   5.667   6.088 -0.3154 -1.0088 -0.3755
    2MOL   C771 1853   1.953   5.717   6.189 -0.4467  0.5909  0.4405
    2MOL   C772 1854   1.831   5.659   6.222 -0.7207 -0.3510  0.8460
    2MOL   C773 1855   1.789   5.543   6.151 -0.4791  0.0073 -0.1262
    2MOL   C774 1856   1.662   5.462   6.189 -0.4538 -0.1520 -1.1192
    2MOL   C775 1857   1.732   5.333   6.245 -0.4135 -0.5520  0.3371
    2MOL   C776 1858   1.580   5.529   6.306  0.0392 -0.8303  0.5761
    2MOL   C777 1859   1.574   5.444   6.068  0.4425 -0.6231  0.8890
    2MOL   C778 1860   1.512   5.558   6.010  0.1257 -0.3095  0.5483
    2MOL   C779 1861   1.418   5.539   5.902  0.1594 -0.2485 -0.0744
    2MOL   C780 1862   1.411   5.414   5.834 -0.3682 -0.2438  0.4344
    2MOL   O781 1863   1.329   5.406   5.723  0.0475  0.0628  0.3470
    2MOL   C782 1864   1.481   5.299   5.889  0.0247 -0.0371  0.0339
    2MOL   C783 1865   1.556   5.317   6.005 -0.5931  0.0381 -0.0749
    2MOL   C784 1866   1.863   5.502   6.038 -0.3745  0.3551 -0.2747
    2MOL   C785 1867   1.985   5.562   6.003 -0.3155 -0.1544 -0.2245
    2MOL   C786 1868   2.097   5.915   5.948 -0.3723  0.8767  0.4924
    2MOL   C787 1869   2.110   5.987   5.828  0.4995 -0.2260 -0.4505
    2MOL   C788 1870   2.317   5.980   5.324 -0.3036  0.6667 -0.2925
    2MOL   C789 1871   2.356   5.894   5.216  1.0322  0.3636 -0.2539
    2MOL   H790 1872   2.176   5.617   5.309 -2.5185  1.5330 -0.3768
    2MOL   H791 1873   2.124   5.764   5.496 -1.6416  0.8760 -1.2342
    2MOL   H792 1874   2.311   5.778   5.655  2.5628  3.1679  0.5295
    2MOL   H793 1875   2.280   5.643   5.849 -0.0855  0.5877  2.4117
    2MOL   H794 1876   1.987   5.795   6.256  1.6980  1.1409 -1.2494
    2MOL   H795 1877   1.769   5.700   6.301 -0.5555  1.4266  0.0793
    2MOL   H796 1878   1.809   5.363   6.316 -0.1795 -1.2335  0.3699
    2MOL   H797 1879   1.769   5.267   6.167 -0.6947  0.2771 -0.5118
    2MOL   H798 1880   1.666   5.264   6.298 -1.3555 -0.4832 -0.7327
    2MOL   H799 1881   1.634   5.539   6.400  0.0286 -0.3876  0.5387
    2MOL   H800 1882   1.534   5.622   6.270  0.3965 -2.0170 -3.1455
    2MOL   H801 1883   1.492   5.468   6.328  0.5167 -1.0829  1.7804
    2MOL   H802 1884   1.514   5.659   6.049 -1.6248  0.6601 -1.7565
    2MOL   H803 1885   1.362   5.622   5.861  1.4672  1.1679  0.9633
    2MOL   H804 1886   1.482   5.200   5.847 -0.2869 -0.0031 -0.0563
    2MOL   H805 1887   1.601   5.225   6.039 -0.4278  0.3566  0.5857
    2MOL   H806 1888   1.835   5.411   5.987 -0.9091 -1.9450  3.8985
    2MOL   H807 1889   2.038   5.530   5.915  1.1007  2.0585 -0.2227
    2MOL   H808 1890   2.024   5.952   6.018 -0.5768 -0.8607  1.2238
    2MOL   H809 1891   2.066   6.086   5.826  2.5691  0.7123 -0.3531
    2MOL   H810 1892   2.349   6.083   5.335  0.6287  0.3864 -0.3459
    2MOL   H811 1893   2.421   5.941   5.144  1.7744  2.6276  1.8158
    2MOL   C812 1894   1.310   5.288   5.663  0.2513  1.0473  0.1726
    2MOL   C813 1895   1.369   5.274   5.534 -0.0174  0.0491 -0.4447
    2MOL   C814 1896   1.362   5.152   5.465  0.3217  0.1796 -0.6247
    2MOL   C815 1897   1.289   5.045   5.516 -0.6995 -0.1225 -0.4872
    2MOL   S816 1898   1.305   4.881   5.449  0.1164  0.0840 -0.0380
    2MOL   O817 1899   1.445   4.839   5.477  0.1684 -0.3853  0.0080
    2MOL   O818 1900   1.260   4.885   5.310 -0.0155 -0.1554 -0.0239
    2MOL   C819 1901   1.201   4.756   5.533 -0.1473 -0.2078 -0.1607
    2MOL   C820 1902   1.068   4.774   5.562  0.0861  0.7383 -0.1832
    2MOL   C821 1903   0.992   4.658   5.601 -0.1512  0.1214 -0.5342
    2MOL   C822 1904   1.053   4.529   5.607  0.5388 -0.4954  0.2699
    2MOL   O823 1905   0.972   4.427   5.651 -0.6886  0.5349 -0.1971
    2MOL   C824 1906   0.901   4.353   5.560 -0.0818 -0.1178 -0.1479
    2MOL   C825 1907   0.778   4.399   5.510 -0.4641 -0.6623 -0.1142
    2MOL   C826 1908   0.716   4.324   5.411  0.7393  0.0144 -0.7268
    2MOL   C827 1909   0.759   4.193   5.370  0.1203  0.2924  0.2471
    2MOL   C828 1910   0.681   4.114   5.261  0.1695  0.6345  0.6282
    2MOL   C829 1911   0.716   3.966   5.249 -0.0394  0.8625 -0.0202
    2MOL   C830 1912   0.527   4.126   5.306 -0.1580  0.5941  0.7138
    2MOL   C831 1913   0.709   4.178   5.131 -0.4392 -0.1348  0.2757
    2MOL   C832 1914   0.611   4.200   5.027 -0.2638  0.1765 -0.2669
    2MOL   C833 1915   0.647   4.268   4.911  0.2757  0.2550  0.6761
    2MOL   C834 1916   0.772   4.331   4.892  0.4631 -0.8661 -0.3220
    2MOL   O835 1917   0.787   4.407   4.772  0.1923 -0.0155 -0.2934
    2MOL   C836 1918   0.875   4.307   4.986 -0.2523 -0.3212  0.1956
    2MOL   C837 1919   0.838   4.228   5.098  0.2049  0.3083 -0.4003
    2MOL   C838 1920   0.875   4.141   5.438  0.0884 -0.0443  0.3324
    2MOL   C839 1921   0.943   4.222   5.532  0.0847  0.2547 -0.4235
    2MOL   C840 1922   1.184   4.512   5.572 -0.1603 -0.1267  0.0907
    2MOL   C841 1923   1.259   4.629   5.541 -0.3996  0.0100  0.1045
    2MOL   C842 1924   1.223   5.056   5.641  0.0675  0.2963  0.4246
    2MOL   C843 1925   1.245   5.174   5.718  0.6113  0.4190  0.3769
    2MOL   H844 1926   1.430   5.351   5.488  0.6936 -0.2079  0.0611
    2MOL   H845 1927   1.413   5.150   5.370 -0.3617 -1.3951 -0.9749
    2MOL   H846 1928   1.023   4.871   5.547 -0.6167  0.4528  0.0221
    2MOL   H847 1929   0.885   4.676   5.611 -0.1354  0.6089 -1.2111
    2MOL   H848 1930   0.738   4.495   5.541  0.7534  0.0073 -0.5567
    2MOL   H849 1931   0.631   4.374   5.367  1.1257  0.3541 -1.0810
    2MOL   H850 1932   0.653   3.904   5.185  0.7547 -1.3833  1.3191
    2MOL   H851 1933   0.721   3.911   5.343 -0.5887  1.9366  0.6475
    2MOL   H852 1934   0.807   3.949   5.193  0.5347 -0.1570  1.1975
    2MOL   H853 1935   0.488   4.228   5.307 -0.6758  0.4109 -0.1008
    2MOL   H854 1936   0.452   4.081   5.241  0.1991  0.6616  0.2472
    2MOL   H855 1937   0.499   4.068   5.393 -2.0397 -0.7706 -0.7520
    2MOL   H856 1938   0.508   4.168   5.035  0.2091 -0.8888  1.8261
    2MOL   H857 1939   0.567   4.284   4.840  0.5555 -0.0492  0.2860
    2MOL   H858 1940   0.973   4.347   4.965 -0.9954  1.3719 -0.1377
    2MOL   H859 1941   0.907   4.208   5.179  0.1883  2.1455  0.1096
    2MOL   H860 1942   0.907   4.042   5.409  1.5077  0.8256 -1.1684
    2MOL   H861 1943   1.025   4.171   5.580 -0.2299 -0.9414 -1.1392
    2MOL   H862 1944   1.219   4.410   5.565 -3.4496 -1.3938  1.1974
    2MOL   H863 1945   1.361   4.618   5.507 -0.3498  0.1069  0.2248
    2MOL   H864 1946   1.172   4.971   5.684 -0.1595 -0.7516 -1.8467
    2MOL   H865 1947   1.207   5.191   5.817  0.6632  0.3089  0.4155
    2MOL   C866 1948   0.895   4.381   4.696 -0.1638 -0.3512  0.6265
    2MOL   C867 1949   0.917   4.255   4.630  0.6064  0.0551  0.4613
    2MOL   C868 1950   1.029   4.236   4.546  0.0607  0.1862 -0.0283
    2MOL   C869 1951   1.115   4.338   4.521 -0.3525  0.4504 -0.2643
    2MOL   S870 1952   1.254   4.323   4.417 -0.4438  0.2355 -0.4396
    2MOL   O871 1953   1.231   4.415   4.308 -0.3076 -0.7054 -0.4009
    2MOL   O872 1954   1.286   4.184   4.386  0.3888  0.6976 -0.1706
    2MOL   C873 1955   1.390   4.381   4.530 -0.3327 -1.3270  0.4282
    2MOL   C874 1956   1.453   4.289   4.619  0.4545  0.8812 -0.2042
    2MOL   C875 1957   1.557   4.333   4.700  0.2076 -0.0271  0.6419
    2MOL   C876 1958   1.592   4.467   4.711  0.2518  0.0892  0.0713
    2MOL   O877 1959   1.678   4.510   4.806 -0.2943 -0.1129 -0.0989
    2MOL   C878 1960   1.812   4.540   4.776 -0.8271 -0.2617  1.0730
    2MOL   C879 1961   1.849   4.638   4.683  0.1169  0.5645 -0.3138
    2MOL   C880 1962   1.983   4.650   4.640  0.0883  0.3862  0.6172
    2MOL   C881 1963   2.085   4.560   4.691 -0.3981  0.1789 -0.2660
    2MOL   C882 1964   2.227   4.556   4.629  0.0015  0.6537  0.3610
    2MOL   C883 1965   2.303   4.687   4.676 -0.2035  0.2287 -0.7041
    2MOL   C884 1966   2.319   4.429   4.668 -0.1924  0.3888 -0.3376
    2MOL   C885 1967   2.218   4.557   4.473 -0.1717 -0.6479 -1.0175
    2MOL   C886 1968   2.266   4.667   4.392  0.4472  0.0816 -0.4294
    2MOL   C887 1969   2.249   4.667   4.256  0.1932 -0.0529 -0.5558
    2MOL   C888 1970   2.190   4.559   4.191 -0.0237 -0.0873 -0.3254
    2MOL   O889 1971   2.200   4.549   4.053  0.2266  0.0484  0.0787
    2MOL   C890 1972   2.148   4.444   4.268 -0.6839 -0.1265  0.4415
    2MOL   C891 1973   2.152   4.451   4.406 -0.8792  0.1473 -0.3159
    2MOL   C892 1974   2.045   4.473   4.795  0.4135 -0.3390 -0.3551
    2MOL   C893 1975   1.912   4.466   4.841  0.0663 -0.0972  0.4254
    2MOL   C894 1976   1.524   4.558   4.627  0.0304  0.6143  0.2248
    2MOL   C895 1977   1.427   4.521   4.535 -0.4347 -0.0187  0.0555
    2MOL   C896 1978   1.095   4.464   4.581  0.4677 -0.6856 -0.2901
    2MOL   C897 1979   0.986   4.485   4.667  1.0706  0.1076  0.1696
    2MOL   H898 1980   0.843   4.180   4.652 -0.8558  1.3374  0.0271
    2MOL   H899 1981   1.048   4.137   4.506 -1.1964  0.2734 -0.8627
    2MOL   H900 1982   1.418   4.187   4.614 -0.9710  1.1803  2.7986
    2MOL   H901 1983   1.607   4.263   4.765  0.4048  1.1880  1.8308
    2MOL   H902 1984   1.786   4.700   4.622 -0.4721 -1.5992 -1.9583
    2MOL   H903 1985   2.000   4.726   4.565 -3.6347 -0.5102 -1.2468
    2MOL   H904 1986   2.238   4.774   4.666  0.5479  0.7220 -1.2814
    2MOL   H905 1987   2.404   4.691   4.636  0.5798 -0.5676  1.1281
    2MOL   H906 1988   2.324   4.686   4.783  0.3125  2.3544 -0.7651
    2MOL   H907 1989   2.271   4.341   4.627  1.1317  0.8031 -2.8563
    2MOL   H908 1990   2.421   4.442   4.633 -0.0269  0.9947  0.3399
    2MOL   H909 1991   2.331   4.431   4.777  1.1538 -3.2903 -0.3675
    2MOL   H910 1992   2.310   4.757   4.432  1.7010 -1.0254  0.7428
    2MOL   H911 1993   2.286   4.748   4.196 -0.5929 -0.5536 -1.7300
    2MOL   H912 1994   2.099   4.360   4.221  0.5299  0.5713 -2.1770
    2MOL   H913 1995   2.114   4.365   4.458 -3.3900 -0.1909 -2.5942
    2MOL   H914 1996   2.121   4.410   4.838  0.4188 -0.4812 -0.5730
    2MOL   H915 1997   1.878   4.398   4.918 -2.2954  0.1165 -0.4173
    2MOL   H916 1998   1.530   4.665   4.641  1.1476  0.4795  0.8640
    2MOL   H917 1999   1.398   4.595   4.462 -1.0901 -0.3979 -0.0695
    2MOL   H918 2000   1.159   4.549   4.562  1.6643 -1.2917  0.9123
    2MOL   H919 2001   0.988   4.583   4.713  0.4027 -0.6064  1.7518
    2MOL   C920 2002   2.091   4.578   3.976 -0.1731 -0.7018  0.4882
    2MOL   C921 2003   2.093   4.515   3.851 -0.2354 -0.8185 -0.1729
    2MOL   C922 2004   1.994   4.545   3.751 -0.1432  1.4962  0.3362
    2MOL   C923 2005   1.890   4.631   3.790  0.1671  0.5187  0.2693
    2MOL   S924 2006   1.751   4.654   3.678  0.0316  0.6856  0.0400
    2MOL   O925 2007   1.805   4.661   3.540  0.1139  0.3990 -0.6737
    2MOL   O926 2008   1.664   4.759   3.740 -0.5188  0.5976  0.4449
    2MOL   C927 2009   1.652   4.503   3.677 -0.7473  0.6628  0.2967
    2MOL   C928 2010   1.544   4.496   3.589 -0.0335  0.7949  0.6400
    2MOL   C929 2011   1.451   4.387   3.582 -0.1177  0.6392 -0.2229
    2MOL   C930 2012   1.473   4.278   3.668  0.4350 -0.0688  0.0978
    2MOL   O931 2013   1.380   4.177   3.669 -0.3646  0.5614 -0.2660
    2MOL   C932 2014   1.345   4.111   3.781 -0.3407 -0.3454  0.1017
    2MOL   C933 2015   1.301   3.981   3.751  0.6022  0.2722  0.1026
    2MOL   C934 2016   1.253   3.900   3.856 -0.3853 -0.4959 -1.0438
    2MOL   C935 2017   1.256   3.943   3.988  0.2524 -0.0204 -0.5722
    2MOL   C936 2018   1.187   3.860   4.098 -0.2379  0.3031 -0.7712
    2MOL   C937 2019   1.227   3.713   4.075 -0.4809 -0.6550 -0.2746
    2MOL   C938 2020   1.234   3.901   4.243 -0.1272 -0.0385  0.1346
    2MOL   C939 2021   1.034   3.872   4.085 -0.0473  0.2127  0.0236
    2MOL   C940 2022   0.949   3.762   4.109  0.4996 -0.0611  0.1581
    2MOL   C941 2023   0.812   3.772   4.078 -0.0197 -0.2559  0.2406
    2MOL   C942 2024   0.752   3.902   4.064  0.0711  0.1579  0.5591
    2MOL   O943 2025   0.616   3.902   4.054 -0.3714  0.0167  0.2868
    2MOL   C944 2026   0.834   4.015   4.077  0.7512  0.7421 -0.4276
    2MOL   C945 2027   0.973   4.000   4.077 -0.3347 -0.1524 -0.3823
    2MOL   C946 2028   1.307   4.073   4.018  0.1536  0.2896  0.5194
    2MOL   C947 2029   1.349   4.154   3.915 -0.1692 -0.2974  0.1266
    2MOL   C948 2030   1.580   4.285   3.763  0.3672 -0.3429  0.5508
    2MOL   C949 2031   1.670   4.388   3.761 -0.1052 -0.9201  0.0734
    2MOL   C950 2032   1.894   4.690   3.924  0.5429  0.1860  0.6288
    2MOL   C951 2033   2.002   4.671   4.014  0.6634 -0.4066  0.9258
    2MOL   H952 2034   2.173   4.446   3.831  0.3369 -0.5219  1.0342
    2MOL   H953 2035   2.013   4.496   3.656 -0.3469  1.6668  0.2068
    2MOL   H954 2036   1.538   4.585   3.528 -1.4667  0.8279  0.8196
    2MOL   H955 2037   1.367   4.390   3.514 -1.0092 -0.5389  0.7989
    2MOL   H956 2038   1.299   3.941   3.651 -0.7581  0.2737  0.1230
    2MOL   H957 2039   1.220   3.803   3.822  0.2085 -0.8475 -0.6113
    2MOL   H958 2040   1.335   3.712   4.058 -0.4663  0.9340 -0.3212
    2MOL   H959 2041   1.186   3.665   3.985  0.2459 -1.5653 -0.1390
    2MOL   H960 2042   1.205   3.652   4.162  3.4438 -0.8261  0.7030
    2MOL   H961 2043   1.342   3.885   4.253  0.2639  1.0400 -2.0810
    2MOL   H962 2044   1.205   4.001   4.275  1.1355  0.9966 -1.8194
    2MOL   H963 2045   1.193   3.821   4.304  2.5438 -1.3188  0.3537
    2MOL   H964 2046   0.988   3.664   4.133 -0.6927 -0.8059 -0.8999
    2MOL   H965 2047   0.768   3.673   4.073 -0.2456 -0.0822 -1.9868
    2MOL   H966 2048   0.801   4.118   4.075 -0.7443  0.5165  5.1970
    2MOL   H967 2049   1.033   4.090   4.073 -2.0817  1.0671  0.4429
    2MOL   H968 2050   1.311   4.117   4.117 -0.2468  1.5294 -0.0063
    2MOL   H969 2051   1.392   4.252   3.930  1.4881 -1.1579  1.0034
    2MOL   H970 2052   1.607   4.203   3.828 -0.6954 -1.4139 -0.3316
    2MOL   H971 2053   1.761   4.384   3.820 -0.3399 -0.5387  0.4620
    2MOL   H972 2054   1.812   4.758   3.943 -0.3525 -0.2143 -1.6964
    2MOL   H973 2055   1.999   4.721   4.110 -1.7462 -0.4805  0.9182
    2MOL   C974 2056   0.555   3.988   3.973 -0.3227 -0.3792  0.2915
    2MOL   C975 2057   0.554   3.971   3.829  0.1875 -0.2238  0.0415
    2MOL   C976 2058   0.485   4.070   3.758  0.9713  0.4182 -0.7041
    2MOL   C977 2059   0.427   4.184   3.820 -0.3167  0.5351 -0.0246
    2MOL   S978 2060   0.341   4.304   3.718 -0.0182 -0.3272 -0.2546
    2MOL   O979 2061   0.257   4.382   3.809  0.1257 -0.2214 -0.4762
    2MOL   O980 2062   0.288   4.230   3.607  0.0829 -0.1794  0.0374
    2MOL   C981 2063   0.468   4.406   3.656  0.6403 -0.9337  0.4275
    2MOL   C982 2064   0.592   4.414   3.721 -0.2143  0.4079 -0.0444
    2MOL   C983 2065   0.685   4.501   3.665 -0.0475 -0.2148 -0.4827
    2MOL   C984 2066   0.655   4.592   3.557 -0.4653 -0.3031  0.1038
    2MOL   O985 2067   0.748   4.683   3.517  0.2542 -0.0563  0.4617
    2MOL   C986 2068   0.758   4.791   3.601 -0.2381  0.3943 -0.4103
    2MOL   C987 2069   0.874   4.870   3.591 -0.4803  1.4145  0.3597
    2MOL   C988 2070   0.897   4.983   3.674  0.3578 -0.5313  0.5414
    2MOL   C989 2071   0.802   5.016   3.777  0.4324  0.1560  0.2856
    2MOL   C990 2072   0.840   5.122   3.873  0.3077 -0.5484  0.6741
    2MOL   C991 2073   0.745   5.127   3.992 -0.2864 -0.8906 -0.2784
    2MOL   C992 2074   0.971   5.083   3.945  0.6850 -0.6166 -0.6533
    2MOL   C993 2075   0.842   5.254   3.795  0.2485 -0.8907 -0.0265
    2MOL   C994 2076   0.719   5.287   3.733 -0.5662 -0.2261  0.0912
    2MOL   C995 2077   0.710   5.415   3.665  0.6645 -0.2110  0.0706
    2MOL   C996 2078   0.820   5.501   3.664  0.1508  0.0008  0.2820
    2MOL   O997 2079   0.806   5.633   3.617  0.0231  0.2539 -0.0139
    2MOL   C998 2080   0.942   5.458   3.711  0.7711  0.2443  0.4898
    2MOL   C999 2081   0.953   5.343   3.784  0.6998 -0.2333 -0.0566
    2MOL     C1 2082   0.686   4.939   3.777 -0.1073  0.3661 -0.0161
    2MOL     C2 2083   0.658   4.834   3.690  0.1659 -0.2993 -0.0320
    2MOL     C3 2084   0.530   4.583   3.487 -0.0163 -0.2708  0.2557
    2MOL     C4 2085   0.435   4.493   3.547  0.1414 -0.5359  0.5969
    2MOL     C5 2086   0.434   4.199   3.956 -0.2324 -0.3580 -0.0150
    2MOL     C6 2087   0.499   4.103   4.034  0.0401 -0.5745  0.6632
    2MOL     H7 2088   0.603   3.883   3.790  1.5588  0.3322  0.4971
    2MOL     H8 2089   0.482   4.062   3.650 -1.6077  2.4250 -0.8353
    2MOL     H9 2090   0.620   4.349   3.803  0.5601 -0.6937 -1.1547
    2MOL    H10 2091   0.789   4.492   3.692  0.2667 -0.9495 -1.9001
    2MOL    H11 2092   0.942   4.845   3.511 -0.5225 -0.1807  0.7964
    2MOL    H12 2093   0.989   5.033   3.650 -0.8191  1.6323  0.3115
    2MOL    H13 2094   0.726   5.027   4.032 -2.9811 -0.0411  0.6805
    2MOL    H14 2095   0.659   5.182   3.953  0.0387 -1.7966 -2.2912
    2MOL    H15 2096   0.783   5.192   4.072  1.8638 -2.7376  0.2405
    2MOL    H16 2097   0.969   5.000   4.016 -0.5671  0.9844  1.2252
    2MOL    H17 2098   1.054   5.066   3.876  0.5077 -1.1121 -0.7532
    2MOL    H18 2099   0.998   5.167   4.008  2.0122 -2.6060  1.5178
    2MOL    H19 2100   0.630   5.227   3.746  0.6093 -1.5052  2.4863
    2MOL    H20 2101   0.612   5.444   3.631  1.0746 -0.6856 -1.6074
    2MOL    H21 2102   1.032   5.516   3.715 -0.5818  2.4124  0.4752
    2MOL    H22 2103   1.052   5.326   3.823  1.6984  1.0627 -1.9637
    2MOL    H23 2104   0.614   4.967   3.853  0.5850  1.1178  0.3776
    2MOL    H24 2105   0.565   4.779   3.692 -0.9735  1.4810 -2.2271
    2MOL    H25 2106   0.498   4.651   3.410  3.3625 -0.4705 -1.4287
    2MOL    H26 2107   0.336   4.509   3.508 -0.1919 -1.6253  0.9906
    2MOL    H27 2108   0.399   4.290   4.002  2.2091  0.1822  0.8519
    2MOL    H28 2109   0.505   4.124   4.140  2.2170  1.2739  0.2080
    2MOL    C29 2110   0.806   5.656   3.484 -0.0870 -0.1653 -0.9708
    2MOL    C30 2111   0.848   5.783   3.433 -0.3410 -0.0412 -0.9553
    2MOL    C31 2112   0.839   5.810   3.295 -0.1905 -0.4661  0.0513
    2MOL    C32 2113   0.783   5.711   3.210 -0.3566 -0.8717 -0.0514
    2MOL    S33 2114   0.759   5.748   3.032 -0.1812  0.1642 -0.1003
    2MOL    O34 2115   0.762   5.614   2.958  0.1775  0.0546 -0.0667
    2MOL    O35 2116   0.844   5.865   2.990 -0.2750 -0.0469 -0.2790
    2MOL    C36 2117   0.584   5.803   3.018 -0.4249 -0.3640 -0.7184
    2MOL    C37 2118   0.481   5.730   3.093 -0.0914 -0.2744  0.1217
    2MOL    C38 2119   0.349   5.765   3.075  0.2928 -0.3077  0.8520
    2MOL    C39 2120   0.312   5.865   2.984 -0.9517  0.0890  0.2817
    2MOL    O40 2121   0.177   5.896   2.978  0.3101  0.2069  0.8692
    2MOL    C41 2122   0.114   5.888   2.853  0.0057  0.2824  0.1210
    2MOL    C42 2123   0.035   5.999   2.811 -0.4859  0.0190 -0.1884
    2MOL    C43 2124   8.232   6.001   2.680  0.5176  0.1915  0.0521
    2MOL    C44 2125   0.010   5.895   2.591  0.4839 -0.4345 -0.7609
    2MOL    C45 2126   8.197   5.885   2.457  0.1965  0.1229 -0.2148
    2MOL    C46 2127   0.053   5.886   2.346  0.1238 -0.1583 -0.1297
    2MOL    C47 2128   8.138   5.745   2.442  0.0671 -0.4990  0.3979
    2MOL    C48 2129   8.095   6.000   2.424  0.2746  0.2802 -1.1326
    2MOL    C49 2130   8.135   6.131   2.391 -0.0581 -0.1427  0.0183
    2MOL    C50 2131   8.043   6.229   2.359 -0.4855  0.2490 -0.4621
    2MOL    C51 2132   7.906   6.203   2.351  0.5194 -0.2156  0.4497
    2MOL    O52 2133   7.808   6.290   2.305  0.1340 -0.0560 -0.0987
    2MOL    C53 2134   7.862   6.073   2.390 -0.6641 -0.4250  0.0204
    2MOL    C54 2135   7.951   5.974   2.423  0.2051 -1.1351 -1.1015
    2MOL    C55 2136   0.094   5.792   2.634 -0.0529 -0.3873  1.3738
    2MOL    C56 2137   0.135   5.782   2.764  0.0055 -0.2133 -0.0716
    2MOL    C57 2138   0.412   5.933   2.911  0.4030 -0.6978  0.1856
    2MOL    C58 2139   0.547   5.901   2.925  0.2120  0.6688  0.0512
    2MOL    C59 2140   0.754   5.587   3.252 -0.3170 -0.3410 -0.5148
    2MOL    C60 2141   0.770   5.559   3.387 -0.8745  0.1451  0.1985
    2MOL    H61 2142   0.879   5.861   3.501  0.4491 -0.0139 -1.3429
    2MOL    H62 2143   0.867   5.909   3.264 -0.8232 -1.2827 -3.3453
    2MOL    H63 2144   0.514   5.651   3.158 -0.6660  1.9497  3.2569
    2MOL    H64 2145   0.275   5.708   3.128 -0.0180 -1.9607 -1.2776
    2MOL    H65 2146   0.022   6.081   2.881  0.7072 -0.0182  0.0833
    2MOL    H66 2147   8.165   6.081   2.651 -0.1020 -0.8407 -1.4665
    2MOL    H67 2148   0.006   5.887   2.247 -0.7112 -1.2276  0.2538
    2MOL    H68 2149   0.126   5.805   2.337  2.0234  1.4983 -0.0880
    2MOL    H69 2150   0.117   5.975   2.353  0.9723 -0.8425  1.0406
    2MOL    H70 2151   8.075   5.720   2.527  0.2255  4.1975  2.0819
    2MOL    H71 2152   8.089   5.743   2.345 -2.7727 -1.1401  1.7857
    2MOL    H72 2153   8.225   5.679   2.440  0.1143 -0.4656  1.0038
    2MOL    H73 2154   8.239   6.160   2.390 -0.2437  0.5463  0.6915
    2MOL    H74 2155   8.083   6.326   2.332 -0.6948  0.6149  0.5146
    2MOL    H75 2156   7.756   6.056   2.386 -0.7987 -0.1860  1.9304
    2MOL    H76 2157   7.910   5.881   2.460 -0.4486 -0.5316 -0.2909
    2MOL    H77 2158   0.135   5.719   2.566  2.6875  1.8980  0.4887
    2MOL    H78 2159   0.188   5.696   2.802 -1.1248 -1.3523 -1.0173
    2MOL    H79 2160   0.388   6.019   2.850 -0.5415  0.9240  2.7528
    2MOL    H80 2161   0.620   5.956   2.867  1.1766  0.2978  0.8894
    2MOL    H81 2162   0.705   5.516   3.188 -2.1535 -0.0455  0.5290
    2MOL    H82 2163   0.747   5.454   3.401  1.0295 -0.4332 -0.8346
    2MOL    H83 2164   7.716   6.271   2.317 -0.6149  1.6907 -2.4634
    3MOL     C1 2165   1.114   7.738   3.926  0.1461  0.5535 -0.4889
    3MOL     C2 2166   1.026   7.649   3.991 -0.2616 -0.3050  1.0423
    3MOL     C3 2167   1.058   7.511   4.014 -0.8148  0.0949 -0.0343
    3MOL     C4 2168   1.178   7.455   3.964  0.4631  0.4346 -0.0317
    3MOL     S5 2169   1.223   7.279   3.986  0.0206 -0.0822 -0.2840
    3MOL     O6 2170   1.336   7.244   3.895 -0.3653  0.1764 -0.1398
    3MOL     O7 2171   1.099   7.209   3.969  0.2290  0.1017  0.7657
    3MOL     C8 2172   1.280   7.268   4.156  0.6100  0.3604 -0.6340
    3MOL     C9 2173   1.384   7.355   4.204  0.0062  0.1500 -0.0028
    3MOL    C10 2174   1.428   7.342   4.336  0.4272  0.9631  0.0317
    3MOL    C11 2175   1.362   7.253   4.423  0.2882 -0.4671  0.4835
    3MOL    O12 2176   1.377   7.267   4.556  0.0115  0.0601 -0.1964
    3MOL    C13 2177   1.496   7.224   4.610 -0.2905  0.5377  0.5415
    3MOL    C14 2178   1.530   7.259   4.742 -0.3910  0.3061 -0.0512
    3MOL    C15 2179   1.654   7.222   4.806  0.5117  0.3701  0.0494
    3MOL    C16 2180   1.745   7.136   4.739  0.2082 -0.0367 -0.6396
    3MOL    C17 2181   1.884   7.089   4.798  0.4924 -0.7257 -0.1631
    3MOL    C18 2182   1.915   7.165   4.935 -0.2878 -0.5459  0.1652
    3MOL    C19 2183   1.880   6.938   4.822  0.1706  0.3841 -0.2008
    3MOL    C20 2184   1.984   7.131   4.698 -0.6472 -0.0984  0.9659
    3MOL    C21 2185   2.085   7.041   4.657  0.8847 -0.0627 -0.3650
    3MOL    C22 2186   2.186   7.080   4.570 -0.2251 -0.0457 -0.1541
    3MOL    C23 2187   2.175   7.206   4.503 -0.1109  0.2899 -0.8557
    3MOL    O24 2188   2.253   7.250   4.399 -0.0992  0.2402  0.5749
    3MOL    C25 2189   2.073   7.291   4.532 -0.2831 -0.4893 -0.7164
    3MOL    C26 2190   1.980   7.255   4.632  0.4365 -0.1510  0.0519
    3MOL    C27 2191   1.711   7.100   4.605  0.2955  0.2498 -0.2474
    3MOL    C28 2192   1.592   7.148   4.544  0.0493 -0.6746  0.4435
    3MOL    C29 2193   1.259   7.166   4.373 -0.1161  0.1640  0.0899
    3MOL    C30 2194   1.218   7.174   4.238 -0.7764  0.1491 -1.1023
    3MOL    C31 2195   1.268   7.542   3.898  0.1846 -1.2361 -0.2069
    3MOL    C32 2196   1.240   7.683   3.878  0.5640 -0.0254 -0.2581
    3MOL    H33 2197   0.933   7.696   4.019 -0.1980  0.0889  0.5855
    3MOL    H34 2198   0.987   7.446   4.063 -1.6222  1.5831  0.7886
    3MOL    H35 2199   1.438   7.426   4.143 -0.5543  1.0935  0.5836
    3MOL    H36 2200   1.514   7.399   4.370  1.6953 -1.1794  0.5114
    3MOL    H37 2201   1.458   7.315   4.800  0.1692  1.6478 -0.6139
    3MOL    H38 2202   1.673   7.247   4.909  3.9642 -1.3546 -0.1085
    3MOL    H39 2203   2.014   7.136   4.970  0.4044  2.0264  0.4945
    3MOL    H40 2204   1.841   7.145   5.013 -1.5178 -0.3717 -0.9405
    3MOL    H41 2205   1.905   7.272   4.916  3.2125 -0.2833 -0.5199
    3MOL    H42 2206   1.861   6.876   4.734 -1.2383  0.6419 -0.0906
    3MOL    H43 2207   1.968   6.902   4.877  0.0857 -0.0621 -0.3503
    3MOL    H44 2208   1.793   6.936   4.888 -0.3718  2.3044 -0.8405
    3MOL    H45 2209   2.087   6.939   4.690 -0.6799 -0.5624 -1.7642
    3MOL    H46 2210   2.262   7.010   4.539 -0.6056  0.1108 -1.4825
    3MOL    H47 2211   2.067   7.388   4.484  2.4361 -0.8853 -1.9841
    3MOL    H48 2212   1.909   7.330   4.662 -1.3418 -2.2140  1.1194
    3MOL    H49 2213   1.783   7.042   4.550 -0.9352 -0.4092 -1.1807
    3MOL    H50 2214   1.575   7.102   4.448  0.1386 -0.0761  0.1425
    3MOL    H51 2215   1.199   7.101   4.435  0.1846 -1.9137 -1.7223
    3MOL    H52 2216   1.144   7.102   4.204  1.2647 -2.9010  0.6289
    3MOL    H53 2217   1.361   7.509   3.854 -0.6397 -0.9951 -2.1783
    3MOL    H54 2218   1.315   7.734   3.820  1.6017 -0.4351  0.6903
    3MOL    H55 2219   1.083   7.839   3.907  2.9165  1.6465  0.5855
    3MOL    C56 2220   2.349   7.350   4.420 -0.3736 -0.3866 -0.4926
    3MOL    C57 2221   2.354   7.472   4.350  0.5015 -0.6576  0.5780
    3MOL    C58 2222   2.465   7.550   4.356 -0.9180 -0.3900  0.2051
    3MOL    C59 2223   2.574   7.516   4.447 -0.5420  0.4812  0.0093
    3MOL    S60 2224   2.715   7.620   4.460 -0.0419 -0.1286 -0.2886
    3MOL    O61 2225   2.782   7.601   4.334  0.6091  0.1125 -0.0653
    3MOL    O62 2226   2.786   7.588   4.585  0.2045  0.2283  0.8723
    3MOL    C63 2227   2.661   7.795   4.468  0.0452  0.4550  0.1843
    3MOL    C64 2228   2.757   7.897   4.444  0.2465 -0.0467  0.2292
    3MOL    C65 2229   2.719   8.032   4.481  0.7089  0.2078  0.0022
    3MOL    C66 2230   2.595   8.066   4.536  0.0726 -0.0515  0.6360
    3MOL    O67 2231   2.577   8.201   4.567  0.2274 -0.7917 -0.3932
    3MOL    C68 2232   2.464   0.014   4.525  0.1255 -0.1560 -0.3935
    3MOL    C69 2233   2.382   0.069   4.624  0.1312 -0.6511  0.0645
    3MOL    C70 2234   2.281   0.157   4.585 -0.2109 -0.3720 -0.3352
    3MOL    C71 2235   2.263   0.185   4.449 -0.1646  0.0319  0.1332
    3MOL    C72 2236   2.149   0.276   4.396  0.1509 -0.0575  0.5831
    3MOL    C73 2237   2.213   0.379   4.286 -0.5736 -0.6566  0.6152
    3MOL    C74 2238   2.063   0.188   4.306 -0.3914  0.1044  0.8759
    3MOL    C75 2239   2.065   0.340   4.503  0.8507 -0.0525 -0.3227
    3MOL    C76 2240   2.069   0.482   4.526  0.8557  0.4176 -0.7170
    3MOL    C77 2241   1.980   0.537   4.615  0.0469  0.0881  0.2418
    3MOL    C78 2242   1.899   0.456   4.699 -0.0463  0.1119 -0.2237
    3MOL    O79 2243   1.809   0.506   4.785 -0.5995 -0.2516  0.2254
    3MOL    C80 2244   1.904   0.314   4.685  0.0705  0.4485  0.5251
    3MOL    C81 2245   1.995   0.260   4.593 -0.4142 -0.1862 -0.3727
    3MOL    C82 2246   2.345   0.123   4.347 -0.5508  0.5052 -0.2443
    3MOL    C83 2247   2.444   0.041   4.388  0.7707  0.8834 -0.6918
    3MOL    C84 2248   2.500   7.965   4.556 -0.0066 -1.2318 -0.2769
    3MOL    C85 2249   2.533   7.829   4.521 -0.1913 -0.5860  0.2053
    3MOL    C86 2250   2.580   7.387   4.504 -0.9442 -1.2838  0.0645
    3MOL    C87 2251   2.459   7.308   4.498 -0.1963  0.5683  0.7634
    3MOL    H88 2252   2.285   7.481   4.267  0.8725  2.9349  0.5724
    3MOL    H89 2253   2.484   7.637   4.295  0.8184 -1.6090 -1.0455
    3MOL    H90 2254   2.857   7.873   4.411 -0.3377 -0.4178 -1.3256
    3MOL    H91 2255   2.794   8.108   4.465 -0.5810  1.6746  0.8127
    3MOL    H92 2256   2.404   0.055   4.729  0.0342  0.7104  0.2712
    3MOL    H93 2257   2.217   0.206   4.657  0.3921  0.0187 -0.0555
    3MOL    H94 2258   2.267   0.324   4.209  0.2827  1.9444 -0.6999
    3MOL    H95 2259   2.276   0.456   4.330  1.3822 -2.5073  1.1462
    3MOL    H96 2260   2.138   0.433   4.229  0.8578  0.3603 -0.3044
    3MOL    H97 2261   2.004   0.111   4.355 -0.7852 -0.7980 -0.9530
    3MOL    H98 2262   1.994   0.248   4.246 -0.1305  1.3429  1.7951
    3MOL    H99 2263   2.116   0.133   4.229 -0.5558 -0.9337  1.4979
    3MOL   H100 2264   2.120   0.555   4.465  1.2988 -0.5176 -1.4777
    3MOL   H101 2265   1.965   0.643   4.632 -1.3214  0.2209 -1.6481
    3MOL   H102 2266   1.839   0.252   4.745  0.7355  0.0281  0.8060
    3MOL   H103 2267   1.998   0.152   4.589  1.1044 -0.1732  0.3810
    3MOL   H104 2268   2.325   0.136   4.242 -0.3576  0.7013 -0.2582
    3MOL   H105 2269   2.505   8.246   4.313  0.1633  2.1815 -2.0401
    3MOL   H106 2270   2.407   7.991   4.605  1.1290  3.3592 -0.3582
    3MOL   H107 2271   2.455   7.755   4.537 -0.8348  0.3425  1.4981
    3MOL   H108 2272   2.665   7.356   4.563  0.2372  0.5187 -0.6432
    3MOL   H109 2273   2.455   7.213   4.549 -1.4972  0.4707  0.4954
    3MOL   C110 2274   1.838   0.512   4.921  1.0408  0.9406 -0.0815
    3MOL   C111 2275   1.797   0.408   5.006  0.4084 -0.2840 -0.7945
    3MOL   C112 2276   1.845   0.409   5.144  0.1295 -0.7073 -1.0683
    3MOL   C113 2277   1.925   0.518   5.189 -1.0225 -1.0089 -0.4166
    3MOL   S114 2278   1.990   0.518   5.352 -0.5577 -0.0666 -0.3069
    3MOL   O115 2279   2.133   0.516   5.342 -0.4281 -0.0141 -0.1766
    3MOL   O116 2280   1.919   0.415   5.428 -0.7296  0.4236 -0.1431
    3MOL   C117 2281   1.950   0.678   5.429  0.1589 -0.2940  0.2497
    3MOL   C118 2282   2.037   0.725   5.527  0.1789  1.3054  0.0953
    3MOL   C119 2283   2.015   0.855   5.572  0.0452 -0.3283 -0.3861
    3MOL   C120 2284   1.894   0.922   5.542 -0.1235 -0.4150 -0.2453
    3MOL   O121 2285   1.867   1.046   5.585 -0.0354  0.3782 -0.6978
    3MOL   C122 2286   1.786   1.057   5.699 -0.5398 -0.8421 -0.2794
    3MOL   C123 2287   1.705   0.955   5.759  0.2843 -0.6627  0.0617
    3MOL   C124 2288   1.612   0.991   5.855 -0.3439  0.4191  0.2409
    3MOL   C125 2289   1.601   1.119   5.905 -0.1080 -0.3740  0.0203
    3MOL   C126 2290   1.496   1.160   6.012  0.0799  0.3405  0.7450
    3MOL   C127 2291   1.485   1.042   6.118  0.2172 -0.7791  0.1525
    3MOL   C128 2292   1.542   1.287   6.086 -0.1341 -0.6682 -0.1575
    3MOL   C129 2293   1.359   1.183   5.944  0.6338  0.8354 -0.4221
    3MOL   C130 2294   1.335   1.305   5.888 -0.2366  0.0496  0.7512
    3MOL   C131 2295   1.211   1.337   5.832 -0.3137  0.2912 -1.1156
    3MOL   C132 2296   1.111   1.236   5.824 -0.1205 -0.5172 -0.6296
    3MOL   O133 2297   0.986   1.268   5.775  0.0721 -0.1890 -0.3588
    3MOL   C134 2298   1.139   1.111   5.880 -0.3502  0.1693  0.4677
    3MOL   C135 2299   1.261   1.084   5.938 -1.2079  0.5231  1.4242
    3MOL   C136 2300   1.695   1.211   5.857 -0.3408  0.2941  0.4994
    3MOL   C137 2301   1.789   1.182   5.755 -0.2893  0.5516 -0.2046
    3MOL   C138 2302   1.811   0.875   5.442 -1.1518  0.3408 -0.7611
    3MOL   C139 2303   1.837   0.752   5.385  0.4139 -0.1655 -0.6692
    3MOL   C140 2304   1.976   0.611   5.098 -0.0194  0.0191  0.0760
    3MOL   C141 2305   1.923   0.613   4.970 -0.3259  0.2128 -0.5900
    3MOL   H142 2306   1.722   0.335   4.978 -1.6851  1.8165 -0.8507
    3MOL   H143 2307   1.818   0.330   5.213 -0.7291  0.4394 -0.0654
    3MOL   H144 2308   2.129   0.676   5.556 -0.9426 -1.0519 -0.2132
    3MOL   H145 2309   2.076   0.896   5.651  1.1590  0.4705 -1.6380
    3MOL   H146 2310   1.698   0.857   5.714  0.3800 -0.9012  0.5663
    3MOL   H147 2311   1.532   0.922   5.876 -0.4129  0.5773  0.4931
    3MOL   H148 2312   1.465   0.943   6.077 -0.9243 -1.8245  3.1236
    3MOL   H149 2313   1.408   1.066   6.192  0.0797  3.0796 -1.1535
    3MOL   H150 2314   1.583   1.026   6.165  0.3264  1.6626  0.8063
    3MOL   H151 2315   1.556   1.373   6.021  0.3817 -0.9825 -0.4709
    3MOL   H152 2316   1.467   1.323   6.156  1.6793 -0.7959  1.9202
    3MOL   H153 2317   1.640   1.266   6.129 -1.1668 -1.4458  1.8702
    3MOL   H154 2318   1.402   1.389   5.893 -0.3978  0.2291 -0.1168
    3MOL   H155 2319   1.183   1.439   5.809 -1.4731  0.5585  1.2916
    3MOL   H156 2320   1.061   1.036   5.884  0.8991 -1.1070  1.6134
    3MOL   H157 2321   1.280   0.994   5.994  0.8509  1.0404  1.6209
    3MOL   H158 2322   1.705   1.306   5.908 -0.6754  0.8086 -0.3799
    3MOL   H159 2323   1.858   1.258   5.721  2.7694 -1.0765  2.1637
    3MOL   H160 2324   1.727   0.937   5.416 -0.7762  0.5985 -1.3753
    3MOL   H161 2325   1.774   0.703   5.311  2.1616 -0.4077 -2.0164
    3MOL   H162 2326   2.048   0.686   5.127  1.5928  0.2129 -4.0823
    3MOL   H163 2327   1.955   0.680   4.891 -0.1504 -2.2633 -2.7239
    3MOL   C164 2328   0.985   1.309   5.641 -0.2482 -0.0352 -0.7368
    3MOL   C165 2329   0.975   1.440   5.599 -0.9548 -0.0084  0.8030
    3MOL   C166 2330   0.966   1.473   5.463  0.6236 -0.1084 -0.0730
    3MOL   C167 2331   0.962   1.366   5.370  0.3138 -0.3002 -0.3496
    3MOL   S168 2332   0.946   1.391   5.191  0.2011 -0.1403 -0.4149
    3MOL   O169 2333   0.878   1.515   5.171 -0.2013  0.5042  0.0535
    3MOL   O170 2334   0.906   1.263   5.133  0.0127 -0.1322  0.0556
    3MOL   C171 2335   1.115   1.421   5.132  0.2848 -0.2225 -0.1932
    3MOL   C172 2336   1.182   1.542   5.162 -0.0026  0.2085  0.1436
    3MOL   C173 2337   1.300   1.571   5.100 -0.0087  0.2724  0.4393
    3MOL   C174 2338   1.370   1.473   5.033  0.4320  0.1261 -0.0515
    3MOL   O175 2339   1.494   1.494   4.972  0.2197  0.3702  0.4271
    3MOL   C176 2340   1.576   1.596   5.015  0.0112  0.6466 -0.3152
    3MOL   C177 2341   1.672   1.564   5.112 -0.0602  0.9879  0.1484
    3MOL   C178 2342   1.754   1.669   5.160  0.3908 -0.4973 -0.0164
    3MOL   C179 2343   1.750   1.804   5.108  0.7267 -0.3828  0.4028
    3MOL   C180 2344   1.855   1.908   5.155 -0.0538  0.0161 -0.2278
    3MOL   C181 2345   2.001   1.859   5.126 -0.9064  0.1218 -0.1188
    3MOL   C182 2346   1.835   2.043   5.081 -0.4396  0.1960  0.3956
    3MOL   C183 2347   1.816   1.937   5.303 -0.2498 -0.7592  0.2731
    3MOL   C184 2348   1.685   1.981   5.331 -0.3075 -0.2253  0.1157
    3MOL   C185 2349   1.645   2.004   5.465 -0.3511 -0.3914  0.1345
    3MOL   C186 2350   1.740   1.984   5.573  0.5097  0.7373 -0.7661
    3MOL   O187 2351   1.705   2.015   5.700  0.2906  0.2230  0.4384
    3MOL   C188 2352   1.875   1.946   5.541 -0.2356 -0.5971  0.1549
    3MOL   C189 2353   1.907   1.924   5.411 -0.0208  1.0457  0.1106
    3MOL   C190 2354   1.650   1.827   5.009  0.1065 -0.5559 -0.3983
    3MOL   C191 2355   1.569   1.727   4.959  0.6763  0.9179 -0.3323
    3MOL   C192 2356   1.311   1.342   5.015 -0.1160  0.0052  0.1621
    3MOL   C193 2357   1.181   1.323   5.062 -0.0523 -0.0648 -0.4842
    3MOL   C194 2358   0.972   1.234   5.409  0.8206 -0.8144 -0.1875
    3MOL   C195 2359   0.985   1.204   5.542  0.5529 -0.2372  0.4276
    3MOL   H196 2360   0.990   1.527   5.662 -3.4921 -0.7188  2.5005
    3MOL   H197 2361   0.966   1.574   5.423 -0.9997 -0.1567 -0.2442
    3MOL   H198 2362   1.130   1.615   5.222 -0.3682 -1.4454  1.8808
    3MOL   H199 2363   1.343   1.670   5.104 -3.0579  1.6774  0.5415
    3MOL   H200 2364   1.682   1.461   5.144 -1.2712  0.8629  0.1472
    3MOL   H201 2365   1.815   1.652   5.248 -0.8252  0.4785  1.0438
    3MOL   H202 2366   2.007   1.827   5.022 -0.2786 -2.7950  0.7740
    3MOL   H203 2367   2.028   1.773   5.188  0.7045  1.0244  0.4714
    3MOL   H204 2368   2.078   1.933   5.148 -1.0159  0.2377 -0.1232
    3MOL   H205 2369   1.734   2.083   5.087 -0.5251 -0.1526  1.1979
    3MOL   H206 2370   1.901   2.107   5.140  1.4937  0.1802 -1.6692
    3MOL   H207 2371   1.876   2.039   4.979 -0.5071 -1.9186  0.4316
    3MOL   H208 2372   1.618   1.997   5.247  0.4360 -0.1308 -0.4634
    3MOL   H209 2373   1.543   2.035   5.482  0.3883  2.2092 -0.0244
    3MOL   H210 2374   1.948   1.941   5.620  0.0993  1.8876  0.0450
    3MOL   H211 2375   2.007   1.892   5.384 -0.7951  0.4141 -2.1181
    3MOL   H212 2376   1.655   1.922   4.957  0.9484 -1.4362 -1.9694
    3MOL   H213 2377   1.495   1.743   4.882  0.0395  0.4107  0.1669
    3MOL   H214 2378   1.357   1.259   4.963 -1.0428 -2.2100  2.7221
    3MOL   H215 2379   1.138   1.227   5.036  1.0590 -0.7949  0.3049
    3MOL   H216 2380   0.960   1.157   5.335 -0.5301  2.5286 -3.5809
    3MOL   H217 2381   0.986   1.099   5.568 -0.4823 -0.2346  0.5152
    3MOL   C218 2382   1.711   2.155   5.717  0.6177 -0.0142 -0.6419
    3MOL   C219 2383   1.603   2.239   5.685 -0.5846 -0.6059  0.7470
    3MOL   C220 2384   1.604   2.375   5.723 -0.1183 -0.1578  0.2508
    3MOL   C221 2385   1.723   2.427   5.778  0.1768  0.6869  0.2246
    3MOL   S222 2386   1.725   2.597   5.811 -0.2029  0.0877 -0.7036
    3MOL   O223 2387   1.669   2.667   5.692  0.0129  0.6207 -0.4680
    3MOL   O224 2388   1.867   2.614   5.843  0.1271 -0.1142  0.4032
    3MOL   C225 2389   1.618   2.628   5.955 -0.3131  0.2677 -0.0031
    3MOL   C226 2390   1.541   2.744   5.957 -0.1378  0.0030 -0.2607
    3MOL   C227 2391   1.474   2.785   6.079  0.0216  0.0329 -0.5090
    3MOL   C228 2392   1.483   2.697   6.190 -0.4227 -0.2257  0.4520
    3MOL   O229 2393   1.417   2.731   6.311  0.0411  0.4291  0.4486
    3MOL   C230 2394   1.346   2.627   6.361  0.4178  0.3830  0.1212
    3MOL   C231 2395   1.406   2.558   6.469  0.4858 -0.1521  0.4456
    3MOL   C232 2396   1.348   2.439   6.504  0.4891  0.5481  0.1623
    3MOL   C233 2397   1.224   2.399   6.452  0.0583 -0.9725  0.3388
    3MOL   C234 2398   1.156   2.282   6.518 -0.2175  0.6038  0.6000
    3MOL   C235 2399   1.082   2.328   6.653 -0.9002 -0.3779  0.2990
    3MOL   C236 2400   1.036   2.227   6.441 -0.0423 -0.4752  0.1462
    3MOL   C237 2401   1.265   2.168   6.541  0.0422 -0.1889  1.0228
    3MOL   C238 2402   1.336   2.114   6.429  0.2986 -0.5229 -1.0992
    3MOL   C239 2403   1.433   2.015   6.450  0.2450 -0.3973 -0.1866
    3MOL   C240 2404   1.458   1.956   6.574 -0.0641  0.1481  0.1022
    3MOL   O241 2405   1.537   1.844   6.587  0.1073 -0.1033 -0.1822
    3MOL   C242 2406   1.393   2.015   6.684 -0.2787  0.6797  0.0878
    3MOL   C243 2407   1.297   2.118   6.672  0.0111 -0.0003 -0.1064
    3MOL   C244 2408   1.160   2.477   6.346 -0.4499  0.3041  0.2489
    3MOL   C245 2409   1.224   2.588   6.296  0.2267  0.4394 -0.0910
    3MOL   C246 2410   1.543   2.569   6.176  0.4838  0.1754 -0.3874
    3MOL   C247 2411   1.617   2.539   6.063 -0.4746  0.2675  0.3683
    3MOL   C248 2412   1.830   2.346   5.822  0.0382 -0.3177 -0.0905
    3MOL   C249 2413   1.821   2.208   5.790 -0.2076 -0.1012  0.0191
    3MOL   H250 2414   1.507   2.205   5.649 -0.0441 -1.4321  0.0702
    3MOL   H251 2415   1.518   2.437   5.701 -0.2343  0.2506  1.7791
    3MOL   H252 2416   1.531   2.800   5.866  1.2124  1.0055  0.1915
    3MOL   H253 2417   1.426   2.881   6.074  0.1202  0.1587  0.9440
    3MOL   H254 2418   1.498   2.591   6.515  1.0469 -2.1891  0.8203
    3MOL   H255 2419   1.389   2.387   6.589 -2.2143 -1.8051  0.1141
    3MOL   H256 2420   1.034   2.241   6.698 -0.7289 -0.4193  0.4030
    3MOL   H257 2421   1.007   2.403   6.630 -0.3576  0.0719 -0.0167
    3MOL   H258 2422   1.143   2.369   6.733 -0.0705 -0.1017 -0.4637
    3MOL   H259 2423   0.998   2.143   6.499 -1.5446 -0.2384 -0.4791
    3MOL   H260 2424   0.947   2.289   6.427 -1.0809 -1.8142  0.7021
    3MOL   H261 2425   1.050   2.182   6.343 -2.0133 -1.4386  0.2900
    3MOL   H262 2426   1.315   2.159   6.334 -0.6330  1.3689 -0.0217
    3MOL   H263 2427   1.473   1.976   6.359 -0.9183  1.8463 -1.7242
    3MOL   H264 2428   1.411   1.988   6.787 -1.1131 -0.0666  0.0444
    3MOL   H265 2429   1.245   2.145   6.762 -0.7746 -0.1128 -0.5196
    3MOL   H266 2430   1.059   2.454   6.314 -1.1061  1.6878  1.2685
    3MOL   H267 2431   1.188   2.664   6.228 -0.6179  1.2600  1.2502
    3MOL   H268 2432   1.547   2.491   6.251  0.9612 -2.1954 -2.7812
    3MOL   H269 2433   1.681   2.452   6.064 -2.2329 -1.0514  0.1640
    3MOL   H270 2434   1.913   2.389   5.875 -0.4120  2.0581 -1.2523
    3MOL   H271 2435   1.893   2.132   5.816  0.2451  0.5750  0.7757
    3MOL   C272 2436   1.671   1.851   6.566 -0.0375 -0.3632  0.8375
    3MOL   C273 2437   1.766   1.889   6.659 -0.0511  0.4681  0.0177
    3MOL   C274 2438   1.901   1.874   6.632  0.1107  1.1404  0.1377
    3MOL   C275 2439   1.947   1.824   6.506  0.1041 -0.3428 -0.1897
    3MOL   S276 2440   2.127   1.804   6.488  0.1509 -0.3558  0.0986
    3MOL   O277 2441   2.196   1.871   6.600 -0.4101  0.2636  0.1406
    3MOL   O278 2442   2.161   1.846   6.349 -0.2615 -0.4226  0.3686
    3MOL   C279 2443   2.158   1.629   6.505 -1.0380 -0.1932 -0.0533
    3MOL   C280 2444   2.223   1.585   6.623  0.0763 -0.1808  0.0366
    3MOL   C281 2445   2.265   1.448   6.630 -0.4448 -0.8502  0.2864
    3MOL   C282 2446   2.249   1.364   6.514  0.7949  0.2457 -0.3084
    3MOL   O283 2447   2.288   1.236   6.520  0.1800  0.2798 -0.4594
    3MOL   C284 2448   2.415   1.197   6.477  0.4913 -1.1235 -0.3982
    3MOL   C285 2449   2.512   1.155   6.571 -0.1134 -0.8538  0.8923
    3MOL   C286 2450   2.635   1.110   6.528  0.3140  0.6046 -0.2827
    3MOL   C287 2451   2.662   1.083   6.391  0.0701  0.4382 -0.3517
    3MOL   C288 2452   2.797   1.008   6.356 -0.3833  0.1712  0.0558
    3MOL   C289 2453   2.777   0.857   6.378 -0.2099 -0.5950 -0.3851
    3MOL   C290 2454   2.826   1.024   6.202  0.6634 -0.2504  0.3814
    3MOL   C291 2455   2.911   1.062   6.446  0.3960 -0.0792  0.2883
    3MOL   C292 2456   2.925   1.203   6.423 -0.1182  0.2481 -0.0659
    3MOL   C293 2457   3.014   1.276   6.503  0.2634 -0.1109 -0.6207
    3MOL   C294 2458   3.101   1.213   6.597  0.0521 -0.0806  0.2124
    3MOL   O295 2459   3.182   1.289   6.676 -0.2568  0.2456  0.3077
    3MOL   C296 2460   3.081   1.072   6.614  0.0003  0.0699  0.1140
    3MOL   C297 2461   2.982   1.000   6.546  0.2037  0.5538 -0.3431
    3MOL   C298 2462   2.564   1.123   6.298 -0.0386  0.0456  0.0832
    3MOL   C299 2463   2.449   1.193   6.340 -0.7889 -0.0606 -0.9367
    3MOL   C300 2464   2.195   1.413   6.397  0.0431  0.0773  0.4732
    3MOL   C301 2465   2.150   1.549   6.389  0.1036 -0.6695  0.4555
    3MOL   C302 2466   1.852   1.787   6.407  0.1241  0.3679 -0.0405
    3MOL   C303 2467   1.716   1.805   6.440  0.6466 -0.8362 -0.0250
    3MOL   H304 2468   1.738   1.921   6.758  1.1217  0.9546  0.1915
    3MOL   H305 2469   1.971   1.891   6.712 -0.1765 -0.2795  0.7071
    3MOL   H306 2470   2.230   1.645   6.713  1.6305  0.9286 -0.7980
    3MOL   H307 2471   2.309   1.397   6.714 -0.8419 -1.1922  0.2887
    3MOL   H308 2472   2.495   1.174   6.676  0.8752  0.5290  0.8197
    3MOL   H309 2473   2.693   1.072   6.611 -0.9573 -3.1626 -1.0331
    3MOL   H310 2474   2.739   0.843   6.480  0.3501  0.3913 -0.0348
    3MOL   H311 2475   2.870   0.802   6.364 -0.6791 -0.8142 -2.9533
    3MOL   H312 2476   2.704   0.808   6.314 -0.5678  0.2754 -0.6474
    3MOL   H313 2477   2.866   1.123   6.182 -1.1889 -0.1288 -3.0656
    3MOL   H314 2478   2.893   0.949   6.161 -0.1067 -2.3699  2.8116
    3MOL   H315 2479   2.736   1.017   6.141  0.5904  0.4125  0.4130
    3MOL   H316 2480   2.866   1.258   6.351  3.1990  3.2919 -0.6034
    3MOL   H317 2481   3.021   1.381   6.482  0.6314 -0.2847 -1.3978
    3MOL   H318 2482   3.146   1.020   6.682  0.0524 -0.5095 -0.3734
    3MOL   H319 2483   2.961   0.897   6.575 -0.2338  0.6990 -0.1280
    3MOL   H320 2484   2.567   1.111   6.191 -0.9014  1.0447 -0.0586
    3MOL   H321 2485   2.386   1.243   6.268  0.2145  3.2554  0.3945
    3MOL   H322 2486   2.195   1.350   6.310  1.4710 -0.7457  1.0539
    3MOL   H323 2487   2.109   1.593   6.299 -1.1629 -1.4136  0.6603
    3MOL   H324 2488   1.875   1.759   6.306  0.2269 -2.0368  0.6111
    3MOL   H325 2489   1.652   1.769   6.361 -0.0107  0.2021  0.0176
    3MOL   C326 2490   3.307   1.237   6.713  0.2880 -0.2143 -0.5889
    3MOL   C327 2491   3.318   1.183   6.838  0.1529  0.0164  0.3609
    3MOL   C328 2492   3.448   1.141   6.881 -0.3829 -0.5825  0.7734
    3MOL   C329 2493   3.561   1.167   6.803  0.0203  0.1561  0.9552
    3MOL   S330 2494   3.723   1.141   6.865 -0.3194 -0.4435 -0.0248
    3MOL   O331 2495   3.822   1.226   6.795  0.4004 -0.3301 -0.2175
    3MOL   O332 2496   3.737   0.993   6.864  0.1080  0.5982  0.1370
    3MOL   C333 2497   3.727   1.184   7.036  0.1611 -0.4752  0.3713
    3MOL   C334 2498   3.781   1.304   7.088 -0.2730  0.3720 -0.5171
    3MOL   C335 2499   3.769   1.344   7.224  0.3553  0.7898 -0.5649
    3MOL   C336 2500   3.710   1.256   7.314  0.0356 -0.0790 -0.5876
    3MOL   O337 2501   3.714   1.284   7.453 -0.0796  0.2499  0.1555
    3MOL   C338 2502   3.600   1.264   7.532  0.1749 -0.2663  0.0703
    3MOL   C339 2503   3.595   1.163   7.630  0.4055  0.2782  0.0807
    3MOL   C340 2504   3.492   1.165   7.724 -0.3822 -0.4264 -0.3529
    3MOL   C341 2505   3.389   1.266   7.721 -0.3328 -0.4094  0.5440
    3MOL   C342 2506   3.274   1.268   7.828 -0.5079  0.3173  0.3440
    3MOL   C343 2507   3.297   1.168   7.945  0.3071  0.1620  0.0515
    3MOL   C344 2508   3.268   1.415   7.890 -0.2424  0.9233 -0.0041
    3MOL   C345 2509   3.149   1.228   7.752  0.2621  0.4470 -0.0051
    3MOL   C346 2510   3.146   1.095   7.699  0.1803 -0.8387  0.4858
    3MOL   C347 2511   3.036   1.047   7.626  0.3877 -0.1790  0.1916
    3MOL   C348 2512   2.916   1.126   7.622  0.6330  0.3882 -0.3681
    3MOL   O349 2513   2.807   1.075   7.557  0.4121  0.2389  0.4282
    3MOL   C350 2514   2.916   1.260   7.676  0.0242  0.5434  0.5481
    3MOL   C351 2515   3.035   1.312   7.736 -0.3482  0.1214  0.0775
    3MOL   C352 2516   3.400   1.358   7.614  0.6200 -0.4103 -0.2117
    3MOL   C353 2517   3.505   1.364   7.521 -0.5007  0.3315 -0.3805
    3MOL   C354 2518   3.662   1.133   7.269 -0.2540 -0.0718  0.8788
    3MOL   C355 2519   3.668   1.097   7.132 -0.5418  0.3937 -0.1390
    3MOL   C356 2520   3.550   1.219   6.679  0.2481 -0.1813  0.3078
    3MOL   C357 2521   3.420   1.246   6.630 -0.0211 -0.8327 -0.5003
    3MOL   H358 2522   3.232   1.176   6.902 -0.6532  0.2854 -0.6871
    3MOL   H359 2523   3.449   1.088   6.975 -0.9512 -1.5607  0.2281
    3MOL   H360 2524   3.830   1.379   7.028  0.8168  0.6782  0.7268
    3MOL   H361 2525   3.812   1.437   7.260 -0.1955  0.1060  1.9873
    3MOL   H362 2526   3.678   1.094   7.625  1.4466  1.5831 -1.1788
    3MOL   H363 2527   3.477   1.090   7.800  0.5114 -0.5633 -0.3106
    3MOL   H364 2528   3.386   1.186   8.005 -0.2614 -1.3254  1.3694
    3MOL   H365 2529   3.288   1.063   7.916  1.0281  0.0351  0.2749
    3MOL   H366 2530   3.227   1.171   8.028  1.3419  0.9614  0.9163
    3MOL   H367 2531   3.345   1.414   7.967 -0.8017 -1.0508  0.5623
    3MOL   H368 2532   3.286   1.496   7.819 -1.0875 -0.7972 -2.2431
    3MOL   H369 2533   3.167   1.423   7.930 -0.4599  0.0510 -0.3746
    3MOL   H370 2534   3.233   1.033   7.711 -0.3600 -0.8378  4.9523
    3MOL   H371 2535   3.040   0.956   7.568  0.9266  0.2576 -0.4652
    3MOL   H372 2536   2.827   1.319   7.660 -0.6392 -0.1279  1.7843
    3MOL   H373 2537   3.041   1.412   7.777 -1.5342  0.9106 -1.6454
    3MOL   H374 2538   3.322   1.433   7.610 -0.6471 -1.4509  3.3254
    3MOL   H375 2539   3.515   1.439   7.444  1.9216  0.9575  0.4917
    3MOL   H376 2540   3.613   1.065   7.337  1.8319 -0.4481  2.0473
    3MOL   H377 2541   3.629   1.002   7.101 -1.7031  0.3923  1.2855
    3MOL   H378 2542   3.637   1.234   6.616  0.0120  1.7074  0.3942
    3MOL   H379 2543   3.420   1.308   6.542  0.8088  1.1316  0.8482
    3MOL   C380 2544   2.802   1.086   7.419  0.2007 -0.0535  0.1101
    3MOL   C381 2545   2.740   1.202   7.363  0.2962 -0.2629 -0.1287
    3MOL   C382 2546   2.726   1.210   7.223 -0.2939  0.0288  0.3248
    3MOL   C383 2547   2.764   1.101   7.140 -0.5717 -0.2045  0.0025
    3MOL   S384 2548   2.725   1.123   6.965 -0.1546  0.3918 -0.1055
    3MOL   O385 2549   2.788   1.017   6.884 -0.6675  0.7610 -0.1776
    3MOL   O386 2550   2.768   1.260   6.931 -0.1998 -0.0383  0.5731
    3MOL   C387 2551   2.546   1.109   6.944  0.8243  0.5732 -0.0614
    3MOL   C388 2552   2.460   1.216   6.972 -0.4588 -0.2450 -0.4230
    3MOL   C389 2553   2.316   1.203   6.961 -0.0449  0.3425  0.0236
    3MOL   C390 2554   2.261   1.074   6.942 -0.8191  0.7810 -0.5760
    3MOL   O391 2555   2.127   1.058   6.956 -0.5067  0.1442  0.2214
    3MOL   C392 2556   2.038   1.156   6.914 -0.2021  0.2165 -0.1911
    3MOL   C393 2557   1.995   1.168   6.781  0.1780  0.2224  0.4826
    3MOL   C394 2558   1.902   1.258   6.735 -0.0362  0.0408  0.3617
    3MOL   C395 2559   1.852   1.349   6.828  0.3479 -0.7525  0.3028
    3MOL   C396 2560   1.759   1.461   6.784  0.5316  0.6272 -0.2526
    3MOL   C397 2561   1.784   1.583   6.874  0.1470  0.4786 -0.8761
    3MOL   C398 2562   1.801   1.503   6.645 -0.8053  0.5597 -0.6120
    3MOL   C399 2563   1.609   1.432   6.792  1.1305  0.2052  0.2415
    3MOL   C400 2564   1.518   1.516   6.720 -0.0933 -0.5514 -0.3232
    3MOL   C401 2565   1.377   1.497   6.733 -0.4128  0.2742 -0.1007
    3MOL   C402 2566   1.334   1.398   6.828 -0.1751  1.0954  0.3292
    3MOL   O403 2567   1.200   1.371   6.845  0.9788 -0.8320  0.3929
    3MOL   C404 2568   1.427   1.323   6.904  0.8027  0.3069  0.2073
    3MOL   C405 2569   1.570   1.336   6.884  0.7232  0.4453  0.0023
    3MOL   C406 2570   1.898   1.345   6.962 -0.6383 -1.0456  0.7519
    3MOL   C407 2571   1.996   1.254   7.004 -0.0817  0.0180 -0.1814
    3MOL   C408 2572   2.350   0.965   6.915 -0.2231  0.6615 -0.0330
    3MOL   C409 2573   2.492   0.982   6.914  0.6830 -0.0493 -0.8108
    3MOL   C410 2574   2.816   0.979   7.200  0.2570 -0.7714  0.5446
    3MOL   C411 2575   2.837   0.974   7.339  0.2711  1.4713  1.0157
    3MOL   H412 2576   2.699   1.277   7.428 -0.8670  0.4969 -1.6985
    3MOL   H413 2577   2.680   1.296   7.176 -0.1194  0.9576  1.8156
    3MOL   H414 2578   2.503   1.311   7.000 -0.5234 -0.4752  0.4682
    3MOL   H415 2579   2.248   1.286   6.971 -2.2324 -1.5587  1.4896
    3MOL   H416 2580   2.031   1.091   6.713  0.7662  0.6520  0.3031
    3MOL   H417 2581   1.860   1.251   6.636  0.8831  1.3813 -0.1297
    3MOL   H418 2582   1.890   1.602   6.857  0.0819  0.0242 -1.8296
    3MOL   H419 2583   1.764   1.581   6.981 -1.1392  0.4215 -1.1084
    3MOL   H420 2584   1.732   1.669   6.832  0.1956  1.0711  0.2479
    3MOL   H421 2585   1.904   1.532   6.628 -0.3411 -1.2747 -1.0245
    3MOL   H422 2586   1.765   1.444   6.560  0.6480  1.0317 -1.5603
    3MOL   H423 2587   1.754   1.600   6.628 -1.0123  0.6463  0.4114
    3MOL   H424 2588   1.552   1.592   6.651 -1.8931 -0.4394 -1.1084
    3MOL   H425 2589   1.310   1.545   6.663 -0.2270  0.4429 -0.1631
    3MOL   H426 2590   1.395   1.259   6.985 -0.2519  0.5907  0.0266
    3MOL   H427 2591   1.640   1.276   6.940 -0.4899 -1.3463 -0.3296
    3MOL   H428 2592   1.863   1.415   7.037  0.2779  2.5530 -2.0400
    3MOL   H429 2593   2.039   1.259   7.103 -0.8646 -2.0774  0.2947
    3MOL   H430 2594   2.317   0.862   6.908  2.5833 -0.1406 -2.3977
    3MOL   H431 2595   2.560   0.900   6.895  2.8227  1.5156 -0.0994
    3MOL   H432 2596   2.848   0.901   7.132 -2.2708 -0.4714 -1.0612
    3MOL   H433 2597   2.886   0.891   7.388  0.1941  2.3402  2.5777
    3MOL   C434 2598   1.126   1.467   6.901 -0.0378 -0.1088 -0.3690
    3MOL   C435 2599   1.077   1.580   6.829 -0.0937 -0.4956 -0.5819
    3MOL   C436 2600   0.989   1.670   6.891  0.8232 -0.0310  0.2672
    3MOL   C437 2601   0.971   1.656   7.032  0.1889  0.0783 -0.5133
    3MOL   S438 2602   0.862   1.770   7.122  0.3006  0.4934  0.1245
    3MOL   O439 2603   0.900   1.764   7.259 -0.0602 -0.6565  0.1776
    3MOL   O440 2604   0.725   1.731   7.090 -0.1836  0.0304  0.6475
    3MOL   C441 2605   0.888   1.927   7.062 -0.4475 -0.5824  0.4256
    3MOL   C442 2606   1.021   1.968   7.046 -0.0493  0.5640 -0.0563
    3MOL   C443 2607   1.051   2.095   7.008  0.3021 -1.0639  1.0650
    3MOL   C444 2608   0.945   2.196   6.996 -0.3904 -0.3153 -1.2386
    3MOL   O445 2609   0.987   2.324   6.978 -0.3501  0.0269  0.3606
    3MOL   C446 2610   0.982   2.400   7.087 -0.6468 -0.3494 -0.7640
    3MOL   C447 2611   0.936   2.527   7.073 -0.8137  0.3082  0.3107
    3MOL   C448 2612   0.921   2.610   7.184  0.2608 -0.2196  0.2544
    3MOL   C449 2613   0.967   2.571   7.307  0.1803  0.4224  0.1980
    3MOL   C450 2614   0.953   2.659   7.431  0.5490  0.1015 -0.0475
    3MOL   C451 2615   0.874   2.788   7.400 -0.0967  0.1852 -0.5290
    3MOL   C452 2616   0.863   2.587   7.538 -0.4195 -1.4263  0.3206
    3MOL   C453 2617   1.097   2.702   7.486 -0.1443 -0.4802 -0.4062
    3MOL   C454 2618   1.189   2.777   7.400  0.1329 -0.2116  0.1153
    3MOL   C455 2619   1.324   2.800   7.430 -0.4499  0.4037  0.5775
    3MOL   C456 2620   1.376   2.737   7.549 -0.0240  0.2170 -0.2291
    3MOL   O457 2621   1.511   2.748   7.577 -0.2756  0.3631  0.1834
    3MOL   C458 2622   1.285   2.662   7.633 -0.2146  0.1257  0.3592
    3MOL   C459 2623   1.148   2.646   7.604  0.0018 -0.0032  0.1022
    3MOL   C460 2624   1.014   2.439   7.327 -0.3196  0.0898  0.1326
    3MOL   C461 2625   1.034   2.357   7.215 -0.3867  0.4260  0.1678
    3MOL   C462 2626   0.808   2.155   7.017  0.0509  0.5461 -0.5437
    3MOL   C463 2627   0.781   2.017   7.047 -0.2166 -0.5440 -0.1486
    3MOL   C464 2628   1.018   1.541   7.106  0.8563  0.4440 -0.6788
    3MOL   C465 2629   1.090   1.442   7.035 -0.2503  0.5853 -0.3040
    3MOL   H466 2630   1.098   1.588   6.723 -1.8137 -2.6234 -1.1431
    3MOL   H467 2631   0.949   1.758   6.842 -0.9036 -0.8206  0.2530
    3MOL   H468 2632   1.100   1.895   7.057  0.9045  1.5087 -0.5516
    3MOL   H469 2633   1.151   2.137   7.013 -0.1743  0.4541 -1.4744
    3MOL   H470 2634   0.911   2.565   6.974  2.5636 -2.2461 -1.6360
    3MOL   H471 2635   0.876   2.707   7.171  3.4061  1.2620  0.1904
    3MOL   H472 2636   0.771   2.766   7.372 -0.8334  0.6100  1.8057
    3MOL   H473 2637   0.917   2.857   7.327 -0.0692  1.4007  0.6343
    3MOL   H474 2638   0.866   2.851   7.488 -1.1495 -0.6777 -0.0025
    3MOL   H475 2639   0.903   2.489   7.566 -2.0299 -2.0549  0.4699
    3MOL   H476 2640   0.865   2.653   7.625  4.3706  0.7576 -1.2732
    3MOL   H477 2641   0.758   2.566   7.519  0.4079 -2.4104 -3.5941
    3MOL   H478 2642   1.155   2.824   7.310  0.6151  0.0931  0.0927
    3MOL   H479 2643   1.384   2.866   7.371  0.8690 -1.3564 -0.0804
    3MOL   H480 2644   1.330   2.637   7.728 -1.6690 -0.6359  0.8493
    3MOL   H481 2645   1.087   2.589   7.673  2.0772  0.9004  2.7696
    3MOL   H482 2646   1.053   2.417   7.425  1.9183  0.8775 -0.5330
    3MOL   H483 2647   1.076   2.260   7.236  0.8693  0.7635 -0.7357
    3MOL   H484 2648   0.729   2.228   7.022  0.9827  1.4761  1.0307
    3MOL   H485 2649   0.677   2.000   7.070 -0.2542  0.6252  0.6509
    3MOL   H486 2650   0.999   1.530   7.212  4.2934  1.3686  0.1051
    3MOL   H487 2651   1.130   1.368   7.102 -0.5767 -0.0988 -0.8526
    3MOL   C488 2652   1.586   2.642   7.539  0.5271  0.6066  0.2248
    3MOL   C489 2653   1.661   2.658   7.418 -0.2905  0.6060 -0.7638
    3MOL   C490 2654   1.758   2.559   7.381 -0.6228 -0.8368 -0.0398
    3MOL   C491 2655   1.773   2.442   7.463  0.2220 -0.1813  0.8118
    3MOL   S492 2656   1.905   2.340   7.413 -0.1785 -0.4142  0.0560
    3MOL   O493 2657   2.025   2.393   7.482  1.0062  0.3022  0.2646
    3MOL   O494 2658   1.902   2.326   7.268  0.0262 -0.1452  0.1732
    3MOL   C495 2659   1.870   2.180   7.477  0.3848 -0.2675 -0.3083
    3MOL   C496 2660   1.970   2.110   7.557  0.2151  0.1083  0.5996
    3MOL   C497 2661   1.934   1.984   7.610 -0.2172  0.2000 -0.8834
    3MOL   C498 2662   1.804   1.932   7.584 -0.1212 -0.4072  0.1479
    3MOL   O499 2663   1.774   1.813   7.629 -0.3589  0.7553 -0.4940
    3MOL   C500 2664   1.700   1.817   7.748 -0.2772 -0.1071  0.8096
    3MOL   C501 2665   1.576   1.749   7.741 -0.1138 -0.0307 -0.3669
    3MOL   C502 2666   1.494   1.737   7.855  0.7577  0.4396 -0.0422
    3MOL   C503 2667   1.541   1.788   7.982  0.1545 -0.1549  0.5040
    3MOL   C504 2668   1.457   1.770   8.111 -0.1285  0.3782 -0.2556
    3MOL   C505 2669   1.484   1.625   8.147 -0.3197  0.6742  0.2802
    3MOL   C506 2670   1.499   1.865   8.226  0.3740  0.1329 -0.3331
    3MOL   C507 2671   1.312   1.800   8.087 -0.4403  0.2229 -0.2422
    3MOL   C508 2672   1.200   1.727   8.140 -0.0025 -0.0491  0.5884
    3MOL   C509 2673   1.068   1.773   8.126 -0.4576  0.4421 -0.0072
    3MOL   C510 2674   1.034   1.874   8.042  0.2955  0.5764  0.6852
    3MOL   O511 2675   0.898   1.911   8.036  0.1422  0.5225 -0.6123
    3MOL   C512 2676   1.137   1.946   7.980  0.1901 -0.1976  0.5237
    3MOL   C513 2677   1.270   1.908   8.005  0.1257 -0.1856 -0.2778
    3MOL   C514 2678   1.675   1.844   7.990 -0.1653 -0.4152  0.1948
    3MOL   C515 2679   1.756   1.854   7.875 -0.3487  0.2826 -0.5621
    3MOL   C516 2680   1.708   1.997   7.505 -0.0454 -0.2546 -0.2681
    3MOL   C517 2681   1.742   2.123   7.454 -0.6619 -0.1010  0.6188
    3MOL   C518 2682   1.694   2.432   7.580  0.4351 -0.0985  0.5068
    3MOL   C519 2683   1.606   2.529   7.618  0.2269 -0.2517 -0.4943
    3MOL   H520 2684   1.640   2.741   7.352  1.9697 -0.8343 -3.4133
    3MOL   H521 2685   1.800   2.574   7.283 -0.1573  1.4206  0.4846
    3MOL   H522 2686   2.065   2.157   7.575  0.4938 -0.1294 -0.2352
    3MOL   H523 2687   2.000   1.922   7.669 -1.9247  0.1255  1.0091
    3MOL   H524 2688   1.552   1.714   7.642 -1.2266  2.1800 -0.9254
    3MOL   H525 2689   1.397   1.692   7.840 -0.9648  3.3357  2.1565
    3MOL   H526 2690   1.442   1.605   8.246 -1.9418  0.1593 -0.5071
    3MOL   H527 2691   1.591   1.604   8.150  0.1847  3.2444  1.6680
    3MOL   H528 2692   1.446   1.549   8.079 -1.1452 -0.3209  1.8247
    3MOL   H529 2693   1.432   1.852   0.058  0.5053  5.0039  0.6575
    3MOL   H530 2694   1.602   1.863   0.009 -0.7201 -1.0442  2.8367
    3MOL   H531 2695   1.483   1.965   8.185 -1.5350 -0.9455 -2.3767
    3MOL   H532 2696   1.205   1.641   8.205  1.8503  0.1427  0.7083
    3MOL   H533 2697   0.988   1.715   8.169  1.3015  0.0745  2.8813
    3MOL   H534 2698   1.110   2.031   7.920  0.4082 -1.1485 -0.9717
    3MOL   H535 2699   1.351   1.968   7.967  0.0823 -0.2033 -0.3977
    3MOL   H536 2700   1.715   1.864   8.088  0.1332  0.6531 -0.1355
    3MOL   H537 2701   1.856   1.894   7.887 -0.5151  0.8481 -1.0458
    3MOL   H538 2702   1.614   1.950   7.482 -1.2043  2.9649 -2.4499
    3MOL   H539 2703   1.671   2.181   7.396 -1.2083  0.4028  1.7881
    3MOL   H540 2704   1.697   2.339   7.637 -0.9144  0.3572  1.3499
    3MOL   H541 2705   1.547   2.516   7.707  0.5761 -1.0675 -0.3874
    3MOL   C542 2706   0.859   2.034   7.998 -0.3236  0.1273 -0.1198
    3MOL   C543 2707   0.924   2.152   8.045  0.1233  0.5167 -0.3619
    3MOL   C544 2708   0.873   2.272   8.007 -0.8234  0.0940  0.3547
    3MOL   C545 2709   0.765   2.284   7.912  0.7521 -0.1803 -0.6564
    3MOL   S546 2710   0.705   2.438   7.851 -0.0630 -0.0348 -0.1171
    3MOL   O547 2711   0.687   2.419   7.706  0.4702  0.2427 -0.2702
    3MOL   O548 2712   0.784   2.551   7.899  0.2920  0.2720  0.1395
    3MOL   C549 2713   0.541   2.460   7.921  0.1826 -0.1913  0.7253
    3MOL   C550 2714   0.453   2.542   7.850  0.0652 -0.0854  0.4604
    3MOL   C551 2715   0.326   2.572   7.901  0.0376  0.4721  0.3059
    3MOL   C552 2716   0.288   2.518   8.026 -0.5881 -0.8486  0.7543
    3MOL   O553 2717   0.157   2.527   8.062 -0.2597  1.0837  0.3807
    3MOL   C554 2718   0.114   2.523   8.191 -0.9802  1.3839  0.0570
    3MOL   C555 2719   0.085   2.401   8.252  0.0884 -0.5526  0.0599
    3MOL   C556 2720   0.007   2.403   0.114 -0.8368 -0.5445 -0.1172
    3MOL   C557 2721   8.236   2.527   0.186 -0.2429  0.4651 -0.8927
    3MOL   C558 2722   8.170   2.517   0.328 -0.2401  0.0861  0.0721
    3MOL   C559 2723   0.017   2.454   0.426  0.0011  0.0213 -0.0715
    3MOL   C560 2724   8.117   2.646   0.381 -0.0087  0.7287 -0.4294
    3MOL   C561 2725   8.050   2.421   0.319  0.1037  0.0274 -0.4757
    3MOL   C562 2726   8.021   2.309   0.404 -0.5344 -0.8211  0.0432
    3MOL   C563 2727   7.909   2.223   0.374 -0.6369 -0.3983 -0.6822
    3MOL   C564 2728   7.815   2.259   0.277  0.2651 -0.1372  0.3048
    3MOL   O565 2729   7.706   2.179   0.252 -0.0309  0.2287  0.2209
    3MOL   C566 2730   7.836   2.380   0.208  0.1485 -0.1928 -0.5696
    3MOL   C567 2731   7.950   2.457   0.225  0.0497 -0.2531  0.3721
    3MOL   C568 2732   0.035   2.643   0.138 -0.0290  0.1910 -0.3548
    3MOL   C569 2733   0.095   2.647   0.008 -0.2326  0.1944  0.3702
    3MOL   C570 2734   0.382   2.437   8.096 -0.2807  0.1981 -0.3105
    3MOL   C571 2735   0.510   2.410   8.045  0.4961  0.1987 -0.4959
    3MOL   C572 2736   0.693   2.165   7.875 -0.0946 -0.2394  0.2110
    3MOL   C573 2737   0.748   2.041   7.919 -0.2423 -0.5373 -0.6387
    3MOL   H574 2738   0.996   2.144   8.125 -1.6980  1.4634  1.4086
    3MOL   H575 2739   0.927   2.355   8.051 -1.0383 -0.1678  1.1238
    3MOL   H576 2740   0.483   2.575   7.752 -2.4832  0.1598 -0.2715
    3MOL   H577 2741   0.254   2.641   7.860 -1.0521  0.1497  1.6113
    3MOL   H578 2742   0.107   2.303   8.212  0.5271  0.5006 -2.3681
    3MOL   H579 2743   8.224   2.312   0.159 -1.3194 -1.4856 -2.3494
    3MOL   H580 2744   0.042   2.353   0.391  0.3002 -0.0061  0.2229
    3MOL   H581 2745   8.243   2.451   0.531  0.8473  0.5902  0.1673
    3MOL   H582 2746   0.115   2.501   0.426  0.7765 -1.5623  0.2141
    3MOL   H583 2747   8.071   2.629   0.479  0.0172  1.9312 -0.2046
    3MOL   H584 2748   8.189   2.726   0.398 -0.3045  1.3311 -1.9352
    3MOL   H585 2749   8.037   2.691   0.323  0.4479 -2.1254 -3.4084
    3MOL   H586 2750   8.090   2.271   0.478  0.8842  2.1163  0.2945
    3MOL   H587 2751   7.897   2.135   0.436  2.0184  0.4041  1.0733
    3MOL   H588 2752   7.756   2.411   0.142 -0.2945 -0.4013 -0.1395
    3MOL   H589 2753   7.960   2.547   0.167 -2.5818  0.5718  1.1514
    3MOL   H590 2754   0.029   2.736   0.191  0.5783 -0.3924  0.7473
    3MOL   H591 2755   0.127   2.736   8.208  0.5642  0.0429  0.5866
    3MOL   H592 2756   0.348   2.394   8.189  2.5354 -0.3090  0.5136
    3MOL   H593 2757   0.573   2.360   8.117 -1.1240 -1.5705 -0.2522
    3MOL   H594 2758   0.608   2.170   7.808  0.0271  1.2998  0.1679
    3MOL   H595 2759   0.702   1.946   7.894 -1.2779 -0.0722 -0.5298
    3MOL   C596 2760   7.640   2.108   0.348  0.2518 -0.0460  0.4537
    3MOL   C597 2761   7.654   1.964   0.347  0.2551  0.3394 -0.5649
    3MOL   C598 2762   7.600   1.889   0.451  0.1502 -0.1876  0.2269
    3MOL   C599 2763   7.531   1.957   0.557 -0.7259  0.0234  0.2189
    3MOL   S600 2764   7.455   1.865   0.694 -0.3964  0.0487 -0.2297
    3MOL   O601 2765   7.456   1.960   0.805 -0.0468  0.0389 -0.4786
    3MOL   O602 2766   7.522   1.735   0.707 -0.2560 -0.1380 -0.7081
    3MOL   C603 2767   7.282   1.856   0.643 -0.1947  0.4460  0.1545
    3MOL   C604 2768   7.254   1.849   0.503  0.2138 -0.6222 -0.7809
    3MOL   C605 2769   7.119   1.836   0.466 -0.9629  0.3035  0.0038
    3MOL   C606 2770   7.014   1.830   0.555 -0.3718  0.0711 -0.3531
    3MOL   O607 2771   6.886   1.818   0.502 -0.5296 -0.1850 -0.5044
    3MOL   C608 2772   6.829   1.931   0.446 -0.2963  0.8385 -0.0637
    3MOL   C609 2773   6.700   1.933   0.392  0.3731  0.0130  0.3194
    3MOL   C610 2774   6.650   2.046   0.323 -0.0016 -0.1471  0.1154
    3MOL   C611 2775   6.722   2.169   0.315 -0.3697  0.7046  0.0567
    3MOL   C612 2776   6.660   2.295   0.256  0.4533 -0.0788  0.9151
    3MOL   C613 2777   6.768   2.406   0.245 -0.0956  0.3041 -0.2313
    3MOL   C614 2778   6.621   2.271   0.111 -0.2855  1.0283 -0.3336
    3MOL   C615 2779   6.547   2.354   0.336  0.5164 -0.1379 -0.2673
    3MOL   C616 2780   6.566   2.375   0.473 -0.4505  0.6401  0.6000
    3MOL   C617 2781   6.462   2.421   0.557 -0.7280  0.0221  0.1796
    3MOL   C618 2782   6.344   2.468   0.504  0.3362 -1.1610 -0.2279
    3MOL   O619 2783   6.241   2.527   0.574  0.0188  0.0035  0.4348
    3MOL   C620 2784   6.320   2.437   0.365 -0.1149 -0.2539  1.0323
    3MOL   C621 2785   6.421   2.385   0.282  0.0835  0.3604  0.1173
    3MOL   C622 2786   6.841   2.168   0.384  0.1171 -0.4142  0.2388
    3MOL   C623 2787   6.897   2.054   0.449  0.3512 -0.2700  0.2630
    3MOL   C624 2788   7.046   1.839   0.694  0.2082 -0.2457 -0.0370
    3MOL   C625 2789   7.178   1.857   0.740 -0.0694  0.0085  0.5842
    3MOL   C626 2790   7.512   2.097   0.553  0.4400  0.3576 -0.2021
    3MOL   C627 2791   7.563   2.169   0.447 -1.0366  0.6490  0.6889
    3MOL   H628 2792   7.719   1.924   0.270 -0.1403 -1.5068  0.0378
    3MOL   H629 2793   7.614   1.782   0.456  0.6695 -0.0575  2.2826
    3MOL   H630 2794   7.335   1.842   0.432  1.2403  0.6378  0.2219
    3MOL   H631 2795   7.105   1.837   0.359 -2.1512  1.5883  0.1437
    3MOL   H632 2796   6.643   1.842   0.396 -0.0215  0.2823  0.9189
    3MOL   H633 2797   6.551   2.042   0.278 -0.6007 -1.8330  1.5295
    3MOL   H634 2798   6.795   2.437   0.346 -2.8596  1.8001  0.0880
    3MOL   H635 2799   6.720   2.497   0.207  2.4087  2.8385  2.4069
    3MOL   H636 2800   6.862   2.388   0.193  0.3092 -2.6779  1.4087
    3MOL   H637 2801   6.579   2.357   0.059 -0.5596  0.0111 -1.8589
    3MOL   H638 2802   6.709   2.234   0.058 -0.4979  1.3486 -0.9168
    3MOL   H639 2803   6.545   2.193   0.100 -1.2254  1.9761 -0.6024
    3MOL   H640 2804   6.662   2.351   0.517 -0.9962 -3.6902 -0.3538
    3MOL   H641 2805   6.481   2.446   0.660  0.6616 -1.7090  0.3778
    3MOL   H642 2806   6.230   2.455   0.308 -0.4066 -0.6895  1.3495
    3MOL   H643 2807   6.401   2.370   0.177 -2.3553 -1.9343  0.8749
    3MOL   H644 2808   6.903   2.256   0.394  0.4617 -0.7213  0.8942
    3MOL   H645 2809   6.996   2.061   0.492  0.3470  0.9934  0.0955
    3MOL   H646 2810   6.966   1.839   0.766  0.1575 -0.2548 -0.0937
    3MOL   H647 2811   7.211   1.871   0.842  0.7851 -0.0422  0.3248
    3MOL   H648 2812   7.466   2.157   0.630  2.8978  0.5492  1.1776
    3MOL   H649 2813   7.549   2.276   0.449  1.5913  1.0982 -1.3876
    3MOL   C650 2814   6.252   2.660   0.590  0.2962 -0.2667 -0.3106
    3MOL   C651 2815   6.165   2.744   0.518 -0.1829  0.3006 -0.1820
    3MOL   C652 2816   6.189   2.884   0.509  0.0785 -0.0389  0.4044
    3MOL   C653 2817   6.287   2.938   0.598  0.3406 -0.2848  0.8655
    3MOL   S654 2818   6.320   3.105   0.607 -0.0133 -0.2109 -0.4504
    3MOL   O655 2819   6.279   3.154   0.739 -0.5032  0.5655 -0.4952
    3MOL   O656 2820   6.259   3.171   0.489  0.3606 -0.5255 -0.5902
    3MOL   C657 2821   6.499   3.124   0.604 -0.2504  0.1252 -0.1761
    3MOL   C658 2822   6.567   3.051   0.502  0.4976  0.8241  0.2321
    3MOL   C659 2823   6.702   3.065   0.489  0.4389  0.1582 -0.1304
    3MOL   C660 2824   6.768   3.160   0.568 -0.3818 -0.3131 -0.4243
    3MOL   O661 2825   6.903   3.175   0.537  0.2487  0.0412 -0.0608
    3MOL   C662 2826   6.968   3.283   0.582  0.9003  0.2969 -0.1686
    3MOL   C663 2827   6.933   3.407   0.532  0.6988 -0.6911  0.3185
    3MOL   C664 2828   6.984   3.523   0.593  0.3163 -0.4320 -0.0510
    3MOL   C665 2829   7.055   3.519   0.716 -0.4417 -0.0057  0.3152
    3MOL   C666 2830   7.087   3.654   0.782 -0.0450  0.3325 -0.6178
    3MOL   C667 2831   7.152   3.630   0.921 -0.2916 -1.3605 -0.0609
    3MOL   C668 2832   7.198   3.725   0.697 -0.3136 -0.1122 -0.2914
    3MOL   C669 2833   6.960   3.735   0.794 -0.5627  0.5057 -0.0914
    3MOL   C670 2834   6.852   3.687   0.865 -0.4662  0.1050 -0.2614
    3MOL   C671 2835   6.737   3.771   0.889 -0.2195 -0.5423  0.1785
    3MOL   C672 2836   6.741   3.901   0.842  0.2073 -0.2370 -0.1486
    3MOL   O673 2837   6.638   3.985   0.883 -0.1119 -0.1174  0.3033
    3MOL   C674 2838   6.852   3.956   0.770 -0.1275  0.0863 -0.2370
    3MOL   C675 2839   6.958   3.867   0.744  0.4310  0.1599  0.0852
    3MOL   C676 2840   7.079   3.386   0.760 -0.2408 -0.1237 -0.3873
    3MOL   C677 2841   7.049   3.269   0.698 -0.1721 -0.0434  0.5617
    3MOL   C678 2842   6.702   3.233   0.671 -0.1620 -0.1815  0.8280
    3MOL   C679 2843   6.566   3.215   0.685  0.0589  0.3383 -0.4910
    3MOL   C680 2844   6.369   2.853   0.677 -0.6471  0.0765  0.4432
    3MOL   C681 2845   6.356   2.715   0.672 -0.6290  0.3433  0.2590
    3MOL   H682 2846   6.087   2.695   0.461  0.7001 -1.6096  0.2123
    3MOL   H683 2847   6.143   2.955   0.442  0.9189  0.4272  0.3139
    3MOL   H684 2848   6.503   2.992   0.437  1.1573  0.6616 -0.2793
    3MOL   H685 2849   6.751   3.015   0.407 -0.2764 -2.0508  0.7543
    3MOL   H686 2850   6.873   3.415   0.442 -1.7602 -3.0931  1.6526
    3MOL   H687 2851   6.957   3.620   0.552  0.9607 -1.0120 -1.9324
    3MOL   H688 2852   7.234   3.559   0.930  0.5887 -0.4728 -0.9071
    3MOL   H689 2853   7.071   3.602   0.987 -0.9730 -0.7180 -0.6233
    3MOL   H690 2854   7.182   3.729   0.956 -1.9515 -1.5701  2.0070
    3MOL   H691 2855   7.285   3.659   0.703 -0.7498 -0.6787 -0.1944
    3MOL   H692 2856   7.169   3.738   0.593 -3.1815 -1.0682  0.3316
    3MOL   H693 2857   7.223   3.822   0.739 -0.6579 -1.4399  3.1597
    3MOL   H694 2858   6.853   3.589   0.910 -0.8798  0.6406  0.9428
    3MOL   H695 2859   6.657   3.741   0.955 -0.8493  0.3852 -0.1616
    3MOL   H696 2860   6.856   4.060   0.745  0.1981 -0.1874 -1.3268
    3MOL   H697 2861   7.043   3.910   0.694  0.8055 -1.1206 -0.3811
    3MOL   H698 2862   7.136   3.375   0.851 -0.6596 -0.4074 -0.1598
    3MOL   H699 2863   7.083   3.180   0.750  1.7735  0.2146 -0.2522
    3MOL   H700 2864   6.744   3.317   0.723  0.8316 -0.2532  0.1682
    3MOL   H701 2865   6.516   3.280   0.755  0.7650  0.1382  0.2054
    3MOL   H702 2866   6.435   2.893   0.753 -0.5176 -0.9222  0.8541
    3MOL   H703 2867   6.423   2.642   0.714 -0.7877 -0.8690 -1.5328
    3MOL   C704 2868   6.520   3.987   0.820  0.0671  0.3741  0.7631
    3MOL   C705 2869   6.430   3.877   0.812  0.2456 -0.1467 -0.1971
    3MOL   C706 2870   6.313   3.901   0.737  0.5851  0.1531 -0.4183
    3MOL   C707 2871   6.275   4.030   0.684 -0.4513 -0.1827 -0.8812
    3MOL   S708 2872   6.117   4.049   0.602  0.0785  0.0102 -0.0022
    3MOL   O709 2873   6.051   4.159   0.672  0.1403  0.2278 -0.6585
    3MOL   O710 2874   6.053   3.918   0.601  0.0738  0.2717 -0.1005
    3MOL   C711 2875   6.161   4.085   0.431 -0.1130 -0.4045 -0.6945
    3MOL   C712 2876   6.062   4.148   0.358 -0.1514 -0.4284  0.0763
    3MOL   C713 2877   6.080   4.183   0.222 -0.2079  0.8576  0.9151
    3MOL   C714 2878   6.206   4.171   0.164 -0.0176  0.0151 -0.2966
    3MOL   O715 2879   6.217   4.192   0.031  0.3119 -0.0382 -0.2721
    3MOL   C716 2880   6.288   4.296   8.226 -0.3863 -0.2109 -0.0087
    3MOL   C717 2881   6.270   4.426   0.011 -0.0225 -0.2712  0.3365
    3MOL   C718 2882   6.324   4.531   8.187  0.7573 -0.5914  0.4802
    3MOL   C719 2883   6.412   4.508   8.074 -0.5973 -0.2848 -0.2523
    3MOL   C720 2884   6.468   4.617   7.985  1.0579  0.2096 -0.8450
    3MOL   C721 2885   6.485   4.743   8.065 -0.4551 -0.3379 -0.4200
    3MOL   C722 2886   6.600   4.586   7.934 -0.0702  0.7728 -0.0741
    3MOL   C723 2887   6.377   4.633   7.859  0.0625 -0.2768  0.0965
    3MOL   C724 2888   6.396   4.742   7.771 -0.2147  0.4536  0.2351
    3MOL   C725 2889   6.330   4.755   7.651  0.2042 -0.4489  0.1847
    3MOL   C726 2890   6.236   4.654   7.617 -0.0432  0.0938 -0.0698
    3MOL   O727 2891   6.163   4.669   7.500 -0.8138 -0.0011  0.7410
    3MOL   C728 2892   6.213   4.548   7.703 -0.1521 -0.9444  0.2099
    3MOL   C729 2893   6.283   4.536   7.819  0.2166  0.3993 -0.3838
    3MOL   C730 2894   6.429   4.372   8.038  0.0263 -0.0461  0.1103
    3MOL   C731 2895   6.361   4.266   8.109  0.0445  0.2434  0.4755
    3MOL   C732 2896   6.310   4.104   0.239  0.1737  0.3805 -0.1170
    3MOL   C733 2897   6.289   4.071   0.376 -0.7552  0.9359  0.9774
    3MOL   C734 2898   6.363   4.135   0.691 -0.4051  0.4577  0.9927
    3MOL   C735 2899   6.481   4.116   0.766  0.5335  0.7918 -0.1220
    3MOL   H736 2900   6.457   3.779   0.848 -0.6963  0.2178  1.5599
    3MOL   H737 2901   6.242   3.820   0.727  0.0656  0.2631  1.9228
    3MOL   H738 2902   5.969   4.173   0.408 -1.4152 -2.5669 -1.1110
    3MOL   H739 2903   6.004   4.228   0.160 -0.1885  0.8972  0.9196
    3MOL   H740 2904   6.211   4.448   0.098  0.1369  1.8704 -0.0771
    3MOL   H741 2905   6.296   4.632   8.214  2.0019  0.4406 -1.9560
    3MOL   H742 2906   6.392   4.786   8.101  0.6136 -0.4410  2.5960
    3MOL   H743 2907   6.535   4.830   8.022  0.6593 -0.8010 -0.0728
    3MOL   H744 2908   6.540   4.731   8.158  0.2603  0.2234 -0.7550
    3MOL   H745 2909   6.671   4.556   8.010  1.7358  0.0261 -2.0150
    3MOL   H746 2910   6.613   4.502   7.866  1.3804  0.9948 -0.0732
    3MOL   H747 2911   6.644   4.664   7.873 -0.5148  2.6213  1.8852
    3MOL   H748 2912   6.469   4.819   7.790  1.5897 -0.9347 -0.9791
    3MOL   H749 2913   6.371   4.832   7.588 -3.1267  0.7312 -0.6222
    3MOL   H750 2914   6.152   4.461   7.683  2.2097 -3.4467  3.3490
    3MOL   H751 2915   6.266   4.448   7.879 -1.0139  0.1614 -1.0748
    3MOL   H752 2916   6.490   4.343   7.954  0.5237  0.0940  0.4228
    3MOL   H753 2917   6.351   4.166   8.068 -0.8328  0.8125 -0.7194
    3MOL   H754 2918   6.406   4.089   0.192 -0.3475 -0.6823 -0.8504
    3MOL   H755 2919   6.368   4.022   0.431 -0.0107  0.7582 -0.2274
    3MOL   H756 2920   6.337   4.229   0.645 -1.0391  0.7718  1.9744
    3MOL   H757 2921   6.530   4.212   0.771 -0.5402  1.5870 -3.7153
    3MOL   C758 2922   6.027   4.644   7.512  0.1049  0.0774  0.6873
    3MOL   C759 2923   5.938   4.741   7.551 -0.2730 -0.5192  0.3133
    3MOL   C760 2924   5.797   4.710   7.548  0.0477 -0.3215  0.9020
    3MOL   C761 2925   5.752   4.580   7.519  0.3819  0.0071  0.3017
    3MOL   S762 2926   5.577   4.536   7.526 -0.7782 -0.3160  0.1928
    3MOL   O763 2927   5.503   4.659   7.498 -0.0260  0.5329  0.7262
    3MOL   O764 2928   5.563   4.487   7.663  0.0935  0.1578  0.3631
    3MOL   C765 2929   5.549   4.407   7.403  0.6524  0.1537 -0.1951
    3MOL   C766 2930   5.602   4.433   7.272 -0.0810 -0.1780 -0.4045
    3MOL   C767 2931   5.585   4.338   7.168  0.1013 -0.2214 -0.0487
    3MOL   C768 2932   5.519   4.218   7.201  0.0922  0.2875 -0.2750
    3MOL   O769 2933   5.498   4.119   7.108 -0.0515 -0.3753 -0.4638
    3MOL   C770 2934   5.398   4.130   7.015 -0.3386 -0.4307  0.5179
    3MOL   C771 2935   5.296   4.225   7.032  0.7343 -1.0585 -0.4452
    3MOL   C772 2936   5.209   4.253   6.924 -0.4021  0.6918 -0.2409
    3MOL   C773 2937   5.220   4.177   6.809  0.1310 -0.1955  0.1400
    3MOL   C774 2938   5.121   4.190   6.692 -0.2316 -0.1494 -0.7310
    3MOL   C775 2939   5.041   4.321   6.696  0.0751 -0.7298 -0.1056
    3MOL   C776 2940   5.184   4.194   6.558 -0.7564 -0.1445  0.1719
    3MOL   C777 2941   5.020   4.068   6.699  0.0401 -0.4390  0.3313
    3MOL   C778 2942   4.923   4.063   6.802 -0.2576  0.3118  0.1277
    3MOL   C779 2943   4.828   3.963   6.807 -0.1530 -1.0791 -0.3592
    3MOL   C780 2944   4.829   3.856   6.708  0.0241 -1.0106  0.6248
    3MOL   O781 2945   4.729   3.763   6.711  0.6047 -0.1367 -0.9067
    3MOL   C782 2946   4.923   3.857   6.608  0.1191  0.5060 -0.1332
    3MOL   C783 2947   5.021   3.961   6.602  0.5339 -0.1231 -0.2995
    3MOL   C784 2948   5.319   4.080   6.790  0.0395  0.7621 -0.1009
    3MOL   C785 2949   5.410   4.055   6.898 -0.0224 -0.0963  0.2425
    3MOL   C786 2950   5.485   4.184   7.332 -0.5863 -0.8340 -0.7553
    3MOL   C787 2951   5.490   4.285   7.434 -0.3553 -0.6403  0.1936
    3MOL   C788 2952   5.848   4.484   7.496 -0.1919  0.2155  0.7649
    3MOL   C789 2953   5.980   4.517   7.483  0.7265  0.3995  0.2164
    3MOL   H790 2954   5.976   4.836   7.583 -0.2536 -0.5566  0.4022
    3MOL   H791 2955   5.718   4.775   7.582 -0.8701 -1.5283  1.1340
    3MOL   H792 2956   5.661   4.522   7.255 -0.1960 -0.3683 -1.8855
    3MOL   H793 2957   5.633   4.341   7.071  0.5645  1.3672  0.2270
    3MOL   H794 2958   5.291   4.294   7.114  0.0806  0.4263 -1.7122
    3MOL   H795 2959   5.135   4.328   6.945 -0.0001  0.8547  0.6111
    3MOL   H796 2960   5.093   4.412   6.668 -1.2392  0.2309  0.5160
    3MOL   H797 2961   4.986   4.330   6.790  2.2745 -2.8338  1.4437
    3MOL   H798 2962   4.963   4.307   6.621 -2.0156 -0.7465  1.9921
    3MOL   H799 2963   5.246   4.106   6.539 -1.1729 -0.1660 -1.1631
    3MOL   H800 2964   5.114   4.200   6.474 -1.0529  0.2104  0.4419
    3MOL   H801 2965   5.244   4.284   6.555 -1.4307  0.3639  1.4216
    3MOL   H802 2966   4.925   4.143   6.875  0.7488  0.1334  0.3020
    3MOL   H803 2967   4.753   3.964   6.885  2.3860 -0.8779  2.1537
    3MOL   H804 2968   4.921   3.782   6.531  0.5160 -2.9758  3.0974
    3MOL   H805 2969   5.077   3.969   6.510 -2.6059  2.3312 -2.0654
    3MOL   H806 2970   5.337   4.019   6.702 -0.7554 -0.6988  0.7278
    3MOL   H807 2971   5.496   3.990   6.897 -0.2945 -0.4517 -1.1563
    3MOL   H808 2972   5.438   4.092   7.365  1.3477 -2.3883 -2.1874
    3MOL   H809 2973   5.458   4.264   7.536 -0.4594 -0.5577  0.1787
    3MOL   H810 2974   5.820   4.384   7.467  1.3042  0.2894 -1.0325
    3MOL   H811 2975   6.046   4.440   7.446  0.4926  0.0719  0.4824
    3MOL   C812 2976   4.601   3.798   6.679 -0.0397 -0.1878  0.2450
    3MOL   C813 2977   4.507   3.795   6.785 -0.1004 -0.9083  0.1007
    3MOL   C814 2978   4.369   3.832   6.764 -0.0382 -0.9068  0.7325
    3MOL   C815 2979   4.333   3.884   6.638  0.2618 -0.1878  0.7388
    3MOL   S816 2980   4.156   3.930   6.608  0.0295  0.1787  0.4202
    3MOL   O817 2981   4.148   4.007   6.485 -0.0089 -0.3697  0.0092
    3MOL   O818 2982   4.113   3.996   6.730 -0.4357  0.5259 -0.7716
    3MOL   C819 2983   4.067   3.768   6.587  0.3622 -0.0655  0.1101
    3MOL   C820 2984   4.134   3.646   6.577  0.1494 -0.0772  0.0533
    3MOL   C821 2985   4.053   3.531   6.539  0.1358 -0.5324 -0.0475
    3MOL   C822 2986   3.913   3.541   6.531  0.3798  0.0358  0.7877
    3MOL   O823 2987   3.827   3.444   6.486 -0.1557 -0.2009 -0.1938
    3MOL   C824 2988   3.877   3.318   6.489  0.0439 -0.6877 -0.3851
    3MOL   C825 2989   3.940   3.262   6.374 -0.5909 -0.5410 -0.3826
    3MOL   C826 2990   4.001   3.136   6.381  0.4503  0.2835  0.3366
    3MOL   C827 2991   4.013   3.062   6.503  0.0300  0.4290  0.7335
    3MOL   C828 2992   4.075   2.922   6.512 -0.7062 -0.3999 -0.3175
    3MOL   C829 2993   3.976   2.831   6.585 -0.6992  0.6769  0.1531
    3MOL   C830 2994   4.090   2.856   6.367  0.2564  0.4579  0.2757
    3MOL   C831 2995   4.211   2.919   6.581  0.7649  0.0825  0.3984
    3MOL   C832 2996   4.270   3.038   6.633  0.4351 -0.0071 -0.2200
    3MOL   C833 2997   4.393   3.028   6.704  0.5476 -0.5108 -0.0942
    3MOL   C834 2998   4.450   2.901   6.731 -0.5523 -0.3095 -0.1056
    3MOL   O835 2999   4.574   2.886   6.791  0.2756  0.6378  0.3485
    3MOL   C836 3000   4.385   2.788   6.690 -0.1108 -0.2739 -0.3836
    3MOL   C837 3001   4.271   2.795   6.611 -0.3785 -1.1809  0.0812
    3MOL   C838 3002   3.941   3.117   6.609  0.5894  0.7445  0.4368
    3MOL   C839 3003   3.869   3.243   6.604  0.0560 -0.3134 -0.2848
    3MOL   C840 3004   3.852   3.667   6.552  0.1138 -0.2898  0.6369
    3MOL   C841 3005   3.927   3.780   6.583 -0.3170  0.1196  0.5173
    3MOL   C842 3006   4.426   3.900   6.536 -0.3228  0.0739  0.0740
    3MOL   C843 3007   4.558   3.856   6.557  0.2704 -0.7486 -0.2717
    3MOL   H844 3008   4.539   3.763   6.883 -0.8223  0.0778  0.6706
    3MOL   H845 3009   4.298   3.833   6.846  0.2919 -0.4578  1.0105
    3MOL   H846 3010   4.241   3.657   6.575  0.1708 -0.3169 -0.1574
    3MOL   H847 3011   4.111   3.445   6.512  0.3117 -0.5054  0.2455
    3MOL   H848 3012   3.946   3.313   6.279  2.9409  0.0954  0.1053
    3MOL   H849 3013   4.044   3.090   6.293 -1.6325  2.5876 -1.9679
    3MOL   H850 3014   3.880   2.844   6.535  0.4363 -0.7417 -2.4880
    3MOL   H851 3015   3.960   2.853   6.691  0.3299  0.0853  0.4396
    3MOL   H852 3016   4.003   2.725   6.579  0.0287  0.9669 -2.3389
    3MOL   H853 3017   3.989   2.861   6.329  0.9185  2.0619 -1.3362
    3MOL   H854 3018   4.160   2.911   6.304  0.5151 -0.4328 -0.2241
    3MOL   H855 3019   4.129   2.754   6.363 -0.0393  0.3814 -0.8215
    3MOL   H856 3020   4.229   3.136   6.613  0.9044  0.2828  0.2260
    3MOL   H857 3021   4.447   3.117   6.734  0.3053 -0.1552 -0.6987
    3MOL   H858 3022   4.417   2.687   6.713  1.3637  0.2669 -0.0203
    3MOL   H859 3023   4.232   2.700   6.576 -0.0183 -1.3326  0.0819
    3MOL   H860 3024   3.939   3.059   6.700  1.0763 -0.3995 -0.2834
    3MOL   H861 3025   3.824   3.279   6.695 -0.1395 -0.9303 -0.1358
    3MOL   H862 3026   3.744   3.679   6.545  0.0792 -1.5317 -1.7636
    3MOL   H863 3027   3.874   3.873   6.590 -0.4565 -0.0259  1.5160
    3MOL   H864 3028   4.399   3.937   6.439 -2.0354  0.0142  0.5139
    3MOL   H865 3029   4.634   3.862   6.481 -0.7684  2.1267 -1.1373
    3MOL   C866 3030   4.669   2.986   6.788 -0.4441 -0.1561  0.9869
    3MOL   C867 3031   4.728   3.038   6.907 -0.4819 -0.2252  0.1615
    3MOL   C868 3032   4.834   3.130   6.897 -0.1280 -0.6342  0.0435
    3MOL   C869 3033   4.883   3.167   6.769 -0.4340 -0.6356 -0.1182
    3MOL   S870 3034   5.010   3.289   6.749  0.0843 -0.1083  0.0051
    3MOL   O871 3035   5.029   3.358   6.881 -0.1633 -0.3409  0.0265
    3MOL   O872 3036   4.980   3.364   6.630  0.0705 -0.3308  0.1281
    3MOL   C873 3037   5.151   3.191   6.709  0.2279  0.9094  0.2232
    3MOL   C874 3038   5.257   3.179   6.799 -0.0729  0.0237  0.2135
    3MOL   C875 3039   5.379   3.122   6.764 -0.9006  0.8232  0.4714
    3MOL   C876 3040   5.400   3.066   6.632  0.1122 -0.1937 -0.3152
    3MOL   O877 3041   5.517   3.009   6.592 -0.3343 -0.1277  0.5552
    3MOL   C878 3042   5.628   3.026   6.664 -0.5836 -0.0665 -0.0891
    3MOL   C879 3043   5.694   2.914   6.732  0.2653  0.5623 -0.2905
    3MOL   C880 3044   5.819   2.929   6.800 -0.6209  0.2656 -0.3169
    3MOL   C881 3045   5.879   3.057   6.815 -0.1079 -0.3413 -0.1627
    3MOL   C882 3046   6.018   3.069   6.886 -0.7523  0.1699 -0.0486
    3MOL   C883 3047   6.086   2.930   6.915 -0.0033  0.3715  0.4172
    3MOL   C884 3048   6.109   3.144   6.787  0.5235  0.5388  0.1542
    3MOL   C885 3049   6.008   3.146   7.019  0.4144  0.2372 -0.4210
    3MOL   C886 3050   5.881   3.172   7.083  0.0273 -0.0358 -0.2057
    3MOL   C887 3051   5.874   3.236   7.208  0.1142 -0.5652  0.3125
    3MOL   C888 3052   5.990   3.297   7.258  0.2550 -0.1989  0.2988
    3MOL   O889 3053   5.979   3.382   7.367  0.1064  0.5280  0.8579
    3MOL   C890 3054   6.116   3.274   7.198  0.7388 -0.5066 -0.4123
    3MOL   C891 3055   6.123   3.192   7.086  0.3955 -0.1516 -0.4155
    3MOL   C892 3056   5.809   3.164   6.760  0.4875 -0.3176  0.6871
    3MOL   C893 3057   5.691   3.151   6.680 -0.0718 -0.6964  0.1746
    3MOL   C894 3058   5.292   3.062   6.548 -0.2241  0.5642  1.1447
    3MOL   C895 3059   5.171   3.130   6.584  0.0108  0.4125 -0.0011
    3MOL   C896 3060   4.815   3.129   6.651 -0.3287  0.5300 -0.1710
    3MOL   C897 3061   4.717   3.035   6.664 -1.1086  0.7930  0.0608
    3MOL   H898 3062   4.710   2.997   7.005 -0.5505  1.0015  0.6600
    3MOL   H899 3063   4.876   3.180   6.983  0.4196 -2.7835  1.0546
    3MOL   H900 3064   5.241   3.213   6.901 -0.0582 -0.9485  0.5482
    3MOL   H901 3065   5.461   3.120   6.834 -0.7415 -1.3375  0.2729
    3MOL   H902 3066   5.655   2.813   6.734  0.7048  0.4212  2.1057
    3MOL   H903 3067   5.858   2.834   6.834 -1.0995  0.3663  0.5193
    3MOL   H904 3068   6.020   2.886   6.989 -0.1882  2.5420  1.5965
    3MOL   H905 3069   6.185   2.944   6.958 -0.6923  0.1344  2.1317
    3MOL   H906 3070   6.095   2.849   6.842 -3.0026 -1.1222  1.6141
    3MOL   H907 3071   6.080   3.245   6.759 -0.6904 -0.3955 -2.0959
    3MOL   H908 3072   6.203   3.168   6.836  0.6676  1.9036 -0.7669
    3MOL   H909 3073   6.117   3.099   6.688 -0.3549  1.0878 -0.1808
    3MOL   H910 3074   5.791   3.134   7.038 -0.8854 -0.0439  1.5685
    3MOL   H911 3075   5.780   3.257   7.256  0.5697 -0.7252  1.3102
    3MOL   H912 3076   6.207   3.323   7.230 -0.5123  0.1487  2.3195
    3MOL   H913 3077   6.224   3.173   7.053  0.0644 -0.7430 -1.1166
    3MOL   H914 3078   5.850   3.263   6.776 -0.5032 -0.1607  2.3441
    3MOL   H915 3079   5.656   3.248   6.649  0.4949 -0.2052  1.0544
    3MOL   H916 3080   5.289   3.021   6.448  0.4888  0.6056  1.1098
    3MOL   H917 3081   5.097   3.148   6.508 -1.1056 -2.8422  0.2595
    3MOL   H918 3082   4.834   3.165   6.551  0.4211  0.2332 -0.1407
    3MOL   H919 3083   4.673   2.991   6.576 -1.2249 -1.7982  1.3706
    3MOL   C920 3084   5.913   3.499   7.340  0.2541 -0.1047  0.2562
    3MOL   C921 3085   5.773   3.508   7.345 -0.5635  0.2701 -0.6718
    3MOL   C922 3086   5.712   3.622   7.302  0.1691 -0.2595  0.0697
    3MOL   C923 3087   5.787   3.739   7.281  0.1558  0.1433  0.1047
    3MOL   S924 3088   5.711   3.895   7.241 -0.1688  0.0298  0.0050
    3MOL   O925 3089   5.811   3.993   7.285 -0.6942 -0.2529  0.7286
    3MOL   O926 3090   5.572   3.886   7.286 -0.5241 -0.2644 -0.2522
    3MOL   C927 3091   5.719   3.898   7.053 -0.8704  0.0374 -0.0491
    3MOL   C928 3092   5.674   3.788   6.974 -1.0931  0.1364 -0.0739
    3MOL   C929 3093   5.698   3.788   6.839  0.8239  0.7059  0.4381
    3MOL   C930 3094   5.752   3.902   6.774 -0.0129 -0.4546  0.6245
    3MOL   O931 3095   5.774   3.882   6.641  0.4182 -0.1331  0.8729
    3MOL   C932 3096   5.682   3.928   6.553  0.0590 -0.3179 -0.0348
    3MOL   C933 3097   5.698   4.047   6.479 -0.1771 -0.9733 -0.0849
    3MOL   C934 3098   5.617   4.083   6.368  0.1084  0.0721 -0.5241
    3MOL   C935 3099   5.503   3.998   6.336 -0.2006  0.3468  0.2576
    3MOL   C936 3100   5.420   4.020   6.202 -0.4368  0.4493 -0.4816
    3MOL   C937 3101   5.379   4.165   6.199  0.0913 -0.1142  0.2567
    3MOL   C938 3102   5.506   3.986   6.083  0.5169  0.1793  0.1793
    3MOL   C939 3103   5.298   3.920   6.198  0.0135  0.1164  0.5411
    3MOL   C940 3104   5.173   3.960   6.243  0.0292  0.3600  0.3733
    3MOL   C941 3105   5.061   3.871   6.245  0.5088  0.9036 -0.3223
    3MOL   C942 3106   5.079   3.746   6.184  0.0753  0.2289  0.0591
    3MOL   O943 3107   4.977   3.669   6.148 -0.1167  0.1733 -0.1835
    3MOL   C944 3108   5.205   3.699   6.152 -0.8716 -0.4051 -0.2628
    3MOL   C945 3109   5.316   3.786   6.167 -0.0011  0.0965  0.4781
    3MOL   C946 3110   5.475   3.890   6.425 -0.0088  0.6434  0.4888
    3MOL   C947 3111   5.567   3.857   6.527 -0.0650 -1.0928  0.8034
    3MOL   C948 3112   5.801   4.010   6.847  0.6476  0.2876  0.2804
    3MOL   C949 3113   5.788   4.007   6.988  0.3065 -0.4636 -0.4136
    3MOL   C950 3114   5.926   3.733   7.292  0.6421 -0.0747  0.0727
    3MOL   C951 3115   5.990   3.615   7.330  0.0645  0.2224  0.0356
    3MOL   H952 3116   5.707   3.428   7.373  0.9454 -0.5067  0.7101
    3MOL   H953 3117   5.606   3.637   7.293  0.5777  2.4359 -0.7277
    3MOL   H954 3118   5.636   3.701   7.025 -0.2494 -0.4487 -0.4288
    3MOL   H955 3119   5.676   3.696   6.789  0.0934  1.9573 -1.5867
    3MOL   H956 3120   5.784   4.111   6.491  0.0994 -1.3322 -0.1520
    3MOL   H957 3121   5.645   4.173   6.316  0.9018 -0.1624 -0.5018
    3MOL   H958 3122   5.470   4.223   6.188  0.8894 -1.3153  0.4602
    3MOL   H959 3123   5.324   4.205   6.284  0.5906  0.4256  0.3221
    3MOL   H960 3124   5.313   4.175   6.113 -0.3957 -0.7945  0.5385
    3MOL   H961 3125   5.596   4.046   6.100  0.3783  0.3282  0.3938
    3MOL   H962 3126   5.534   3.881   6.086 -0.1844 -0.0391 -0.8603
    3MOL   H963 3127   5.453   4.012   5.992 -1.4536  0.7975  1.4580
    3MOL   H964 3128   5.170   4.062   6.281  1.8625 -0.0502  1.7292
    3MOL   H965 3129   4.961   3.904   6.270 -0.1074  0.9372 -2.6769
    3MOL   H966 3130   5.221   3.596   6.124 -0.6374 -0.2972 -0.5330
    3MOL   H967 3131   5.412   3.741   6.143  0.2321  0.3077  0.9995
    3MOL   H968 3132   5.392   3.822   6.415  0.7356 -0.3847  1.1653
    3MOL   H969 3133   5.535   3.776   6.592  1.4939 -1.1060  1.5785
    3MOL   H970 3134   5.858   4.086   6.795  3.9275 -1.4988  1.1194
    3MOL   H971 3135   5.837   4.086   7.044  0.5836  0.4383 -1.8957
    3MOL   H972 3136   5.990   3.820   7.285  2.2804 -1.2920 -0.4100
    3MOL   H973 3137   6.096   3.614   7.353  0.2428  0.9896 -0.7129
    3MOL   C974 3138   4.881   3.639   6.239  0.0214  0.0635  0.0829
    3MOL   C975 3139   4.897   3.520   6.308 -0.5472  0.3019 -0.2590
    3MOL   C976 3140   4.801   3.468   6.387 -0.2848  0.3804 -0.1054
    3MOL   C977 3141   4.676   3.528   6.392 -0.6818  0.2119  0.1398
    3MOL   S978 3142   4.538   3.441   6.467  0.1711 -0.4127 -0.9021
    3MOL   O979 3143   4.541   3.304   6.427 -0.3162  0.1922  0.0121
    3MOL   O980 3144   4.419   3.529   6.459 -0.0975 -0.5938  0.2444
    3MOL   C981 3145   4.559   3.429   6.648  0.2023 -0.4675  0.9670
    3MOL   C982 3146   4.684   3.437   6.705  0.4147  0.4299  0.1705
    3MOL   C983 3147   4.699   3.441   6.846 -0.2416  0.1179  0.0847
    3MOL   C984 3148   4.590   3.435   6.935  0.5727  0.2027  0.1824
    3MOL   O985 3149   4.599   3.437   7.074  0.4194  0.8032 -0.1060
    3MOL   C986 3150   4.588   3.566   7.128 -0.0299  0.9845  0.6191
    3MOL   C987 3151   4.692   3.652   7.107 -0.2234  0.0432 -0.2524
    3MOL   C988 3152   4.687   3.784   7.144  0.6672 -0.3736  1.1208
    3MOL   C989 3153   4.571   3.842   7.200 -0.0352 -0.1247 -0.6437
    3MOL   C990 3154   4.560   3.990   7.239 -0.0168 -0.2139 -0.3604
    3MOL   C991 3155   4.490   4.066   7.127  0.1636  0.2901  0.0037
    3MOL   C992 3156   4.480   4.002   7.369  0.4539  0.6560  0.0205
    3MOL   C993 3157   4.702   4.042   7.275 -0.6720  0.4542  0.0800
    3MOL   C994 3158   4.765   4.002   7.394  0.0798 -0.3719 -0.1550
    3MOL   C995 3159   4.898   4.045   7.426  0.4969 -0.2562 -0.3535
    3MOL   C996 3160   4.967   4.128   7.328  0.0597  0.1353 -0.6530
    3MOL   O997 3161   5.100   4.158   7.343 -0.2837  0.0905 -0.4248
    3MOL   C998 3162   4.907   4.158   7.209  0.2119  0.6813 -0.2297
    3MOL   C999 3163   4.775   4.119   7.188 -0.2120 -0.1287  0.2905
    3MOL     C1 3164   4.460   3.759   7.216  0.4463  0.5308  0.2127
    3MOL     C2 3165   4.464   3.619   7.173 -0.2391 -0.6919 -0.0124
    3MOL     C3 3166   4.459   3.414   6.876 -0.0971  0.1690  0.4841
    3MOL     C4 3167   4.442   3.411   6.733 -0.3911  0.0333 -0.2093
    3MOL     C5 3168   4.654   3.648   6.323 -0.7499 -0.4711 -0.4535
    3MOL     C6 3169   4.762   3.713   6.258 -0.1376 -0.0226 -0.6854
    3MOL     H7 3170   4.990   3.471   6.282  0.3716  0.6762  2.2437
    3MOL     H8 3171   4.819   3.371   6.430 -1.8199  0.3418  0.4701
    3MOL     H9 3172   4.774   3.426   6.645 -1.4767 -0.6969 -2.5838
    3MOL    H10 3173   4.799   3.431   6.885 -0.7058 -0.4584  1.1731
    3MOL    H11 3174   4.779   3.614   7.055  0.2516 -1.0697  1.3182
    3MOL    H12 3175   4.778   3.836   7.115 -0.0551  0.0142 -0.5316
    3MOL    H13 3176   4.523   4.039   7.026  1.1216 -2.5665  1.0403
    3MOL    H14 3177   4.511   4.172   7.137  1.7927 -0.0509  0.3155
    3MOL    H15 3178   4.386   4.042   7.106  0.1515  0.4320 -0.0922
    3MOL    H16 3179   4.375   3.988   7.344  0.1595 -0.4184  1.7821
    3MOL    H17 3180   4.509   3.923   7.438 -1.9811 -0.1651  0.1313
    3MOL    H18 3181   4.494   4.102   7.413  0.4139  0.8492 -0.4034
    3MOL    H19 3182   4.715   3.926   7.451  2.1427 -1.6244  0.0448
    3MOL    H20 3183   4.944   4.015   7.519 -0.0273 -0.9030 -0.2980
    3MOL    H21 3184   4.958   4.215   7.133  1.2737 -2.4207 -1.9175
    3MOL    H22 3185   4.734   4.151   7.093 -2.0277 -0.4776  0.9393
    3MOL    H23 3186   4.361   3.799   7.231 -0.2286  0.0082 -2.5320
    3MOL    H24 3187   4.376   3.557   7.168 -1.2307  0.7044 -0.0138
    3MOL    H25 3188   4.376   3.401   6.944 -1.7983 -1.6145 -1.8603
    3MOL    H26 3189   4.348   3.390   6.684  0.2794  0.6838 -1.8262
    3MOL    H27 3190   4.561   3.702   6.327  1.0918  2.9422 -1.8789
    3MOL    H28 3191   4.746   3.809   6.212 -0.0747 -0.6077 -1.9421
    3MOL    C29 3192   5.150   4.167   7.469 -0.1482 -0.4847 -0.4477
    3MOL    C30 3193   5.111   4.285   7.543 -0.6739  0.2126 -0.3463
    3MOL    C31 3194   5.135   4.290   7.679  0.2064  0.4968 -0.5916
    3MOL    C32 3195   5.186   4.179   7.751 -0.1933 -0.3077  1.0247
    3MOL    S33 3196   5.193   4.182   7.923  0.0144  0.1228  0.3894
    3MOL    O34 3197   5.129   4.056   7.967 -0.4767 -0.6141  0.1647
    3MOL    O35 3198   5.146   4.312   7.970 -0.9511 -0.4552 -0.1864
    3MOL    C36 3199   5.368   4.175   7.968  0.1961  0.2946  0.0229
    3MOL    C37 3200   5.474   4.229   7.888  0.2188  1.1874  0.1896
    3MOL    C38 3201   5.605   4.243   7.948 -0.0820 -0.2623  0.2402
    3MOL    C39 3202   5.632   4.198   8.079  0.0654 -0.1973 -0.9661
    3MOL    O40 3203   5.763   4.221   8.128  0.2216 -0.0678  0.2823
    3MOL    C41 3204   5.813   4.346   8.123  0.0426 -0.5266  0.5226
    3MOL    C42 3205   5.932   4.364   8.056 -0.5142 -0.0681 -0.1434
    3MOL    C43 3206   5.984   4.495   8.051  0.0150  0.7541 -0.1627
    3MOL    C44 3207   5.908   4.608   8.094 -0.2087  0.2340  0.3516
    3MOL    C45 3208   5.960   4.750   8.064  0.0521 -0.0408 -0.4703
    3MOL    C46 3209   6.050   4.757   7.936 -0.2585 -0.8001  0.0390
    3MOL    C47 3210   5.835   4.840   8.041 -0.0137  0.6322  0.4856
    3MOL    C48 3211   6.037   4.812   8.182 -0.2551  0.5470 -0.3950
    3MOL    C49 3212   6.051   4.745   0.052 -0.1586  0.3147  0.1950
    3MOL    C50 3213   6.138   4.791   0.146  0.0293  0.5324  0.2452
    3MOL    C51 3214   6.224   4.902   0.127 -0.6486  0.1781 -0.1956
    3MOL    O52 3215   6.303   4.943   0.230  0.0292  0.3423  0.3420
    3MOL    C53 3216   6.202   4.974   0.010 -0.2581 -0.6267 -0.9574
    3MOL    C54 3217   6.120   4.923   8.166  0.1266 -0.6190 -0.1233
    3MOL    C55 3218   5.785   4.587   8.150  0.6279 -0.0815 -0.0385
    3MOL    C56 3219   5.738   4.456   8.177 -0.4890  0.6683  0.6573
    3MOL    C57 3220   5.527   4.137   8.156 -0.9187  0.2480  0.1692
    3MOL    C58 3221   5.406   4.126   8.100  0.3200 -0.1815  0.1763
    3MOL    C59 3222   5.232   4.067   7.685  0.3937  0.3350  0.0679
    3MOL    C60 3223   5.215   4.062   7.545 -0.3739  0.0577 -0.2738
    3MOL    H61 3224   5.050   4.358   7.492  2.1617  0.9474 -2.8462
    3MOL    H62 3225   5.109   4.379   7.735 -2.1147 -0.9812  0.7953
    3MOL    H63 3226   5.452   4.258   7.786  0.0524 -0.3363 -0.2260
    3MOL    H64 3227   5.680   4.302   7.897  0.2736 -0.9183 -0.0149
    3MOL    H65 3228   6.000   4.284   8.032  0.0305 -0.1800  1.7070
    3MOL    H66 3229   6.086   4.494   8.016  0.0496  1.8676 -0.1114
    3MOL    H67 3230   6.014   4.689   7.858  1.2107 -0.4942 -0.9491
    3MOL    H68 3231   6.151   4.721   7.958 -0.1790 -0.2999  0.4774
    3MOL    H69 3232   6.051   4.861   7.904 -3.0317 -0.8364 -0.2340
    3MOL    H70 3233   5.770   4.805   7.960  0.7408 -0.6331  0.4240
    3MOL    H71 3234   5.783   4.858   8.135 -0.5270  1.4170  0.0582
    3MOL    H72 3235   5.874   4.940   8.024  0.5717  0.1741 -0.9369
    3MOL    H73 3236   5.989   4.661   0.080 -0.7944  0.0703 -1.8288
    3MOL    H74 3237   6.136   4.744   0.243 -0.5247  1.5580  0.7329
    3MOL    H75 3238   6.253   5.066   8.236 -1.7365  0.1325 -1.1766
    3MOL    H76 3239   6.109   4.982   8.076  1.7913  0.4559  0.3704
    3MOL    H77 3240   5.721   4.667   8.185 -1.3751 -2.0323  0.9223
    3MOL    H78 3241   5.649   4.433   8.233  0.2160 -1.1333  1.0871
    3MOL    H79 3242   5.539   4.103   0.005 -0.0035 -0.8700 -0.2963
    3MOL    H80 3243   5.326   4.088   8.162  1.5108 -1.8885  0.6720
    3MOL    H81 3244   5.272   3.979   7.734  0.6167 -0.0909 -0.8819
    3MOL    H82 3245   5.260   3.982   7.487 -2.0961  0.0545 -1.6329
    3MOL    H83 3246   6.356   5.020   0.212  0.5231 -0.0351  0.1810
    4MOL     C1 3247   7.185   4.009   0.450 -0.1726  0.3829  0.9576
    4MOL     C2 3248   7.293   4.073   0.525  0.3510  0.3765  0.0665
    4MOL     C3 3249   7.408   4.122   0.462 -0.2860  0.6142  1.0797
    4MOL     C4 3250   7.420   4.095   0.325  0.1195 -0.6254  0.0543
    4MOL     S5 3251   7.554   4.169   0.234  0.4167  0.5021 -0.4503
    4MOL     O6 3252   7.640   4.235   0.332 -0.2026 -0.0746 -0.0473
    4MOL     O7 3253   7.485   4.252   0.131 -0.1238 -0.1219  0.0389
    4MOL     C8 3254   7.640   4.036   0.148  0.6208 -0.1885 -0.5830
    4MOL     C9 3255   7.739   3.958   0.211  0.7653 -0.4217 -0.0156
    4MOL    C10 3256   7.801   3.853   0.144  0.4698  0.4819 -0.4532
    4MOL    C11 3257   7.767   3.827   0.010  0.1699  0.8849  0.5344
    4MOL    O12 3258   7.810   3.716   8.195 -0.4000 -0.0399 -0.2370
    4MOL    C13 3259   7.944   3.703   8.188 -0.3574  0.2360 -0.3705
    4MOL    C14 3260   8.014   3.806   8.124  0.5193 -0.0743 -0.5600
    4MOL    C15 3261   8.153   3.805   8.119 -0.7136 -0.0706  0.1857
    4MOL    C16 3262   8.228   3.695   8.182  0.5828 -0.4129  1.4352
    4MOL    C17 3263   0.129   3.675   8.174 -0.3209 -0.4859  0.1147
    4MOL    C18 3264   0.150   3.550   8.092  0.3121  0.0811 -0.1974
    4MOL    C19 3265   0.199   3.796   8.106 -0.3733  0.3924 -0.1810
    4MOL    C20 3266   0.193   3.681   0.062  0.3392 -0.2124 -0.3205
    4MOL    C21 3267   0.314   3.606   0.089  0.1622 -0.4770 -0.9620
    4MOL    C22 3268   0.362   3.600   0.219  0.2640  0.6943 -0.0803
    4MOL    C23 3269   0.296   3.657   0.329  0.2376 -0.0537  0.0861
    4MOL    O24 3270   0.337   3.634   0.456  0.1756  0.5103 -0.6348
    4MOL    C25 3271   0.190   3.747   0.295  0.2471 -0.5251 -0.0348
    4MOL    C26 3272   0.136   3.762   0.162 -0.0463  0.4907 -0.2749
    4MOL    C27 3273   8.156   3.594   8.248 -0.4378 -0.0509  0.0516
    4MOL    C28 3274   8.014   3.596   8.248 -0.2752  0.2715  0.9445
    4MOL    C29 3275   7.672   3.906   8.200  0.2106  0.1079 -0.0899
    4MOL    C30 3276   7.606   4.011   0.017 -0.4057 -0.0820 -0.0948
    4MOL    C31 3277   7.315   4.031   0.250  0.6331  0.6308  0.0102
    4MOL    C32 3278   7.198   3.988   0.311 -0.2574  0.4855 -0.3329
    4MOL    H33 3279   7.279   4.090   0.631  0.7477  0.0917  0.1639
    4MOL    H34 3280   7.485   4.174   0.517  0.2581  2.0544 -1.0030
    4MOL    H35 3281   7.757   3.977   0.316 -0.6035 -2.9657  0.7124
    4MOL    H36 3282   7.859   3.783   0.203  1.7367 -0.4607 -2.7522
    4MOL    H37 3283   7.948   3.880   8.082 -2.0723 -2.4215 -0.8019
    4MOL    H38 3284   8.205   3.888   8.073 -0.7763  0.0048  0.2516
    4MOL    H39 3285   0.092   3.543   8.000  0.5083  0.7897 -0.3767
    4MOL    H40 3286   0.113   3.464   8.148  1.3894 -2.5957 -3.4958
    4MOL    H41 3287   0.253   3.518   8.082  0.2676 -0.1504  0.0805
    4MOL    H42 3288   0.161   3.806   8.004  0.6147  1.2882 -0.4621
    4MOL    H43 3289   0.188   3.894   8.153 -1.5316  0.6646 -0.9948
    4MOL    H44 3290   0.307   3.783   8.099 -0.5191  0.7155 -4.0933
    4MOL    H45 3291   0.362   3.551   0.009 -0.8583 -0.6034 -1.5030
    4MOL    H46 3292   0.442   3.531   0.239 -0.3217  0.4666  1.5341
    4MOL    H47 3293   0.135   3.806   0.368  0.2899 -1.5360  0.8302
    4MOL    H48 3294   0.056   3.831   0.140 -2.2561 -2.3248 -1.2671
    4MOL    H49 3295   8.206   3.512   0.045 -0.8790  1.0322  2.3610
    4MOL    H50 3296   7.952   3.525   0.048 -2.9085  2.0311  0.3398
    4MOL    H51 3297   7.638   3.881   8.100  2.1954 -0.9783 -0.5284
    4MOL    H52 3298   7.528   4.073   8.230 -0.6872 -1.0476 -1.0523
    4MOL    H53 3299   7.325   4.015   0.143 -0.0899  2.4749 -0.3603
    4MOL    H54 3300   7.116   3.934   0.264  0.4219 -1.0377  0.1848
    4MOL    H55 3301   7.098   3.969   0.501 -0.7552  1.0782  0.5095
    4MOL    C56 3302   0.340   3.735   0.548  0.9683  0.1204 -0.2942
    4MOL    C57 3303   0.396   3.857   0.510 -0.4129  0.3897  0.7736
    4MOL    C58 3304   0.416   3.960   0.601 -0.2931 -0.0592 -0.8147
    4MOL    C59 3305   0.382   3.939   0.739 -0.7375  0.0805 -0.1255
    4MOL    S60 3306   0.424   4.061   0.859  0.2141 -0.3430 -0.0493
    4MOL    O61 3307   0.341   4.026   0.974 -0.1179 -0.5087 -0.4829
    4MOL    O62 3308   0.409   4.186   0.793  0.4049 -0.5006 -0.0410
    4MOL    C63 3309   0.599   4.036   0.907  0.5589 -0.3380  0.1609
    4MOL    C64 3310   0.700   4.010   0.816 -0.8030 -0.1399 -0.2114
    4MOL    C65 3311   0.830   3.971   0.858  0.1484  0.6160 -0.2412
    4MOL    C66 3312   0.857   3.958   0.997 -0.4277 -0.3973 -0.0624
    4MOL    O67 3313   0.981   3.923   1.033  0.4012  0.6923  0.2215
    4MOL    C68 3314   0.998   3.811   1.113 -0.2814 -0.1146 -0.2421
    4MOL    C69 3315   0.983   3.678   1.059 -0.1464 -0.2249  0.7159
    4MOL    C70 3316   0.987   3.568   1.139  0.2047  0.2832  0.3149
    4MOL    C71 3317   1.029   3.579   1.274  0.3466  0.5152 -0.0627
    4MOL    C72 3318   1.040   3.451   1.362  0.5790  0.2997 -0.8895
    4MOL    C73 3319   1.083   3.323   1.285  0.3685 -0.0175 -0.4571
    4MOL    C74 3320   1.159   3.476   1.462 -0.3510  0.3295 -0.0668
    4MOL    C75 3321   0.907   3.413   1.424  0.8626 -0.6226  0.6495
    4MOL    C76 3322   0.902   3.351   1.549  0.2930  0.3134 -1.5254
    4MOL    C77 3323   0.778   3.318   1.610 -0.9060 -0.0358 -0.4142
    4MOL    C78 3324   0.658   3.344   1.540  0.6923 -0.1585  0.3264
    4MOL    O79 3325   0.530   3.343   1.592  0.1936 -0.0359 -0.5528
    4MOL    C80 3326   0.659   3.396   1.410 -0.4044  0.7094  0.4609
    4MOL    C81 3327   0.783   3.437   1.354  0.4140  0.2282  0.0426
    4MOL    C82 3328   1.045   3.707   1.328  1.1725 -0.5110 -0.1748
    4MOL    C83 3329   1.027   3.820   1.245  0.3686  0.9653 -0.5069
    4MOL    C84 3330   0.755   3.991   1.091 -0.4784  0.9089  0.3755
    4MOL    C85 3331   0.625   4.027   1.047  0.1057 -0.4484 -0.0914
    4MOL    C86 3332   0.317   3.819   0.774 -0.7221 -0.1773 -0.6103
    4MOL    C87 3333   0.299   3.714   0.684 -0.0995 -0.3340  0.4078
    4MOL    H88 3334   0.435   3.857   0.409  0.6304 -2.2420  1.1525
    4MOL    H89 3335   0.474   4.046   0.570  2.9607 -2.0679 -0.5130
    4MOL    H90 3336   0.681   4.022   0.710 -0.9108 -1.0201 -0.2941
    4MOL    H91 3337   0.906   3.955   0.784  0.1334  2.8363 -0.7942
    4MOL    H92 3338   0.960   3.654   0.956 -0.8252  1.5365  0.4287
    4MOL    H93 3339   0.975   3.470   1.094  0.3028  0.3450  0.1517
    4MOL    H94 3340   1.111   3.238   1.348  0.9849  0.2281 -0.3923
    4MOL    H95 3341   1.171   3.357   1.230 -0.0380  1.5526 -0.1542
    4MOL    H96 3342   1.023   3.282   1.204  0.9749 -1.1801 -0.3342
    4MOL    H97 3343   1.182   3.387   1.519 -0.6117  0.7531  0.7131
    4MOL    H98 3344   1.248   3.510   1.410  1.0105  2.6164  3.5544
    4MOL    H99 3345   1.130   3.551   1.536  0.3705 -0.3404  0.9077
    4MOL   H100 3346   0.996   3.329   1.596 -1.0304 -3.3534 -0.3733
    4MOL   H101 3347   0.772   3.282   1.712 -1.7509  1.1437 -0.0391
    4MOL   H102 3348   0.572   3.402   1.347 -0.6769  0.1072  0.7836
    4MOL   H103 3349   0.782   3.481   1.256 -0.2936 -0.0272 -0.0753
    4MOL   H104 3350   1.063   3.715   1.435  0.9276 -2.2082  0.0158
    4MOL   H105 3351   1.039   3.918   1.289  1.6773  1.3713 -1.7050
    4MOL   H106 3352   0.777   3.974   1.195 -0.2440 -2.3133 -0.1756
    4MOL   H107 3353   0.542   4.036   1.115  1.4326 -2.2129  1.8137
    4MOL   H108 3354   0.290   3.812   0.878 -1.3209 -1.5059 -0.8463
    4MOL   H109 3355   0.264   3.617   0.717 -2.8983  0.5059 -0.0351
    4MOL   C110 3356   0.508   3.335   1.729 -0.2790  0.5568  0.4922
    4MOL   C111 3357   0.489   3.455   1.804  0.4536 -0.1623 -0.5628
    4MOL   C112 3358   0.476   3.446   1.946  0.6293  0.0064  0.1951
    4MOL   C113 3359   0.455   3.319   2.000  0.9122  0.2760 -0.8106
    4MOL   S114 3360   0.423   3.302   2.181  0.2740  0.6888 -0.0282
    4MOL   O115 3361   0.284   3.267   2.189 -0.0021  0.1510  0.3546
    4MOL   O116 3362   0.474   3.422   2.250 -0.1227  0.0458  0.1441
    4MOL   C117 3363   0.516   3.166   2.235 -0.8065  0.3250 -0.3740
    4MOL   C118 3364   0.459   3.041   2.272 -0.6342 -0.2998 -0.0981
    4MOL   C119 3365   0.544   2.939   2.323 -0.3557 -0.9014  0.6883
    4MOL   C120 3366   0.686   2.955   2.327  0.0862  0.4950  0.0759
    4MOL   O121 3367   0.762   2.858   2.387  0.0404 -0.0696 -0.0006
    4MOL   C122 3368   0.874   2.804   2.326  0.0698  0.5896 -0.3658
    4MOL   C123 3369   0.857   2.704   2.225 -0.1231 -0.1139  0.0323
    4MOL   C124 3370   0.964   2.622   2.184  0.5382 -0.1768 -0.6519
    4MOL   C125 3371   1.095   2.651   2.221 -0.2399 -0.0998 -0.0491
    4MOL   C126 3372   1.216   2.559   2.176 -0.1068  0.0334 -0.0169
    4MOL   C127 3373   1.349   2.614   2.223  0.4907  0.6138 -0.5404
    4MOL   C128 3374   1.191   2.413   2.232  0.3067 -0.2668  0.1854
    4MOL   C129 3375   1.223   2.566   2.023  0.2585 -0.4150  0.2549
    4MOL   C130 3376   1.264   2.450   1.946 -0.1446 -0.3291  0.0512
    4MOL   C131 3377   1.262   2.448   1.807  0.4127  0.3708  0.4061
    4MOL   C132 3378   1.209   2.561   1.737 -0.2739  0.4410 -0.2745
    4MOL   O133 3379   1.196   2.560   1.604  0.8577 -0.3254  0.7764
    4MOL   C134 3380   1.170   2.681   1.811 -0.1269 -0.1842 -0.0145
    4MOL   C135 3381   1.170   2.672   1.948  0.4866 -1.0377  0.0041
    4MOL   C136 3382   1.112   2.762   2.309  0.2928  0.7932 -0.6022
    4MOL   C137 3383   1.001   2.831   2.371 -0.0239 -0.3181  1.1036
    4MOL   C138 3384   0.743   3.071   2.277 -0.2934 -0.1376  0.3133
    4MOL   C139 3385   0.659   3.177   2.241  0.7698 -0.2208 -0.1097
    4MOL   C140 3386   0.471   3.202   1.920  0.6101 -0.0898  0.3332
    4MOL   C141 3387   0.491   3.211   1.785 -0.0365  0.2581  0.9206
    4MOL   H142 3388   0.497   3.552   1.757 -2.3332  0.7282  0.6766
    4MOL   H143 3389   0.467   3.536   2.006  0.7506  2.0105 -2.6611
    4MOL   H144 3390   0.351   3.030   2.269 -1.0467  3.0197  1.0335
    4MOL   H145 3391   0.495   2.846   2.349 -0.9351 -0.4486  1.2290
    4MOL   H146 3392   0.759   2.683   2.185  0.3317  0.9761 -1.7306
    4MOL   H147 3393   0.952   2.532   2.126 -0.2593  0.0966 -0.9207
    4MOL   H148 3394   1.430   2.557   2.179 -1.6094 -1.6896 -1.5624
    4MOL   H149 3395   1.350   2.619   2.332  1.2621  0.7713 -0.5552
    4MOL   H150 3396   1.354   2.715   2.183 -3.3099  0.4070 -1.7967
    4MOL   H151 3397   1.192   2.419   2.341 -0.1239  0.8229  0.1455
    4MOL   H152 3398   1.100   2.363   2.201 -1.5723  0.9025  3.4970
    4MOL   H153 3399   1.277   2.348   2.218  0.3994 -0.0375 -0.3203
    4MOL   H154 3400   1.293   2.362   2.001 -3.0385 -1.6888 -0.5106
    4MOL   H155 3401   1.295   2.358   1.757  2.9827  1.0203  0.8722
    4MOL   H156 3402   1.135   2.773   1.767  1.7674 -0.3304 -1.9507
    4MOL   H157 3403   1.145   2.768   1.992 -1.1383 -1.6134  0.3717
    4MOL   H158 3404   1.210   2.780   2.351 -0.0317  0.7141  0.2031
    4MOL   H159 3405   1.024   2.899   2.451  0.2986  2.5750 -1.3559
    4MOL   H160 3406   0.849   3.088   2.278 -0.5821  1.9164 -1.1622
    4MOL   H161 3407   0.705   3.272   2.216 -1.3693 -0.1099 -3.9176
    4MOL   H162 3408   0.469   3.105   1.968 -0.3601  0.3845  1.2753
    4MOL   H163 3409   0.500   3.131   1.714 -1.0665  2.2782 -1.5700
    4MOL   C164 3410   1.185   2.453   1.526  0.3341 -0.4210  0.3839
    4MOL   C165 3411   1.062   2.407   1.474 -0.4668  0.3104  0.5482
    4MOL   C166 3412   1.055   2.306   1.377  0.0720 -0.0075 -0.3449
    4MOL   C167 3413   1.183   2.254   1.339 -0.3065 -0.0844 -0.1342
    4MOL   S168 3414   1.181   2.114   1.235 -0.0854 -0.2546 -0.7349
    4MOL   O169 3415   1.063   2.037   1.271  0.1030 -0.5070 -0.4736
    4MOL   O170 3416   1.314   2.053   1.245  0.3714 -0.0311 -0.3562
    4MOL   C171 3417   1.155   2.174   1.069 -0.3980  0.1791 -0.5028
    4MOL   C172 3418   1.047   2.260   1.033  0.5632 -0.8824 -0.1803
    4MOL   C173 3419   1.040   2.319   0.902 -0.3887 -0.1740  0.1599
    4MOL   C174 3420   1.142   2.294   0.816 -0.6023 -0.2666 -0.4118
    4MOL   O175 3421   1.140   2.352   0.693  0.0495 -0.0510  0.2692
    4MOL   C176 3422   1.130   2.277   0.580 -0.1843 -0.5740 -0.3885
    4MOL   C177 3423   1.223   2.293   0.480  0.2256 -0.0518  0.3512
    4MOL   C178 3424   1.220   2.216   0.360  0.1834  0.9225  0.0922
    4MOL   C179 3425   1.118   2.124   0.346  0.0508  0.4838  0.1043
    4MOL   C180 3426   1.108   2.046   0.212  0.9164  0.1002 -0.6753
    4MOL   C181 3427   1.199   2.101   0.095  0.5139 -0.3975  0.8504
    4MOL   C182 3428   1.149   1.905   0.244 -0.3355  0.1567 -0.1143
    4MOL   C183 3429   0.955   2.045   0.167 -0.5260 -0.2439  0.1474
    4MOL   C184 3430   0.903   2.170   0.146  0.4565 -0.5666  0.1164
    4MOL   C185 3431   0.766   2.186   0.114 -0.7293  0.2927 -0.1671
    4MOL   C186 3432   0.676   2.077   0.126 -0.3895 -0.3029  0.5692
    4MOL   O187 3433   0.540   2.090   0.133 -0.1632 -0.1168 -0.1528
    4MOL   C188 3434   0.733   1.951   0.144  0.4833  0.6818 -0.3963
    4MOL   C189 3435   0.870   1.927   0.165 -0.8367 -0.2363 -0.0239
    4MOL   C190 3436   1.022   2.104   0.449  0.5900 -0.2348 -0.5382
    4MOL   C191 3437   1.031   2.177   0.566 -0.1670  0.2379 -0.5533
    4MOL   C192 3438   1.250   2.207   0.850 -0.0576 -0.2258  0.6215
    4MOL   C193 3439   1.255   2.144   0.974  0.0668  0.1585  0.2280
    4MOL   C194 3440   1.308   2.292   1.390 -0.7447 -0.5334 -0.1020
    4MOL   C195 3441   1.310   2.389   1.490 -0.0948  0.0789  0.4867
    4MOL   H196 3442   0.978   2.469   1.501  0.7022  1.5133  1.4589
    4MOL   H197 3443   0.967   2.263   1.332 -2.1743  1.4535  2.5230
    4MOL   H198 3444   0.959   2.265   1.095 -1.3954 -1.3092 -2.8609
    4MOL   H199 3445   0.956   2.378   0.869 -0.3011 -0.6866 -1.0205
    4MOL   H200 3446   1.301   2.366   0.495 -0.3708  0.5923  0.3125
    4MOL   H201 3447   1.307   2.222   0.297  0.0881  1.3555  0.0053
    4MOL   H202 3448   1.306   2.086   0.108  0.5973  0.7006  1.5084
    4MOL   H203 3449   1.203   2.210   0.083 -0.2224 -0.6334 -1.7402
    4MOL   H204 3450   1.161   2.056   0.004 -0.0721  2.9098 -0.6246
    4MOL   H205 3451   1.082   1.859   0.316 -0.3664  0.0338 -0.2217
    4MOL   H206 3452   1.149   1.835   0.160 -0.4894  1.2230 -1.0296
    4MOL   H207 3453   1.251   1.902   0.280 -0.2138 -3.2988 -0.5855
    4MOL   H208 3454   0.967   2.257   0.143  1.1348 -1.0463  0.6575
    4MOL   H209 3455   0.727   2.283   0.087 -2.2354  0.0291  1.0290
    4MOL   H210 3456   0.660   1.871   0.135 -0.2332  1.1746  0.9217
    4MOL   H211 3457   0.900   1.823   0.170 -0.3506  0.0335  3.3867
    4MOL   H212 3458   0.951   2.024   0.432  0.7801 -0.2998 -1.0334
    4MOL   H213 3459   0.956   2.158   0.642 -0.9428  1.3519 -1.0139
    4MOL   H214 3460   1.331   2.198   0.780  0.2180  0.6070  0.8236
    4MOL   H215 3461   1.340   2.083   1.001 -1.6732 -1.3702  2.4288
    4MOL   H216 3462   1.397   2.238   1.361 -0.3655 -1.2039  2.1751
    4MOL   H217 3463   1.408   2.426   1.516  0.9634 -1.3611 -1.3916
    4MOL   C218 3464   0.485   2.127   0.252 -0.1752  0.4004  0.2515
    4MOL   C219 3465   0.499   2.043   0.366 -0.3803 -0.2076  0.3201
    4MOL   C220 3466   0.452   2.079   0.493  0.9497 -0.0811  0.0665
    4MOL   C221 3467   0.389   2.207   0.509  0.0871  0.5392 -0.3466
    4MOL   S222 3468   0.341   2.263   0.670 -0.0902 -0.0201 -0.1116
    4MOL   O223 3469   0.355   2.147   0.766 -0.0950 -0.5279  0.3703
    4MOL   O224 3470   0.220   2.342   0.658 -0.1507 -0.0997  0.4138
    4MOL   C225 3471   0.476   2.379   0.701  0.3307 -0.0712  0.0351
    4MOL   C226 3472   0.610   2.339   0.676 -0.6664 -0.0719  0.0642
    4MOL   C227 3473   0.720   2.421   0.705  0.3121 -0.9087 -1.0553
    4MOL   C228 3474   0.698   2.548   0.768  0.1050  0.6176 -0.0666
    4MOL   O229 3475   0.806   2.624   0.804  0.0310 -0.1946  0.2756
    4MOL   C230 3476   0.857   2.712   0.714  0.7160 -0.6032  0.0972
    4MOL   C231 3477   0.830   2.851   0.718 -0.2396 -0.1627  0.2040
    4MOL   C232 3478   0.895   2.938   0.630  0.1998 -0.5743  0.6298
    4MOL   C233 3479   0.959   2.891   0.515  0.2025  1.0298 -0.4131
    4MOL   C234 3480   1.015   2.998   0.412  0.0979  0.7688 -0.3589
    4MOL   C235 3481   1.095   3.099   0.497 -0.1648 -0.7058  0.5999
    4MOL   C236 3482   1.108   2.922   0.312 -0.2438  0.4841  0.2356
    4MOL   C237 3483   0.902   3.061   0.335 -0.0710 -0.0330 -0.0214
    4MOL   C238 3484   0.892   3.200   0.323  0.1059 -0.1294 -0.0593
    4MOL   C239 3485   0.779   3.260   0.271  0.4846  0.3098  0.3975
    4MOL   C240 3486   0.675   3.186   0.214  0.2749  0.4170  0.2544
    4MOL   O241 3487   0.570   3.266   0.171  0.0404  0.2293 -0.2173
    4MOL   C242 3488   0.684   3.041   0.219  0.7843  0.0016 -0.3613
    4MOL   C243 3489   0.790   2.986   0.281  0.2849 -0.1210  0.0733
    4MOL   C244 3490   0.984   2.753   0.511  0.3392 -0.2943  0.6894
    4MOL   C245 3491   0.931   2.664   0.609  0.0885 -0.2688 -0.4012
    4MOL   C246 3492   0.568   2.586   0.800  0.2499  0.0716  0.4178
    4MOL   C247 3493   0.455   2.504   0.767  0.6519  1.3621 -1.0913
    4MOL   C248 3494   0.371   2.289   0.395  0.5087  0.1479 -0.9376
    4MOL   C249 3495   0.417   2.249   0.266  0.2041  0.3911  0.2536
    4MOL   H250 3496   0.542   1.946   0.350  1.9027  0.4528  2.2006
    4MOL   H251 3497   0.467   2.009   0.575 -0.1511 -0.6994 -0.2503
    4MOL   H252 3498   0.636   2.246   0.629 -1.3232 -0.6779  0.8710
    4MOL   H253 3499   0.820   2.384   0.686  0.9158  0.5811 -0.8427
    4MOL   H254 3500   0.773   2.877   0.806 -0.9471 -1.5344  0.1653
    4MOL   H255 3501   0.880   3.043   0.650  2.5074 -0.0146 -0.4264
    4MOL   H256 3502   1.142   3.169   0.428 -1.1497  1.1357  1.7766
    4MOL   H257 3503   1.176   3.051   0.552  2.1378  0.8077 -1.3515
    4MOL   H258 3504   1.044   3.171   0.560  1.6865  1.0496  0.1533
    4MOL   H259 3505   1.142   2.993   0.237 -1.1206 -2.7856 -3.4066
    4MOL   H260 3506   1.190   2.867   0.359 -1.8345 -0.9992  1.3207
    4MOL   H261 3507   1.048   2.849   0.258  1.2595 -1.0289  0.5478
    4MOL   H262 3508   0.975   3.260   0.355  0.2035  0.2116 -0.9317
    4MOL   H263 3509   0.774   3.365   0.246 -1.1480 -0.1471 -1.2746
    4MOL   H264 3510   0.599   2.981   0.189  1.5591 -1.8568  1.0510
    4MOL   H265 3511   0.786   2.878   0.280 -2.4004 -0.0734  0.1671
    4MOL   H266 3512   1.041   2.715   0.428 -0.1765 -0.3159  0.3444
    4MOL   H267 3513   0.970   2.565   0.591  2.0030  0.3462  0.3309
    4MOL   H268 3514   0.542   2.682   0.842  0.8003  0.6442 -0.5362
    4MOL   H269 3515   0.353   2.528   0.793  0.1792  0.1187 -1.7626
    4MOL   H270 3516   0.331   2.388   0.412  0.9020  0.2641 -0.6901
    4MOL   H271 3517   0.425   2.314   0.180 -0.0068 -0.3181 -0.3081
    4MOL   C272 3518   0.454   3.258   0.243  0.3903 -0.6254  0.1205
    4MOL   C273 3519   0.451   3.293   0.384 -0.5135  0.2722  0.0281
    4MOL   C274 3520   0.332   3.302   0.458  0.1356  0.1100 -0.2605
    4MOL   C275 3521   0.207   3.296   0.390 -0.1532 -0.3366 -0.2911
    4MOL   S276 3522   0.059   3.334   0.482  0.3492  0.4228 -0.2375
    4MOL   O277 3523   8.217   3.409   0.408 -0.8204 -0.2322 -0.1322
    4MOL   O278 3524   0.121   3.393   0.607  0.0966  0.0483  0.1378
    4MOL   C279 3525   8.237   3.184   0.528  0.2931 -0.3500 -0.5911
    4MOL   C280 3526   0.005   3.133   0.657  0.1740 -0.6365 -0.4123
    4MOL   C281 3527   8.193   3.018   0.700 -0.5728  0.8175 -0.3712
    4MOL   C282 3528   8.098   2.952   0.615  0.0475 -0.7097  0.0708
    4MOL   O283 3529   8.037   2.836   0.652  0.2387  0.5384 -0.5123
    4MOL   C284 3530   7.957   2.842   0.766 -0.1817  0.0027 -0.0699
    4MOL   C285 3531   7.998   2.798   0.896 -0.3403  0.5309  0.1337
    4MOL   C286 3532   7.910   2.811   1.006  0.0214  0.6174  0.6289
    4MOL   C287 3533   7.780   2.861   0.991 -0.3650  0.4012 -0.3495
    4MOL   C288 3534   7.693   2.870   1.115 -0.2576 -0.6190 -0.0547
    4MOL   C289 3535   7.729   3.000   1.197 -0.2651  0.0594  0.4805
    4MOL   C290 3536   7.546   2.883   1.077  0.6115  0.2720 -0.1076
    4MOL   C291 3537   7.703   2.753   1.208 -0.1332  0.5009  0.2221
    4MOL   C292 3538   7.712   2.765   1.345  0.6135 -0.6879 -0.2097
    4MOL   C293 3539   7.724   2.653   1.432  0.1956  0.3325 -0.4699
    4MOL   C294 3540   7.727   2.522   1.379  0.2994  0.4688 -0.1280
    4MOL   O295 3541   7.732   2.414   1.464  0.5235 -0.1003 -0.2422
    4MOL   C296 3542   7.722   2.507   1.240  0.6103 -0.3472  0.7107
    4MOL   C297 3543   7.709   2.620   1.155  1.0219  0.0067 -0.2418
    4MOL   C298 3544   7.740   2.897   0.864  0.0502 -0.5025  0.6413
    4MOL   C299 3545   7.822   2.891   0.752  0.0533  0.2637  0.8203
    4MOL   C300 3546   8.063   3.009   0.487  0.2210  0.3173 -0.4136
    4MOL   C301 3547   8.138   3.120   0.442 -0.2729 -0.3429 -0.1512
    4MOL   C302 3548   0.205   3.272   0.247  0.4405 -0.2593  0.0022
    4MOL   C303 3549   0.325   3.235   0.175  1.4338  0.1998  0.2879
    4MOL   H304 3550   0.544   3.318   0.431 -0.3127 -0.3012 -0.0535
    4MOL   H305 3551   0.344   3.315   0.565  0.4679  1.5572 -0.4567
    4MOL   H306 3552   0.065   3.190   0.727 -1.2432 -0.4626  0.6914
    4MOL   H307 3553   8.219   2.979   0.798  0.6871 -0.0447 -1.0356
    4MOL   H308 3554   8.098   2.761   0.914 -0.2777  1.3705  1.5111
    4MOL   H309 3555   7.951   2.788   1.104  1.3465 -0.4470 -0.1496
    4MOL   H310 3556   7.662   3.031   1.278 -1.4617  3.6036 -1.7196
    4MOL   H311 3557   7.709   3.082   1.128 -1.3519 -1.9860 -1.7015
    4MOL   H312 3558   7.830   3.001   1.238  0.4553  0.4651 -1.2689
    4MOL   H313 3559   7.538   2.967   1.007 -1.2557 -1.0879 -1.5600
    4MOL   H314 3560   7.502   2.799   1.025  2.3424 -0.9223  0.3336
    4MOL   H315 3561   7.483   2.908   1.162  0.8131 -1.9347  0.7078
    4MOL   H316 3562   7.704   2.860   1.395  0.3097 -1.2166  0.7608
    4MOL   H317 3563   7.722   2.667   1.539 -0.1802 -2.1431 -0.1096
    4MOL   H318 3564   7.717   2.406   1.203  2.0169 -0.4839  0.8440
    4MOL   H319 3565   7.692   2.596   1.052  3.3571 -0.3149 -0.5840
    4MOL   H320 3566   7.657   2.961   0.835  0.6157 -1.4953 -3.4496
    4MOL   H321 3567   7.809   2.934   0.654  0.8250 -0.2883  0.4691
    4MOL   H322 3568   7.983   2.975   0.423 -0.8322  0.1181  0.9736
    4MOL   H323 3569   8.123   3.161   0.343 -0.6922  1.1326  0.5107
    4MOL   H324 3570   0.107   3.262   0.203  0.5346  0.3082 -0.3313
    4MOL   H325 3571   0.307   3.210   0.072  1.5968  0.9160  0.0791
    4MOL   C326 3572   7.854   2.370   1.498 -0.0883 -0.2343 -0.1304
    4MOL   C327 3573   7.860   2.282   1.606 -0.3895 -0.3273 -0.7067
    4MOL   C328 3574   7.978   2.243   1.668  0.3263 -0.4320 -0.5813
    4MOL   C329 3575   8.098   2.293   1.621  0.0728  0.0209 -0.3858
    4MOL   S330 3576   8.245   2.235   1.706  0.1908  0.1051 -0.7255
    4MOL   O331 3577   0.109   2.255   1.619  0.4819  0.3281 -0.1846
    4MOL   O332 3578   8.219   2.099   1.756  0.3549 -0.1454  1.0513
    4MOL   C333 3579   0.007   2.346   1.851 -0.1202 -0.0642  0.1916
    4MOL   C334 3580   8.172   2.333   1.962  0.6516 -0.2445 -0.0260
    4MOL   C335 3581   8.202   2.396   2.080 -0.6351  1.0730  0.1665
    4MOL   C336 3582   0.063   2.477   2.096  0.5493 -0.2547  0.3111
    4MOL   O337 3583   0.102   2.531   2.219 -0.3283 -0.0776  0.0866
    4MOL   C338 3584   0.057   2.658   2.240  0.4761 -0.4038  0.2618
    4MOL   C339 3585   0.142   2.769   2.214  0.1738 -0.3723 -0.5159
    4MOL   C340 3586   0.090   2.899   2.232  0.6743  0.4149 -0.1108
    4MOL   C341 3587   8.221   2.921   2.299  0.3376  0.3663 -0.7201
    4MOL   C342 3588   8.177   3.061   2.344 -0.7023 -0.2136 -0.3590
    4MOL   C343 3589   8.159   3.150   2.215  0.0996  0.3371 -1.2680
    4MOL   C344 3590   8.047   3.069   2.420 -0.2749  0.0616  0.6993
    4MOL   C345 3591   0.041   3.119   2.430 -0.7787 -0.4529  0.1271
    4MOL   C346 3592   0.089   3.256   2.413  0.5523  0.3245 -0.1615
    4MOL   C347 3593   0.196   3.303   2.491  0.0388  0.6557  0.5323
    4MOL   C348 3594   0.249   3.220   2.589 -0.3009  0.3584 -0.2963
    4MOL   O349 3595   0.341   3.273   2.672 -0.0155  0.1079 -0.7858
    4MOL   C350 3596   0.204   3.091   2.618  0.1807 -0.3751 -0.5910
    4MOL   C351 3597   0.101   3.044   2.537 -0.1210  0.8686  0.0354
    4MOL   C352 3598   8.141   2.808   2.333 -0.3331  0.1596  0.3797
    4MOL   C353 3599   8.188   2.681   2.305 -0.3197 -0.8556 -0.0812
    4MOL   C354 3600   0.147   2.500   1.983  0.0216  0.2152 -0.2024
    4MOL   C355 3601   0.115   2.441   1.860  0.4124  0.7714  0.0377
    4MOL   C356 3602   8.098   2.381   1.509  0.3403  0.1208  0.1766
    4MOL   C357 3603   7.980   2.418   1.454  0.4964 -0.1746 -0.3237
    4MOL   H358 3604   7.773   2.234   1.648  1.5338 -2.0218  1.5016
    4MOL   H359 3605   7.965   2.175   1.751 -1.8002  1.7182  0.9022
    4MOL   H360 3606   8.094   2.259   1.958  0.9522 -0.6565  1.5271
    4MOL   H361 3607   8.153   2.391   2.176 -1.1338  1.7096 -0.0588
    4MOL   H362 3608   0.241   2.761   2.172  0.4996 -0.4094  0.2672
    4MOL   H363 3609   0.160   2.980   2.223  0.4553  0.8698  1.9502
    4MOL   H364 3610   0.004   3.167   2.171  1.4237 -0.8742  1.1577
    4MOL   H365 3611   8.116   3.249   2.233  0.4069  0.2564 -0.0663
    4MOL   H366 3612   8.095   3.093   2.147 -2.1330  1.3911 -0.1104
    4MOL   H367 3613   8.011   3.170   2.438 -2.2341 -0.2356 -1.4014
    4MOL   H368 3614   7.971   3.022   2.358  0.1285 -0.8768  0.8917
    4MOL   H369 3615   8.038   3.002   2.506 -0.8457 -0.0805  0.5254
    4MOL   H370 3616   0.060   3.313   2.326 -1.8123 -0.6903 -0.0683
    4MOL   H371 3617   0.240   3.400   2.473 -1.0485  1.1084  0.2575
    4MOL   H372 3618   0.247   3.021   2.689 -2.4405 -1.3758  0.0841
    4MOL   H373 3619   0.072   2.940   2.545  0.4185  0.7157  0.0595
    4MOL   H374 3620   8.047   2.817   2.386  1.3697 -0.2722  3.6292
    4MOL   H375 3621   8.125   2.598   2.334  0.6041 -2.1267 -1.5908
    4MOL   H376 3622   0.233   2.565   1.991 -0.8812  1.2995  0.8510
    4MOL   H377 3623   0.183   2.450   1.777 -1.1691  2.0020 -1.1760
    4MOL   H378 3624   8.189   2.428   1.473  1.2235 -0.3258  1.7614
    4MOL   H379 3625   7.985   2.501   1.384  1.2836  1.5548  1.7135
    4MOL   C380 3626   0.464   3.289   2.614  0.4026  0.2798 -0.4776
    4MOL   C381 3627   0.559   3.192   2.621 -0.2485 -0.2274 -0.1593
    4MOL   C382 3628   0.691   3.209   2.584 -0.1831 -0.2772  0.2318
    4MOL   C383 3629   0.728   3.337   2.537  0.0783  0.9125 -0.4974
    4MOL   S384 3630   0.895   3.365   2.476  0.3150 -0.0500 -0.0652
    4MOL   O385 3631   0.889   3.377   2.328  0.0692  0.0265  0.0122
    4MOL   O386 3632   0.980   3.255   2.522  0.6013 -0.5430 -0.0252
    4MOL   C387 3633   0.948   3.523   2.543 -0.0749  0.0435  0.3856
    4MOL   C388 3634   0.885   3.573   2.660  0.1920 -0.0807  0.0752
    4MOL   C389 3635   0.932   3.690   2.715 -0.1711  0.8049  0.0326
    4MOL   C390 3636   1.035   3.765   2.654 -0.0297 -0.3193  0.6926
    4MOL   O391 3637   1.071   3.884   2.710  1.0720  0.7081  0.3285
    4MOL   C392 3638   1.158   3.892   2.816 -0.3452 -0.5948 -0.0161
    4MOL   C393 3639   1.277   3.971   2.800  0.2828  0.6780  0.4394
    4MOL   C394 3640   1.371   3.988   2.903 -0.0043 -0.7356 -0.4754
    4MOL   C395 3641   1.338   3.945   3.036 -0.6839 -0.7024  0.3716
    4MOL   C396 3642   1.433   3.990   3.150 -0.8618  0.5376  0.0922
    4MOL   C397 3643   1.403   4.142   3.178 -0.4140  0.5247 -0.5827
    4MOL   C398 3644   1.398   3.904   3.278 -0.4654 -0.1263 -0.1433
    4MOL   C399 3645   1.578   3.955   3.118  0.0196  0.1359  0.6251
    4MOL   C400 3646   1.609   3.829   3.068  0.5673  0.4283 -0.9296
    4MOL   C401 3647   1.744   3.790   3.050  0.1921 -0.1426  0.0223
    4MOL   C402 3648   1.846   3.875   3.086 -0.5910 -0.6030  0.4383
    4MOL   O403 3649   1.976   3.832   3.072  0.5159  0.3302 -0.0801
    4MOL   C404 3650   1.821   4.012   3.111 -0.1681  0.2817 -0.0515
    4MOL   C405 3651   1.687   4.050   3.133  0.7623 -0.7556 -0.1783
    4MOL   C406 3652   1.228   3.862   3.052 -0.8177 -0.2648 -0.5509
    4MOL   C407 3653   1.139   3.836   2.943 -0.4428 -0.5670  0.0107
    4MOL   C408 3654   1.106   3.716   2.544  0.4913 -0.2279  0.2561
    4MOL   C409 3655   1.058   3.591   2.489  0.3251  0.0732  0.2488
    4MOL   C410 3656   0.630   3.436   2.517  0.4105  0.6928 -0.3095
    4MOL   C411 3657   0.497   3.413   2.557 -0.4808 -0.5401 -0.4856
    4MOL   H412 3658   0.536   3.100   2.674  0.8841 -1.6476 -2.0785
    4MOL   H413 3659   0.768   3.134   2.601  1.6559  1.0585 -1.8569
    4MOL   H414 3660   0.804   3.520   2.708  0.2547 -0.2772 -0.0348
    4MOL   H415 3661   0.884   3.731   2.803 -0.8340 -1.8124  0.9164
    4MOL   H416 3662   1.296   4.011   2.701 -3.0451 -0.0391 -0.5345
    4MOL   H417 3663   1.459   4.047   2.886 -1.0442  1.1004  0.4022
    4MOL   H418 3664   1.448   4.184   3.268  0.7049  1.3109 -1.4902
    4MOL   H419 3665   1.298   4.161   3.199 -0.0745 -0.1272  1.9063
    4MOL   H420 3666   1.435   4.217   3.106 -0.6209  1.6530  0.4858
    4MOL   H421 3667   1.471   3.920   3.356  1.9594 -0.5625 -2.2601
    4MOL   H422 3668   1.298   3.931   3.314 -1.1823 -2.3638 -0.4062
    4MOL   H423 3669   1.396   3.797   3.259  0.5588 -0.0285 -0.8480
    4MOL   H424 3670   1.536   3.751   3.051 -0.6724  1.8244 -2.2263
    4MOL   H425 3671   1.773   3.689   3.029  0.2403 -0.2305  0.5067
    4MOL   H426 3672   1.906   4.078   3.115  1.7977 -2.1198 -0.6945
    4MOL   H427 3673   1.668   4.155   3.153  1.0974 -0.3972 -1.6868
    4MOL   H428 3674   1.205   3.806   3.141 -0.4484 -0.3385 -0.5028
    4MOL   H429 3675   1.054   3.773   2.966  0.3702 -1.7859 -0.3067
    4MOL   H430 3676   1.192   3.760   2.494  1.3575 -2.9325 -0.7957
    4MOL   H431 3677   1.118   3.552   2.408 -0.7391 -2.1323  0.4891
    4MOL   H432 3678   0.658   3.534   2.481 -0.8186  0.8190 -0.9263
    4MOL   H433 3679   0.424   3.490   2.535  1.3314  0.8545 -1.7452
    4MOL   C434 3680   2.069   3.880   3.166 -0.2920  0.4237  0.7585
    4MOL   C435 3681   2.032   3.883   3.306 -0.5436  0.9072  0.0523
    4MOL   C436 3682   2.127   3.923   3.401  0.4034  0.9549  0.1218
    4MOL   C437 3683   2.256   3.953   3.362 -0.6711  0.2673 -0.0056
    4MOL   S438 3684   2.371   4.001   3.489 -0.4720 -0.4502 -0.1597
    4MOL   O439 3685   2.297   4.044   3.608 -0.1734 -0.3712  0.1306
    4MOL   O440 3686   2.475   4.089   3.433  0.3451 -0.5844 -0.5886
    4MOL   C441 3687   2.459   3.851   3.541  0.2801 -0.5723  0.2870
    4MOL   C442 3688   2.394   3.771   3.636  0.1059 -0.4148 -0.7000
    4MOL   C443 3689   2.455   3.649   3.674 -0.1847 -0.5981  0.1822
    4MOL   C444 3690   2.583   3.615   3.620  0.1266 -0.3574 -0.1091
    4MOL   O445 3691   2.641   3.490   3.650 -0.1561  0.3243  0.5739
    4MOL   C446 3692   2.611   3.376   3.588 -0.2577 -0.3276  0.4356
    4MOL   C447 3693   2.674   3.256   3.631  0.2153  0.1077  0.0843
    4MOL   C448 3694   2.654   3.136   3.560  1.2410  0.6414 -0.2744
    4MOL   C449 3695   2.571   3.135   3.445  0.0844 -0.2306 -0.7437
    4MOL   C450 3696   2.554   3.010   3.359 -0.0638  0.4102  0.0258
    4MOL   C451 3697   2.650   3.019   3.240  0.0430 -0.2524  0.3218
    4MOL   C452 3698   2.602   2.882   3.437  0.0652  0.2162  0.6222
    4MOL   C453 3699   2.408   2.982   3.320 -0.3110 -0.3060 -0.3994
    4MOL   C454 3700   2.368   2.960   3.182  0.0825 -0.1348 -1.1685
    4MOL   C455 3701   2.233   2.935   3.158 -0.6629  0.1767  0.4237
    4MOL   C456 3702   2.141   2.936   3.259 -0.0945 -0.0837  0.0817
    4MOL   O457 3703   2.006   2.918   3.229  0.1725 -0.0726 -0.3696
    4MOL   C458 3704   2.178   2.969   3.391  0.3099  0.3321  0.4438
    4MOL   C459 3705   2.312   2.975   3.423 -0.0288  0.0459 -0.1858
    4MOL   C460 3706   2.498   3.248   3.412  0.4028 -0.4942 -1.0693
    4MOL   C461 3707   2.517   3.370   3.485 -0.0008 -0.2970 -0.9966
    4MOL   C462 3708   2.644   3.702   3.528  0.1759  0.6807 -0.5496
    4MOL   C463 3709   2.582   3.818   3.488  0.0236 -0.2233  0.0761
    4MOL   C464 3710   2.299   3.950   3.227 -0.0627 -0.5883  0.2886
    4MOL   C465 3711   2.202   3.907   3.134 -0.1171  0.2687 -0.2918
    4MOL   H466 3712   1.932   3.862   3.342 -0.5031  0.8678  0.1409
    4MOL   H467 3713   2.106   3.914   3.507  1.6072  1.1689  0.3808
    4MOL   H468 3714   2.296   3.801   3.670  0.7245 -1.8994  2.6768
    4MOL   H469 3715   2.410   3.587   3.750  1.5801 -2.4169 -0.2171
    4MOL   H470 3716   2.739   3.265   3.716 -0.4227  0.8282  0.4981
    4MOL   H471 3717   2.715   3.051   3.589  0.6317  0.2903 -0.0024
    4MOL   H472 3718   2.607   3.094   3.173  0.2218 -1.3239 -1.0226
    4MOL   H473 3719   2.661   2.933   3.174 -0.0468 -0.6126  0.7735
    4MOL   H474 3720   2.749   3.046   3.276  0.0225 -0.7512  0.7499
    4MOL   H475 3721   2.551   2.859   3.530  1.4441 -0.6642  1.1764
    4MOL   H476 3722   2.579   2.802   3.367  1.3678  0.5320 -0.1722
    4MOL   H477 3723   2.711   2.883   3.441  0.0973  1.4169 -0.1953
    4MOL   H478 3724   2.432   2.973   3.096  0.7480  0.2510 -0.6235
    4MOL   H479 3725   2.189   2.922   3.060  0.5246  1.7132 -0.3490
    4MOL   H480 3726   2.105   2.965   3.471  1.6541 -2.0205  1.6062
    4MOL   H481 3727   2.342   2.974   3.527  2.9585  0.8067 -0.9967
    4MOL   H482 3728   2.419   3.245   3.339 -0.7391  0.7764  0.0775
    4MOL   H483 3729   2.457   3.455   3.454  0.8777  1.1402  1.1533
    4MOL   H484 3730   2.746   3.677   3.502  0.1557  0.5749 -0.5292
    4MOL   H485 3731   2.648   3.877   3.425  1.0232 -1.1823  0.2199
    4MOL   H486 3732   2.403   3.955   3.200 -0.2531  1.8987 -0.1462
    4MOL   H487 3733   2.246   3.890   3.037 -2.9792 -1.8783 -1.2578
    4MOL   C488 3734   1.953   2.799   3.286 -0.0222 -0.5256 -0.3758
    4MOL   C489 3735   1.996   2.674   3.230 -0.1674  0.0966 -0.2852
    4MOL   C490 3736   1.937   2.557   3.283  0.6029 -0.1601 -0.8591
    4MOL   C491 3737   1.840   2.566   3.388  0.7555 -0.3285  0.2725
    4MOL   S492 3738   1.743   2.417   3.430 -0.0771 -0.0484 -0.1698
    4MOL   O493 3739   1.829   2.296   3.431  0.4976  0.0373 -0.7643
    4MOL   O494 3740   1.626   2.423   3.338  0.8240  0.1908  0.5925
    4MOL   C495 3741   1.675   2.432   3.595  0.0961  0.2618 -0.5181
    4MOL   C496 3742   1.766   2.470   3.700  0.3209 -1.4187 -0.1443
    4MOL   C497 3743   1.722   2.476   3.834  0.5412  0.7395 -0.1614
    4MOL   C498 3744   1.592   2.435   3.863 -0.6884  0.5940  0.5283
    4MOL   O499 3745   1.537   2.453   3.990 -0.4524 -0.2870 -0.1612
    4MOL   C500 3746   1.527   2.341   4.065 -0.3945  0.4150  0.0586
    4MOL   C501 3747   1.633   2.294   4.140  0.4118  0.0407  0.1062
    4MOL   C502 3748   1.628   2.171   4.209 -0.0593 -0.4799 -0.0961
    4MOL   C503 3749   1.504   2.100   4.216  0.0614 -0.2704 -0.2868
    4MOL   C504 3750   1.490   1.970   4.299  0.1130  0.6714 -0.1628
    4MOL   C505 3751   1.484   2.017   4.440  0.1045  0.1593  0.1495
    4MOL   C506 3752   1.364   1.886   4.260 -0.3012 -0.0876  0.2405
    4MOL   C507 3753   1.600   1.866   4.271 -0.0568 -0.0134  0.2915
    4MOL   C508 3754   1.674   1.806   4.368 -0.1079 -0.2846  0.9489
    4MOL   C509 3755   1.770   1.709   4.330 -0.6886 -0.2344 -0.2815
    4MOL   C510 3756   1.789   1.672   4.197  0.4128  0.3825 -0.1161
    4MOL   O511 3757   1.892   1.582   4.181  0.5879 -0.1548  0.2167
    4MOL   C512 3758   1.713   1.738   4.093  0.3475  0.9115  0.0313
    4MOL   C513 3759   1.620   1.830   4.136  0.1479  0.6299  0.3037
    4MOL   C514 3760   1.395   2.161   4.149 -0.9819 -0.0222 -0.0338
    4MOL   C515 3761   1.407   2.276   4.069 -0.6804 -0.2479  0.3914
    4MOL   C516 3762   1.504   2.396   3.761 -0.1156  0.1616 -0.0238
    4MOL   C517 3763   1.541   2.394   3.625  0.0560 -0.5430 -0.1576
    4MOL   C518 3764   1.796   2.695   3.434 -0.4953  0.3081  0.5912
    4MOL   C519 3765   1.859   2.808   3.381  0.7526  0.2557 -0.1302
    4MOL   H520 3766   2.063   2.663   3.146 -0.7697  0.9608 -0.8874
    4MOL   H521 3767   1.965   2.458   3.250 -0.1661 -1.8512  3.2355
    4MOL   H522 3768   1.862   2.499   3.661  0.2376  0.6555  1.0716
    4MOL   H523 3769   1.780   2.507   3.920 -1.2141  0.2432  1.2184
    4MOL   H524 3770   1.731   2.339   4.138  0.3155  0.2440 -0.0603
    4MOL   H525 3771   1.715   2.143   4.268 -0.2990 -1.8751 -0.3755
    4MOL   H526 3772   1.571   2.079   4.462 -0.2883  0.5506  0.6247
    4MOL   H527 3773   1.471   1.931   4.505 -2.1264  0.1896 -0.2109
    4MOL   H528 3774   1.399   2.085   4.439 -0.3829 -0.4594 -1.7471
    4MOL   H529 3775   1.366   1.790   4.311 -0.1420 -0.5239 -0.5993
    4MOL   H530 3776   1.269   1.929   4.294  0.5288  2.3763 -0.4258
    4MOL   H531 3777   1.355   1.872   4.153 -0.6411 -3.2664  0.6592
    4MOL   H532 3778   1.668   1.839   4.471  1.6894  1.2875  0.5679
    4MOL   H533 3779   1.848   1.680   4.398  1.1916  0.9345 -1.8713
    4MOL   H534 3780   1.732   1.704   3.992 -0.0498  1.3620 -0.1978
    4MOL   H535 3781   1.559   1.885   4.065  1.0472  1.7467  0.3680
    4MOL   H536 3782   1.297   2.117   4.155  0.2366 -2.8528 -0.2747
    4MOL   H537 3783   1.317   2.315   4.024  0.7772  2.5945 -0.1291
    4MOL   H538 3784   1.403   2.367   3.788  0.7782 -2.3315  0.8358
    4MOL   H539 3785   1.474   2.359   3.549 -0.0015 -0.3627 -0.1894
    4MOL   H540 3786   1.722   2.708   3.511  0.3592  0.1476  1.4503
    4MOL   H541 3787   1.827   2.906   3.415 -1.0638 -0.6143  0.7648
    4MOL   C542 3788   1.854   1.461   4.136 -0.3461 -0.2281  0.5658
    4MOL   C543 3789   1.833   1.353   4.230  0.5537 -0.5532  0.4875
    4MOL   C544 3790   1.800   1.228   4.173  0.0163  0.2137  0.2314
    4MOL   C545 3791   1.785   1.210   4.039  0.7072  0.0079  0.6390
    4MOL   S546 3792   1.753   1.041   3.979  0.0495  0.3280  0.2483
    4MOL   O547 3793   1.829   0.951   4.067 -0.5268  0.6233  0.0081
    4MOL   O548 3794   1.772   1.032   3.832 -0.1756  0.2355 -0.3415
    4MOL   C549 3795   1.579   1.015   4.004 -0.3093  0.0844 -0.4535
    4MOL   C550 3796   1.537   0.880   4.035  0.0403 -0.1405  0.4128
    4MOL   C551 3797   1.402   0.852   4.062  0.6963 -0.5888 -0.5043
    4MOL   C552 3798   1.305   0.949   4.051 -0.4247  0.1719 -0.5034
    4MOL   O553 3799   1.176   0.918   4.085  0.1072  0.0175 -0.2782
    4MOL   C554 3800   1.079   1.013   4.107 -0.4561  1.0647 -0.1513
    4MOL   C555 3801   1.092   1.113   4.200  0.2598  0.3743 -0.1010
    4MOL   C556 3802   0.988   1.205   4.223 -0.9844  0.8505 -0.2670
    4MOL   C557 3803   0.873   1.202   4.145 -0.4454 -0.7691  0.1539
    4MOL   C558 3804   0.753   1.294   4.168 -0.0973 -0.1202  0.6323
    4MOL   C559 3805   0.807   1.443   4.185 -0.4480  0.8019  0.0790
    4MOL   C560 3806   0.648   1.296   4.052  0.0474 -0.2118  0.0284
    4MOL   C561 3807   0.683   1.255   4.298  0.2699 -0.0544  0.2247
    4MOL   C562 3808   0.623   1.344   4.390  0.1166 -0.1956 -0.1663
    4MOL   C563 3809   0.530   1.301   4.490 -0.2272  0.0179 -0.3712
    4MOL   C564 3810   0.511   1.162   4.514 -0.0313  0.7649 -0.4115
    4MOL   O565 3811   0.424   1.119   4.614  0.1395 -0.1504 -0.5586
    4MOL   C566 3812   0.561   1.070   4.418 -0.0514  0.3738 -0.1105
    4MOL   C567 3813   0.651   1.115   4.314 -0.4673 -0.2855  0.0038
    4MOL   C568 3814   0.872   1.107   4.038 -0.1293 -0.4546  0.5221
    4MOL   C569 3815   0.968   1.012   4.026  0.5382 -0.4249  0.7585
    4MOL   C570 3816   1.345   1.072   3.991 -0.3221  0.0089 -0.4165
    4MOL   C571 3817   1.479   1.108   3.974 -0.0326 -0.2565 -0.1007
    4MOL   C572 3818   1.800   1.315   3.946 -0.1682  0.1736 -0.5241
    4MOL   C573 3819   1.846   1.441   3.996  0.0401  1.0851 -0.0283
    4MOL   H574 3820   1.847   1.380   4.334 -1.6195  1.0959  0.3807
    4MOL   H575 3821   1.778   1.144   4.236  0.1488 -0.4066 -0.5365
    4MOL   H576 3822   1.610   0.801   4.041  0.9913  0.8338  1.8569
    4MOL   H577 3823   1.382   0.758   4.111  1.4422 -0.1000  0.7560
    4MOL   H578 3824   1.185   1.123   4.254  0.2620  0.8927 -0.1940
    4MOL   H579 3825   0.985   1.281   4.301  0.6534  0.4459  0.2134
    4MOL   H580 3826   0.863   1.461   4.277  1.2921 -0.5724 -0.6952
    4MOL   H581 3827   0.728   1.518   4.178 -2.0483 -0.9364 -1.0095
    4MOL   H582 3828   0.864   1.459   4.093 -2.1336 -0.4774 -1.2120
    4MOL   H583 3829   0.687   1.307   3.951  0.5922 -0.1130  0.2457
    4MOL   H584 3830   0.592   1.203   4.051  0.0865 -0.2330 -0.4072
    4MOL   H585 3831   0.572   1.371   4.072  0.7807  0.1462  1.5223
    4MOL   H586 3832   0.646   1.450   4.387  0.2120 -0.1161  2.1418
    4MOL   H587 3833   0.485   1.374   4.555 -0.9154 -1.0489  0.3702
    4MOL   H588 3834   0.530   0.968   4.436  1.6118  0.0957  1.2930
    4MOL   H589 3835   0.685   1.044   4.240  0.7383  2.4957 -2.1936
    4MOL   H590 3836   0.788   1.098   3.970  0.7343  0.5037 -0.6838
    4MOL   H591 3837   0.963   0.938   3.947 -0.3539  1.0046 -0.5347
    4MOL   H592 3838   1.260   1.135   3.967  1.1965  2.0609 -0.5517
    4MOL   H593 3839   1.509   1.208   3.946  0.7493 -0.5740 -0.4045
    4MOL   H594 3840   1.788   1.295   3.841 -1.6693  3.5420 -1.0940
    4MOL   H595 3841   1.858   1.521   3.924  0.8406 -0.2408 -1.3966
    4MOL   C596 3842   0.459   1.118   4.750  0.3603  0.1549 -0.0616
    4MOL   C597 3843   0.356   1.108   4.847  0.7006  0.0249  0.7559
    4MOL   C598 3844   0.385   1.093   4.982  0.0021  0.5381 -0.0965
    4MOL   C599 3845   0.516   1.074   5.028 -0.2326 -0.9677  0.2980
    4MOL   S600 3846   0.550   1.061   5.204  0.0075  0.2959  0.3526
    4MOL   O601 3847   0.695   1.038   5.222 -0.0271  0.6997  0.0887
    4MOL   O602 3848   0.451   0.968   5.261  0.0741 -0.2064 -0.1103
    4MOL   C603 3849   0.513   1.221   5.270  0.2367  0.0548 -0.2701
    4MOL   C604 3850   0.591   1.322   5.225  0.0487  0.2779 -0.2415
    4MOL   C605 3851   0.563   1.449   5.277  0.4161 -0.2677  1.0430
    4MOL   C606 3852   0.461   1.478   5.370 -0.3672 -0.3825 -0.2104
    4MOL   O607 3853   0.419   1.602   5.418  0.4324 -0.2845  0.1686
    4MOL   C608 3854   0.517   1.691   5.454 -0.2070  0.1764 -0.2702
    4MOL   C609 3855   0.547   1.694   5.593 -0.0091  0.6475 -0.6766
    4MOL   C610 3856   0.650   1.772   5.638  0.2147 -0.0481 -0.1025
    4MOL   C611 3857   0.718   1.861   5.550 -0.1042  0.1108 -0.3877
    4MOL   C612 3858   0.821   1.971   5.596  0.6270 -0.1359 -0.0251
    4MOL   C613 3859   0.949   1.890   5.624  0.5850 -0.1637 -0.1149
    4MOL   C614 3860   0.842   2.078   5.491  0.0029 -0.8013  0.0461
    4MOL   C615 3861   0.766   2.043   5.724  0.1682  0.0694  0.4679
    4MOL   C616 3862   0.854   2.076   5.832  0.9180 -0.0677 -0.0706
    4MOL   C617 3863   0.806   2.133   5.952  0.2632 -0.0057  0.2138
    4MOL   C618 3864   0.665   2.155   5.970  0.1088 -0.0504  0.0965
    4MOL   O619 3865   0.619   2.184   6.097 -0.0759 -0.1933  0.2720
    4MOL   C620 3866   0.575   2.123   5.859 -0.0260  0.1448  0.3015
    4MOL   C621 3867   0.630   2.073   5.735 -0.3201  0.1007  0.1624
    4MOL   C622 3868   0.689   1.848   5.413 -0.8210  0.4965 -0.7513
    4MOL   C623 3869   0.595   1.758   5.362  0.0756 -0.1001  0.3094
    4MOL   C624 3870   0.389   1.369   5.425  0.2989  0.7845 -0.3731
    4MOL   C625 3871   0.416   1.240   5.373  0.1844 -0.1230  0.5129
    4MOL   C626 3872   0.620   1.086   4.932  0.6912  0.1933  0.2703
    4MOL   C627 3873   0.589   1.106   4.795 -0.1829 -1.1066  0.2080
    4MOL   H628 3874   0.254   1.112   4.809  1.2661 -2.4776 -1.1707
    4MOL   H629 3875   0.308   1.082   5.056  1.8529  0.4037  1.8581
    4MOL   H630 3876   0.666   1.301   5.150 -0.0364 -0.2828 -0.1715
    4MOL   H631 3877   0.611   1.533   5.227 -2.2089  0.2051 -0.8121
    4MOL   H632 3878   0.490   1.637   5.665  0.1768  0.9470 -0.2928
    4MOL   H633 3879   0.670   1.772   5.744 -1.2044  1.1504  0.1828
    4MOL   H634 3880   0.940   1.805   5.691  1.4255  0.6184  1.0070
    4MOL   H635 3881   1.028   1.956   5.662  0.4631  0.0980 -0.3112
    4MOL   H636 3882   0.983   1.832   5.538  0.5105 -1.2537  0.5938
    4MOL   H637 3883   0.749   2.124   5.458  0.1634 -0.4808  0.0407
    4MOL   H638 3884   0.899   2.163   5.529  0.8736 -1.1218 -0.5200
    4MOL   H639 3885   0.897   2.040   5.405  0.2690 -2.1128  0.7677
    4MOL   H640 3886   0.961   2.062   5.826  0.7496 -2.5321  1.8769
    4MOL   H641 3887   0.884   2.148   6.025  2.4037 -0.1349 -1.9756
    4MOL   H642 3888   0.469   2.139   5.866 -0.2965 -1.3694 -0.2718
    4MOL   H643 3889   0.559   2.046   5.658 -0.0368 -1.6099  0.4716
    4MOL   H644 3890   0.740   1.908   5.339  3.8837 -0.1127  1.8493
    4MOL   H645 3891   0.584   1.755   5.255  0.4825 -1.1465  0.2915
    4MOL   H646 3892   0.310   1.383   5.498 -1.4914  0.8296 -2.2871
    4MOL   H647 3893   0.362   1.150   5.398  1.4174 -0.5146  1.7966
    4MOL   H648 3894   0.719   1.062   4.968 -0.4673 -0.5069  3.1004
    4MOL   H649 3895   0.666   1.113   4.720 -0.3326  1.6084  0.2892
    4MOL   C650 3896   0.540   2.084   6.151 -0.0264 -0.1001  0.1902
    4MOL   C651 3897   0.400   2.085   6.131 -0.1307  0.3782  0.6726
    4MOL   C652 3898   0.318   1.982   6.179 -0.2895 -0.7293 -0.0563
    4MOL   C653 3899   0.378   1.879   6.253 -0.5759 -0.2886 -0.7204
    4MOL   S654 3900   0.280   1.726   6.274 -0.4832  0.0149 -0.0308
    4MOL   O655 3901   0.151   1.766   6.330 -0.1186  0.3178  0.0365
    4MOL   O656 3902   0.364   1.621   6.331  0.6916  0.0930 -0.1187
    4MOL   C657 3903   0.239   1.690   6.096 -0.4291  0.1603  0.9057
    4MOL   C658 3904   0.325   1.732   5.987  0.4180  0.2771 -0.0620
    4MOL   C659 3905   0.291   1.704   5.855  0.1631 -0.3529 -0.4304
    4MOL   C660 3906   0.162   1.643   5.828  0.2570  0.5068  0.4048
    4MOL   O661 3907   0.115   1.633   5.694 -0.6497  0.4064  0.3220
    4MOL   C662 3908   0.052   1.747   5.654 -0.2236  0.5201 -0.2819
    4MOL   C663 3909   0.129   1.851   5.594 -0.1751  0.1772 -0.0664
    4MOL   C664 3910   0.068   1.979   5.581  0.6464 -0.3506  0.7516
    4MOL   C665 3911   8.183   1.999   5.628 -0.3346 -0.4283  0.5102
    4MOL   C666 3912   8.124   2.145   5.640 -0.5997 -0.2133  0.2971
    4MOL   C667 3913   8.118   2.193   5.496 -0.0995  0.5645  1.0312
    4MOL   C668 3914   7.983   2.155   5.701 -0.7319 -0.1672 -0.0475
    4MOL   C669 3915   8.220   2.237   5.729  0.1796 -0.3042  0.3535
    4MOL   C670 3916   0.002   2.188   5.858  0.5239 -0.5867 -0.0716
    4MOL   C671 3917   0.081   2.258   5.947 -0.7239 -1.4268  0.3005
    4MOL   C672 3918   0.151   2.373   5.909  0.2432 -0.2368  0.0140
    4MOL   O673 3919   0.245   2.425   5.997  0.1139 -0.1072  0.0403
    4MOL   C674 3920   0.115   2.432   5.785 -0.5096  0.0087  0.6520
    4MOL   C675 3921   0.020   2.370   5.698 -0.4583  0.5857  0.2298
    4MOL   C676 3922   8.113   1.893   5.689  0.0676 -0.3308 -0.2450
    4MOL   C677 3923   8.176   1.767   5.699 -0.3156 -1.0833  0.2144
    4MOL   C678 3924   0.079   1.595   5.933 -0.5300 -0.2897 -0.4459
    4MOL   C679 3925   0.119   1.622   6.064  0.6984  0.0110  0.0702
    4MOL   C680 3926   0.522   1.869   6.275 -0.4007 -0.0036  0.0558
    4MOL   C681 3927   0.602   1.977   6.223 -0.0769 -0.9332  0.4506
    4MOL   H682 3928   0.370   2.175   6.080  2.5004  2.2421  2.2766
    4MOL   H683 3929   0.210   1.988   6.173 -0.3188 -0.3287  0.7787
    4MOL   H684 3930   0.421   1.780   6.003  1.8671 -1.4432 -3.1235
    4MOL   H685 3931   0.350   1.754   5.780 -0.4486  0.2792 -0.5000
    4MOL   H686 3932   0.229   1.837   5.556  0.1054  0.9366  0.3896
    4MOL   H687 3933   0.131   2.063   5.554 -0.6192  1.0001  1.8924
    4MOL   H688 3934   8.217   2.222   5.460 -0.8299  1.4974 -0.2658
    4MOL   H689 3935   8.066   2.287   5.479 -0.9281 -0.0265  0.2583
    4MOL   H690 3936   8.081   2.118   5.426  0.2457  2.2629 -1.0363
    4MOL   H691 3937   7.980   2.129   5.807 -1.2605  0.2998  0.0531
    4MOL   H692 3938   7.948   2.258   5.694  1.9245  0.8644  1.1515
    4MOL   H693 3939   7.923   2.080   5.650 -0.4773 -0.4654  0.0883
    4MOL   H694 3940   8.219   2.094   5.896  0.8886 -0.9361 -0.5781
    4MOL   H695 3941   0.099   2.224   6.048  0.6730 -0.8315  0.2607
    4MOL   H696 3942   0.160   2.525   5.756 -0.7903  0.0466  0.3286
    4MOL   H697 3943   8.239   2.426   5.612 -2.6516 -2.2415 -0.8494
    4MOL   H698 3944   8.012   1.904   5.724  0.4680  1.1437  0.4706
    4MOL   H699 3945   8.121   1.685   5.744  1.4296 -1.0126  2.5678
    4MOL   H700 3946   8.235   1.552   5.915 -0.6865  0.1151 -0.5540
    4MOL   H701 3947   0.056   1.591   6.146 -0.2229 -1.5722 -1.2081
    4MOL   H702 3948   0.574   1.790   6.328  0.7837  0.3909 -0.5080
    4MOL   H703 3949   0.708   1.988   6.241  0.0616 -0.4632 -0.5950
    4MOL   C704 3950   0.218   2.532   6.083 -0.1200  0.9427  0.4174
    4MOL   C705 3951   0.159   2.642   6.024 -0.3110 -0.4815 -0.2997
    4MOL   C706 3952   0.136   2.763   6.089  0.4367  0.0018 -0.0180
    4MOL   C707 3953   0.179   2.778   6.219 -0.5359 -0.2030 -0.7019
    4MOL   S708 3954   0.160   2.935   6.302 -0.1136 -0.3362  0.0938
    4MOL   O709 3955   0.073   3.028   6.220  0.3780  0.1696 -0.5586
    4MOL   O710 3956   0.291   2.988   6.346  0.4726 -0.1349 -0.3837
    4MOL   C711 3957   0.075   2.892   6.461 -1.1861 -0.7838 -0.4176
    4MOL   C712 3958   0.162   2.853   6.565 -0.0015  0.5209  0.0196
    4MOL   C713 3959   0.111   2.779   6.679 -0.5206  0.0411  0.3253
    4MOL   C714 3960   8.226   2.771   6.693  0.4576  0.2608 -0.1229
    4MOL   O715 3961   8.166   2.720   6.804 -0.1480 -0.0109  0.2690
    4MOL   C716 3962   8.217   2.764   6.917  0.3727  0.8095  0.8463
    4MOL   C717 3963   0.074   2.697   6.989 -0.7454  0.1916 -0.4177
    4MOL   C718 3964   0.116   2.757   7.114 -0.1786  0.2043  0.3558
    4MOL   C719 3965   0.066   2.883   7.160  0.0330 -0.0584 -0.2786
    4MOL   C720 3966   0.130   2.954   7.283  0.0563 -0.2006  0.6645
    4MOL   C721 3967   0.280   2.917   7.307  0.4603  0.0423 -0.3085
    4MOL   C722 3968   0.145   3.105   7.249  1.0238  1.3962 -0.6392
    4MOL   C723 3969   0.031   2.934   7.405 -0.5910 -0.5845 -0.2997
    4MOL   C724 3970   0.048   2.825   7.495 -0.0521 -0.0040  0.0853
    4MOL   C725 3971   8.211   2.803   7.605  0.8831 -0.5119 -0.4366
    4MOL   C726 3972   8.113   2.902   7.628  0.6869 -0.7407  0.5021
    4MOL   O727 3973   8.019   2.896   7.733  0.0725 -0.4607 -0.1410
    4MOL   C728 3974   8.107   3.017   7.552 -0.2011 -0.2415  0.5657
    4MOL   C729 3975   8.184   3.033   7.435  0.0788  0.6533  0.0752
    4MOL   C730 3976   8.210   2.939   7.086  0.1018  0.3859  0.1899
    4MOL   C731 3977   8.155   2.883   6.970 -0.1252  0.8394 -0.2904
    4MOL   C732 3978   8.138   2.834   6.601  0.9488  0.7402  0.8224
    4MOL   C733 3979   8.191   2.890   6.481  0.6042 -0.2207  0.7055
    4MOL   C734 3980   0.247   2.671   6.281  0.5452  0.0169 -0.1046
    4MOL   C735 3981   0.262   2.545   6.216 -0.5068  0.3456 -0.3165
    4MOL   H736 3982   0.137   2.645   5.918 -0.3079  0.1115 -0.2868
    4MOL   H737 3983   0.080   2.844   6.044  0.1589 -0.5990 -0.7554
    4MOL   H738 3984   0.267   2.874   6.561  0.3192 -0.7580  1.3511
    4MOL   H739 3985   0.184   2.746   6.752 -1.2705 -0.5972  0.7906
    4MOL   H740 3986   0.125   2.613   6.946  1.1942  1.1257  0.0064
    4MOL   H741 3987   0.194   2.703   7.166 -0.9359 -0.7969  0.4542
    4MOL   H742 3988   0.352   2.932   7.226  3.2059  1.1838  2.2178
    4MOL   H743 3989   0.293   2.812   7.334 -1.0400  0.5288  2.5281
    4MOL   H744 3990   0.326   2.967   7.392  0.3664 -0.5753  0.1091
    4MOL   H745 3991   0.056   3.157   7.212 -0.9317 -0.5578  1.1687
    4MOL   H746 3992   0.163   3.152   7.345 -0.5875  0.2894  0.2343
    4MOL   H747 3993   0.225   3.122   7.178  0.1929  0.2909 -1.8797
    4MOL   H748 3994   0.123   2.748   7.485  1.9607  1.9065  0.0118
    4MOL   H749 3995   8.222   2.722   7.676  1.3240  0.7092  0.9193
    4MOL   H750 3996   8.037   3.096   7.570  2.2706  1.8165  1.4484
    4MOL   H751 3997   8.163   3.120   7.374  1.0917  1.5650  0.9861
    4MOL   H752 3998   8.172   3.031   7.127  0.5847  1.9554 -2.7543
    4MOL   H753 3999   8.069   2.920   6.917  0.0777 -1.4847 -2.3565
    4MOL   H754 4000   8.033   2.847   6.622  0.8093  1.5013 -0.2798
    4MOL   H755 4001   8.116   2.922   6.410  0.7873 -0.2796  0.4851
    4MOL   H756 4002   0.297   2.687   6.376 -1.0809  1.7401  0.5065
    4MOL   H757 4003   0.312   2.464   6.266 -2.2509 -0.7629 -0.3262
    4MOL   C758 4004   8.059   2.963   7.849 -0.1235  0.1121 -0.1573
    4MOL   C759 4005   8.014   3.091   7.877 -0.3277 -0.7179  0.3469
    4MOL   C760 4006   8.038   3.141   8.006  0.9323  0.6519 -0.5039
    4MOL   C761 4007   8.114   3.076   8.103 -0.0398  0.2508 -0.0080
    4MOL   S762 4008   8.150   3.144   0.011  0.0178  0.0687  0.2238
    4MOL   O763 4009   8.236   3.258   8.233  0.0744 -0.0935  1.4046
    4MOL   O764 4010   8.209   3.037   0.100  0.1423 -0.2296 -0.1889
    4MOL   C765 4011   7.992   3.201   0.085  0.2288  0.3542 -0.5285
    4MOL   C766 4012   7.984   3.296   0.186  0.3202 -0.1503  0.3307
    4MOL   C767 4013   7.860   3.340   0.228  0.2677  0.2928 -0.4546
    4MOL   C768 4014   7.741   3.292   0.168 -0.9001 -0.1156  0.0143
    4MOL   O769 4015   7.621   3.329   0.215  0.2279 -0.4519 -0.1060
    4MOL   C770 4016   7.538   3.397   0.121  0.0930 -1.3121  0.6231
    4MOL   C771 4017   7.427   3.337   0.063  0.2265  0.0226 -0.3131
    4MOL   C772 4018   7.351   3.409   8.221  0.6464  0.3015 -0.0589
    4MOL   C773 4019   7.379   3.539   8.179  0.2162 -0.6675  0.8668
    4MOL   C774 4020   7.298   3.609   8.070 -0.2436 -0.3980 -0.2613
    4MOL   C775 4021   7.223   3.517   7.977 -0.0991  0.5175 -0.0786
    4MOL   C776 4022   7.200   3.704   8.156  0.2745 -0.5183 -0.3319
    4MOL   C777 4023   7.391   3.691   7.977 -0.5211  0.0735 -0.5038
    4MOL   C778 4024   7.373   3.826   7.937  0.5362 -0.3604 -1.3683
    4MOL   C779 4025   7.455   3.890   7.842 -0.1968 -0.6066 -0.0596
    4MOL   C780 4026   7.566   3.818   7.791 -1.4002  0.0358  0.0555
    4MOL   O781 4027   7.642   3.891   7.699 -0.1309 -0.4208 -0.1342
    4MOL   C782 4028   7.599   3.688   7.828  0.8448  0.4365 -0.1210
    4MOL   C783 4029   7.502   3.628   7.916  0.1648 -0.0143 -0.6035
    4MOL   C784 4030   7.483   3.604   8.249  0.1948 -0.1584 -0.1517
    4MOL   C785 4031   7.563   3.537   0.091 -0.3928 -0.4594  0.1754
    4MOL   C786 4032   7.744   3.202   0.064  0.8058  0.2539 -1.1316
    4MOL   C787 4033   7.870   3.160   0.021 -0.0616  0.4782 -0.1279
    4MOL   C788 4034   8.167   2.944   8.071 -0.4174 -0.0538 -0.3833
    4MOL   C789 4035   8.125   2.885   7.949 -0.0833  0.4156 -0.1456
    4MOL   H790 4036   7.955   3.156   7.815  1.0862  0.2245 -0.0481
    4MOL   H791 4037   8.004   3.239   8.037 -0.0518 -0.6665  2.8415
    4MOL   H792 4038   8.073   3.342   0.226 -0.7397  1.7830  0.5629
    4MOL   H793 4039   7.869   3.399   0.318  0.9274 -1.3612  0.5705
    4MOL   H794 4040   7.393   3.236   0.079 -0.2482  0.3272  0.6458
    4MOL   H795 4041   7.271   3.347   8.184 -0.1380  1.5265 -0.4299
    4MOL   H796 4042   7.283   3.437   7.933  1.4570  1.3574  0.4709
    4MOL   H797 4043   7.155   3.570   7.909  0.7804  0.9657 -0.6264
    4MOL   H798 4044   7.158   3.450   8.032  1.6155  0.4113  1.8569
    4MOL   H799 4045   7.160   3.647   8.241  3.0727 -1.4280  0.4457
    4MOL   H800 4046   7.250   3.791   8.199 -0.9013  1.2503 -2.4865
    4MOL   H801 4047   7.119   3.744   8.097  0.4319  1.7327  0.9242
    4MOL   H802 4048   7.289   3.880   7.979  1.4499 -0.6852  0.9235
    4MOL   H803 4049   7.452   3.995   7.817  1.2120 -0.9975 -1.9299
    4MOL   H804 4050   7.687   3.638   7.791  0.2274  0.6707 -1.9567
    4MOL   H805 4051   7.516   3.528   7.954 -0.4369 -0.0119 -0.3711
    4MOL   H806 4052   7.489   3.712   8.247 -0.8295 -0.0829  0.2961
    4MOL   H807 4053   7.634   3.600   0.141 -1.4379  1.0047 -0.1609
    4MOL   H808 4054   7.656   3.182   0.004 -0.1529 -0.7296  0.5573
    4MOL   H809 4055   7.871   3.092   8.190 -1.5139 -1.1801  1.1367
    4MOL   H810 4056   8.221   2.879   8.137  0.6725  0.6826 -0.5517
    4MOL   H811 4057   8.151   2.782   7.927 -0.2380  0.7297 -1.8620
    4MOL   C812 4058   7.729   3.989   7.741 -0.4747 -0.4112  0.3321
    4MOL   C813 4059   7.767   4.097   7.654  0.2455 -0.6198  0.3321
    4MOL   C814 4060   7.850   4.198   7.711  0.1400  0.0082 -0.1423
    4MOL   C815 4061   7.904   4.191   7.845 -0.5525 -0.3125 -0.1627
    4MOL   S816 4062   8.003   4.330   7.905  0.6813 -0.3502 -0.2192
    4MOL   O817 4063   7.920   4.445   7.942 -0.2459  0.6618  0.7676
    4MOL   O818 4064   8.105   4.359   7.805  0.3203  0.2343 -0.3866
    4MOL   C819 4065   8.075   4.267   8.058 -0.4644  0.3129  0.1138
    4MOL   C820 4066   8.195   4.196   8.051  0.4909 -0.5668  0.5003
    4MOL   C821 4067   8.246   4.124   8.159  0.3032 -0.6149 -0.4844
    4MOL   C822 4068   8.171   4.120   0.024  0.3249 -0.1909  0.7077
    4MOL   O823 4069   8.224   4.062   0.132  0.3464 -0.1151  0.1054
    4MOL   C824 4070   8.243   4.136   0.245  0.8026  0.3543  0.0591
    4MOL   C825 4071   8.144   4.148   0.345 -0.0835  0.0616 -0.1033
    4MOL   C826 4072   8.171   4.234   0.454  0.5357 -0.2985 -0.0362
    4MOL   C827 4073   0.040   4.299   0.467  0.3938  0.2864  0.0022
    4MOL   C828 4074   0.073   4.400   0.576  0.1774  0.1325  0.2583
    4MOL   C829 4075   8.230   4.388   0.702 -0.0693 -0.7442  0.6252
    4MOL   C830 4076   0.218   4.368   0.632  0.2069 -0.2073 -0.2486
    4MOL   C831 4077   0.070   4.545   0.523 -0.7932 -0.0476  0.1058
    4MOL   C832 4078   8.203   4.600   0.479 -0.7851 -0.5490 -0.7100
    4MOL   C833 4079   8.191   4.731   0.437  1.1580  0.3074  0.8618
    4MOL   C834 4080   0.051   4.817   0.428 -0.0552 -0.5151  0.8907
    4MOL   O835 4081   0.037   4.941   0.376  0.0726  0.5373  0.4459
    4MOL   C836 4082   0.178   4.758   0.471  0.1155  0.3288 -0.4370
    4MOL   C837 4083   0.187   4.625   0.515 -0.8711  0.6622 -0.6160
    4MOL   C838 4084   0.136   4.284   0.362 -0.2775  0.2471  1.0428
    4MOL   C839 4085   0.112   4.199   0.256 -0.4184  0.8017  0.2604
    4MOL   C840 4086   8.043   4.186   0.030 -0.0152  0.6319  0.5445
    4MOL   C841 4087   7.991   4.255   8.174 -0.7079 -0.4118 -0.0044
    4MOL   C842 4088   7.875   4.084   7.924 -0.1331  0.6347 -0.4634
    4MOL   C843 4089   7.799   3.982   7.871  0.2658 -0.5338 -0.5943
    4MOL   H844 4090   7.739   4.096   7.550 -1.8701 -3.6496  0.8723
    4MOL   H845 4091   7.868   4.283   7.647 -2.2943  0.0467 -0.8373
    4MOL   H846 4092   8.251   4.196   7.958  0.0546 -1.3003  0.2373
    4MOL   H847 4093   0.092   4.083   8.170  0.5794 -0.8735 -3.6799
    4MOL   H848 4094   8.054   4.091   0.331 -0.2347  0.5826 -1.3629
    4MOL   H849 4095   8.093   4.244   0.529  1.2331  1.6666  0.4560
    4MOL   H850 4096   8.239   4.288   0.745  0.5565 -2.1203 -2.5984
    4MOL   H851 4097   8.126   4.395   0.673  0.1400 -1.5802 -0.3570
    4MOL   H852 4098   8.250   4.473   0.767  0.9592 -0.4634 -0.0306
    4MOL   H853 4099   0.233   4.438   0.714 -1.0345  0.4374 -0.5599
    4MOL   H854 4100   0.219   4.266   0.670 -0.9105 -0.6620 -1.4111
    4MOL   H855 4101   0.304   4.375   0.565  0.6409 -3.4013 -0.1176
    4MOL   H856 4102   8.118   4.534   0.485 -0.4352 -0.9723 -0.3683
    4MOL   H857 4103   8.099   4.762   0.389  0.3943 -0.9252  1.4892
    4MOL   H858 4104   0.270   4.814   0.464 -0.9233  2.1821  0.3748
    4MOL   H859 4105   0.283   4.597   0.555 -2.3558 -2.1700  1.1173
    4MOL   H860 4106   0.241   4.308   0.379  0.0327 -0.5029  0.1865
    4MOL   H861 4107   0.184   4.192   0.176 -0.4593  0.3135  0.2636
    4MOL   H862 4108   7.985   4.166   0.119 -3.3268  1.0829 -1.4300
    4MOL   H863 4109   7.894   4.302   8.184 -0.8150 -0.8785  1.2024
    4MOL   H864 4110   7.897   4.082   8.030  1.0251  0.1941 -0.7055
    4MOL   H865 4111   7.783   3.893   7.930  2.3577 -0.2336  0.4628
    4MOL   C866 4112   0.139   4.988   0.289 -0.3010 -0.0189 -0.0275
    4MOL   C867 4113   0.209   5.110   0.315 -0.1892 -0.4044  0.0359
    4MOL   C868 4114   0.312   5.155   0.228 -0.5441 -0.6499 -0.5753
    4MOL   C869 4115   0.349   5.079   0.115 -0.3061 -0.4860 -0.0108
    4MOL   S870 4116   0.483   5.123   0.003  0.5757  0.0279 -0.3073
    4MOL   O871 4117   0.538   4.994   8.206 -0.4060 -0.5731 -0.3768
    4MOL   O872 4118   0.571   5.219   0.073  0.1969 -0.5161  0.5852
    4MOL   C873 4119   0.418   5.208   8.113  0.3745 -0.1978 -0.3024
    4MOL   C874 4120   0.503   5.259   8.020 -0.5961  0.4438 -0.1079
    4MOL   C875 4121   0.450   5.319   7.899  0.8016 -0.2104  0.4438
    4MOL   C876 4122   0.307   5.329   7.883 -0.2555  1.2909 -0.1513
    4MOL   O877 4123   0.267   5.374   7.760  0.0577 -0.1930 -0.3984
    4MOL   C878 4124   0.279   5.511   7.744  0.2303 -0.0870  0.0294
    4MOL   C879 4125   0.201   5.592   7.832 -0.4784  0.3861 -0.3417
    4MOL   C880 4126   0.229   5.729   7.839  0.0168  0.2019 -0.7006
    4MOL   C881 4127   0.329   5.784   7.750  0.6327  0.0959 -0.4155
    4MOL   C882 4128   0.341   5.940   7.748 -0.2144 -0.5130  0.1148
    4MOL   C883 4129   0.477   5.978   7.682 -0.7792 -0.7112  0.4203
    4MOL   C884 4130   0.229   5.995   7.663 -0.1771  0.0243 -0.3084
    4MOL   C885 4131   0.348   5.993   7.894  0.3421 -1.2593 -0.1341
    4MOL   C886 4132   0.272   6.107   7.936 -0.6986  0.6775 -1.1154
    4MOL   C887 4133   0.294   6.162   8.068  0.9657  0.2729  0.1147
    4MOL   C888 4134   0.391   6.108   8.149 -0.4654 -0.3196 -0.2485
    4MOL   O889 4135   0.426   6.173   0.013  0.1862  0.1012  0.2105
    4MOL   C890 4136   0.461   5.991   8.114 -0.6628  0.1670 -0.1326
    4MOL   C891 4137   0.434   5.931   7.986  0.0206  0.1741  0.3931
    4MOL   C892 4138   0.404   5.699   7.659  0.5438  0.6122  0.5029
    4MOL   C893 4139   0.381   5.559   7.663 -0.0253  0.0445 -0.4733
    4MOL   C894 4140   0.222   5.265   7.977  0.0255 -0.4974  0.2805
    4MOL   C895 4141   0.277   5.205   8.090  0.1075 -0.6432 -0.1350
    4MOL   C896 4142   0.273   4.961   0.085 -0.6636 -0.1788  0.3163
    4MOL   C897 4143   0.170   4.916   0.170  0.0827  0.1246  0.8442
    4MOL   H898 4144   0.178   5.165   0.402 -0.4090 -1.0076  0.3476
    4MOL   H899 4145   0.355   5.249   0.258  0.8041 -2.1207  2.2086
    4MOL   H900 4146   0.609   5.242   8.035 -0.2914  1.2270 -1.2452
    4MOL   H901 4147   0.505   5.355   7.814 -1.2559  2.6325  0.2766
    4MOL   H902 4148   0.127   5.537   7.889 -0.1191 -1.8191 -1.9196
    4MOL   H903 4149   0.180   5.795   7.909  0.3760 -2.7155  2.4240
    4MOL   H904 4150   0.499   6.084   7.692 -4.6603  0.3482 -1.3390
    4MOL   H905 4151   0.468   5.957   7.575 -1.1842 -0.2530  0.3625
    4MOL   H906 4152   0.550   5.915   7.732 -1.1658 -0.4058  1.3623
    4MOL   H907 4153   0.246   6.101   7.647  2.7599 -0.8160 -3.1916
    4MOL   H908 4154   0.229   5.946   7.566  2.1077 -0.8793  0.1292
    4MOL   H909 4155   0.127   5.983   7.701 -0.8496  0.7599 -1.8490
    4MOL   H910 4156   0.199   6.144   7.866 -0.7753  3.2502  0.2345
    4MOL   H911 4157   0.240   6.252   8.090  0.0918  0.2684 -1.9571
    4MOL   H912 4158   0.553   5.964   8.163 -0.0308  0.6109 -1.0573
    4MOL   H913 4159   0.491   5.848   7.946 -1.5346 -0.1906 -1.1352
    4MOL   H914 4160   0.487   5.732   7.598  1.1634 -0.1905  0.9128
    4MOL   H915 4161   0.443   5.489   7.608 -1.2002  0.2488 -2.0917
    4MOL   H916 4162   0.115   5.258   7.962 -0.0907  0.1801  0.7635
    4MOL   H917 4163   0.207   5.159   8.159  0.9076 -2.9683 -0.8276
    4MOL   H918 4164   0.293   4.905   8.248  1.2736  0.2307  0.4675
    4MOL   H919 4165   0.119   4.822   0.152 -2.1852  1.3991  0.4560
    4MOL   C920 4166   0.491   6.293   8.248 -0.8464 -0.0623 -0.3266
    4MOL   C921 4167   0.621   6.304   8.192 -0.4750 -0.3380  0.1573
    4MOL   C922 4168   0.676   6.435   8.181  0.9381  0.7902 -0.7904
    4MOL   C923 4169   0.603   6.548   8.225 -0.6540 -0.0025 -0.4592
    4MOL   S924 4170   0.681   6.703   8.197 -0.0260  0.2108 -0.2190
    4MOL   O925 4171   0.579   6.808   8.202 -0.1545 -0.0263  0.5363
    4MOL   O926 4172   0.764   6.696   8.076  0.0150  0.1171 -0.2121
    4MOL   C927 4173   0.799   6.734   0.073 -0.5147 -0.6366  0.5139
    4MOL   C928 4174   0.788   6.696   0.206  0.5889 -0.4859 -0.5089
    4MOL   C929 4175   0.887   6.736   0.300  0.0105  0.7917  0.2004
    4MOL   C930 4176   0.983   6.839   0.266  0.3551  0.1851 -0.1754
    4MOL   O931 4177   1.065   6.904   0.355  0.7897  0.4034  0.7053
    4MOL   C932 4178   1.175   6.835   0.393 -0.2299 -0.3347  0.0352
    4MOL   C933 4179   1.164   6.731   0.491 -0.6654 -0.6659 -0.4090
    4MOL   C934 4180   1.282   6.662   0.529 -0.3500 -0.4658  0.1642
    4MOL   C935 4181   1.411   6.699   0.484 -0.0725 -0.1287 -1.1677
    4MOL   C936 4182   1.532   6.631   0.553 -0.2233  0.2066  0.3777
    4MOL   C937 4183   1.652   6.635   0.464  0.2377 -0.1889  0.0533
    4MOL   C938 4184   1.572   6.709   0.677  0.1323 -0.7634 -0.5176
    4MOL   C939 4185   1.510   6.479   0.585 -0.7294  0.4210 -0.2506
    4MOL   C940 4186   1.516   6.436   0.717 -0.4987 -0.1154 -0.2450
    4MOL   C941 4187   1.510   6.299   0.749  0.9700  0.8723  0.4672
    4MOL   C942 4188   1.486   6.204   0.647  0.3513  0.1383 -0.4224
    4MOL   O943 4189   1.490   6.070   0.674  0.2696  0.4502  0.1556
    4MOL   C944 4190   1.476   6.251   0.512  0.2458 -0.0696 -0.5660
    4MOL   C945 4191   1.477   6.390   0.485  0.2188  0.3607  1.0605
    4MOL   C946 4192   1.421   6.804   0.387 -0.0585  0.4758  0.1054
    4MOL   C947 4193   1.302   6.873   0.342 -0.0629  0.4381 -0.2410
    4MOL   C948 4194   0.986   6.878   0.132  0.2018 -0.2646  0.1572
    4MOL   C949 4195   0.903   6.816   0.031  0.0749  0.3833 -0.1042
    4MOL   C950 4196   0.479   6.535   0.022  0.5917  0.4819 -0.1851
    4MOL   C951 4197   0.421   6.408   0.028  0.0604  0.2259 -0.5600
    4MOL   H952 4198   0.670   6.221   8.144 -3.1903 -0.0008 -3.3823
    4MOL   H953 4199   0.779   6.449   8.152  1.6436 -0.2130  1.1611
    4MOL   H954 4200   0.700   6.637   0.227  0.3733  0.1707  0.4526
    4MOL   H955 4201   0.874   6.694   0.399 -2.3970  1.7188  0.3041
    4MOL   H956 4202   1.066   6.703   0.525  0.4046 -1.5340  2.0910
    4MOL   H957 4203   1.272   6.572   0.587  2.5211 -0.6435  0.4515
    4MOL   H958 4204   1.642   6.594   0.363 -1.8682  1.4440 -0.4218
    4MOL   H959 4205   1.733   6.572   0.502 -0.4876 -0.2823  1.4605
    4MOL   H960 4206   1.690   6.737   0.460  0.9472 -0.4213  0.5911
    4MOL   H961 4207   1.596   6.812   0.650 -1.9798 -0.2007 -0.3584
    4MOL   H962 4208   1.493   6.725   0.751 -0.0990 -0.5811 -0.8016
    4MOL   H963 4209   1.659   6.666   0.727  0.5211  0.6725  0.0961
    4MOL   H964 4210   1.508   6.505   0.799  0.2943 -0.5896  0.2500
    4MOL   H965 4211   1.528   6.256   0.846  1.1109  1.7368  0.8315
    4MOL   H966 4212   1.453   6.191   0.426 -3.5604 -0.4715  0.6322
    4MOL   H967 4213   1.461   6.421   0.383 -0.6806  2.5422  1.8424
    4MOL   H968 4214   1.523   6.838   0.375  0.8128 -1.5023  1.6567
    4MOL   H969 4215   1.302   6.951   0.267 -0.8338 -0.9643 -1.7292
    4MOL   H970 4216   1.067   6.940   0.097  1.2556 -2.2664 -1.0280
    4MOL   H971 4217   0.897   6.855   8.184 -0.0734  1.1311  0.1953
    4MOL   H972 4218   0.421   6.622   0.050  2.6454  1.2136  1.9207
    4MOL   H973 4219   0.319   6.396   0.060  0.5252  0.1657  0.9504
    4MOL   C974 4220   1.606   6.006   0.648 -1.0633  0.1077  0.8925
    4MOL   C975 4221   1.707   6.002   0.751  0.3418 -0.1256 -1.1557
    4MOL   C976 4222   1.837   5.960   0.734  0.2875 -0.5978  0.4114
    4MOL   C977 4223   1.864   5.909   0.610 -0.3996 -0.1294 -0.6678
    4MOL   S978 4224   2.031   5.857   0.572 -0.4165 -0.1340  0.4415
    4MOL   O979 4225   2.032   5.827   0.430  0.3093 -0.3006  0.0590
    4MOL   O980 4226   2.068   5.753   0.669  0.1811 -0.2678 -0.0551
    4MOL   C981 4227   2.125   6.008   0.600 -0.8938  0.1359 -0.5012
    4MOL   C982 4228   2.261   6.000   0.625 -0.5459  0.0026 -0.0947
    4MOL   C983 4229   2.341   6.116   0.617 -0.3155 -0.2463  0.0295
    4MOL   C984 4230   2.287   6.236   0.572  0.1205 -0.0764 -0.3041
    4MOL   O985 4231   2.370   6.342   0.549  0.4063 -0.4972  0.4416
    4MOL   C986 4232   2.416   6.415   0.645  0.2032 -0.1866  0.1621
    4MOL   C987 4233   2.477   6.367   0.762 -0.3498  0.7063  0.4387
    4MOL   C988 4234   2.540   6.457   0.858  0.4772  0.9098 -0.2541
    4MOL   C989 4235   2.527   6.597   0.836 -0.4815 -0.2757 -0.3095
    4MOL   C990 4236   2.573   6.706   0.935 -0.1450 -0.1357  0.3388
    4MOL   C991 4237   2.667   6.661   1.041 -0.6083  0.2647  0.1716
    4MOL   C992 4238   2.656   6.810   0.857 -0.4762  0.1048  0.4852
    4MOL   C993 4239   2.444   6.755   1.008 -0.4618 -0.4609 -0.7462
    4MOL   C994 4240   2.360   6.658   1.072 -0.5306 -0.0068  0.5687
    4MOL   C995 4241   2.237   6.699   1.132 -0.5629  0.2460 -0.0107
    4MOL   C996 4242   2.197   6.832   1.129  0.5390 -0.0326 -0.2136
    4MOL   O997 4243   2.075   6.863   1.179  0.0926  0.3914  0.5551
    4MOL   C998 4244   2.281   6.928   1.065 -0.3300 -0.1558  0.0840
    4MOL   C999 4245   2.399   6.885   1.007 -0.7974  0.7377  0.0996
    4MOL     C1 4246   2.453   6.643   0.726  0.2678 -0.8046 -0.3261
    4MOL     C2 4247   2.392   6.553   0.630 -0.0873 -0.6217 -0.7355
    4MOL     C3 4248   2.152   6.243   0.544  0.9427 -0.8391  0.4584
    4MOL     C4 4249   2.070   6.133   0.564 -0.7187 -0.2171 -0.1134
    4MOL     C5 4250   1.781   5.926   0.499 -0.7246  0.2817 -0.6270
    4MOL     C6 4251   1.651   5.968   0.519  0.7454 -0.2918 -0.3660
    4MOL     H7 4252   1.683   6.034   0.851  1.9018 -1.4242 -0.3578
    4MOL     H8 4253   1.907   5.965   0.815  1.2461 -0.2964 -0.4310
    4MOL     H9 4254   2.307   5.904   0.645  0.1839  0.1503 -1.0610
    4MOL    H10 4255   2.447   6.099   0.631 -0.7392 -1.1900  2.2748
    4MOL    H11 4256   2.498   6.262   0.778 -2.1744  0.4870  1.5389
    4MOL    H12 4257   2.585   6.420   0.949 -0.2779  2.3181  0.7130
    4MOL    H13 4258   2.758   6.629   0.991 -1.3340 -0.6416 -0.5868
    4MOL    H14 4259   2.632   6.578   1.102 -0.0986 -0.3866 -0.4163
    4MOL    H15 4260   2.695   6.734   1.117 -1.2977  0.4559  0.2455
    4MOL    H16 4261   2.738   6.764   0.803  1.1777 -2.4192  4.9172
    4MOL    H17 4262   2.585   6.861   0.792 -1.2812  0.8803  1.9426
    4MOL    H18 4263   2.697   6.884   0.925 -0.5994  2.7114 -2.1749
    4MOL    H19 4264   2.395   6.558   1.090  2.6190  1.3547  2.5007
    4MOL    H20 4265   2.182   6.622   1.184 -0.2406 -2.4432 -3.4602
    4MOL    H21 4266   2.252   7.029   1.039  0.0951  0.2620  1.2203
    4MOL    H22 4267   2.465   6.953   0.955  0.2593 -0.6242 -0.3462
    4MOL    H23 4268   2.425   6.745   0.708 -0.6353 -0.9821  0.0419
    4MOL    H24 4269   2.353   6.594   0.537 -1.3197 -1.1504 -0.4605
    4MOL    H25 4270   2.108   6.334   0.506  1.8152  0.4365  2.4310
    4MOL    H26 4271   1.965   6.143   0.543 -0.2765  0.5243 -2.0725
    4MOL    H27 4272   1.815   5.895   0.402  0.0048 -2.1587  0.3557
    4MOL    H28 4273   1.592   5.996   0.433  1.0799  1.9614  0.1086
    4MOL    C29 4274   1.987   6.935   1.103  0.3136  0.6497 -0.2624
    4MOL    C30 4275   1.921   7.045   1.167 -0.3717 -0.0846 -0.2266
    4MOL    C31 4276   1.828   7.124   1.089 -0.3649 -0.4231 -0.8036
    4MOL    C32 4277   1.797   7.084   0.961 -0.2535 -0.2980 -0.5150
    4MOL    S33 4278   1.691   7.191   0.864 -0.2080  0.3906  0.2028
    4MOL    O34 4279   1.745   7.329   0.878  0.6866  0.3232  0.3415
    4MOL    O35 4280   1.554   7.163   0.909  0.0151 -0.0458 -0.5381
    4MOL    C36 4281   1.704   7.148   0.691 -0.4705  0.7294 -0.6768
    4MOL    C37 4282   1.823   7.169   0.624 -0.5412  0.3374  0.2598
    4MOL    C38 4283   1.838   7.144   0.487 -0.3737 -0.3034 -0.0277
    4MOL    C39 4284   1.726   7.115   0.409 -0.0469 -0.4423 -0.3251
    4MOL    O40 4285   1.741   7.115   0.276 -1.0982 -0.0304  0.7791
    4MOL    C41 4286   1.720   6.992   0.213 -0.7791 -0.1010 -0.3909
    4MOL    C42 4287   1.807   6.883   0.234 -0.6941 -1.3049 -0.0634
    4MOL    C43 4288   1.783   6.758   0.177 -0.5398 -0.6746  0.5961
    4MOL    C44 4289   1.680   6.736   0.082 -0.4291  0.0947 -0.4411
    4MOL    C45 4290   1.644   6.601   0.026  0.3303 -0.5433  0.4101
    4MOL    C46 4291   1.499   6.559   0.065  0.1682  0.1811 -0.1987
    4MOL    C47 4292   1.636   6.606   8.126 -0.8123  0.3508 -0.6279
    4MOL    C48 4293   1.746   6.493   0.066 -0.8622 -0.2664 -0.7343
    4MOL    C49 4294   1.877   6.500   0.014  0.5904  0.1745  0.1108
    4MOL    C50 4295   1.978   6.411   0.057 -0.6093  0.4218 -0.2407
    4MOL    C51 4296   1.944   6.303   0.147  0.5638 -0.2804  0.2176
    4MOL    O52 4297   2.042   6.221   0.196 -0.3735 -0.1486  0.7119
    4MOL    C53 4298   1.814   6.299   0.202  0.0537 -0.4253  0.1266
    4MOL    C54 4299   1.719   6.393   0.161  0.4641  0.1527 -0.5030
    4MOL    C55 4300   1.603   6.850   0.049 -0.3710 -0.7118 -0.4621
    4MOL    C56 4301   1.620   6.975   0.117 -0.6415 -0.2001  0.1372
    4MOL    C57 4302   1.604   7.104   0.478  0.0032  0.3473 -0.4878
    4MOL    C58 4303   1.591   7.115   0.617  0.3602 -0.3217 -0.0802
    4MOL    C59 4304   1.847   6.966   0.908  0.2156  0.3791 -0.1231
    4MOL    C60 4305   1.948   6.893   0.975 -0.3406  0.5599 -0.3482
    4MOL    H61 4306   1.953   7.076   1.265 -1.5502  0.5100 -0.0147
    4MOL    H62 4307   1.784   7.212   1.135  0.7064 -0.9833  1.3589
    4MOL    H63 4308   1.911   7.208   0.673 -0.1672 -0.3842  0.1819
    4MOL    H64 4309   1.928   7.181   0.438 -1.6836  1.1638 -1.3921
    4MOL    H65 4310   1.890   6.899   0.301 -0.3525  1.0573 -1.0315
    4MOL    H66 4311   1.851   6.677   0.202  0.2989 -0.2280 -0.2516
    4MOL    H67 4312   1.423   6.633   0.042 -1.3467 -0.8111  1.4637
    4MOL    H68 4313   1.503   6.556   0.174 -0.9264 -0.4504 -0.1787
    4MOL    H69 4314   1.470   6.465   0.018  1.8769 -1.0524  1.1198
    4MOL    H70 4315   1.548   6.661   8.090 -1.0797  0.4497  0.1687
    4MOL    H71 4316   1.716   6.660   8.077 -1.1446  1.9213  0.5122
    4MOL    H72 4317   1.637   6.505   8.087 -0.7227  0.3934 -0.7355
    4MOL    H73 4318   1.896   6.575   8.192 -3.1511  2.5817  1.4189
    4MOL    H74 4319   2.075   6.418   0.009  0.3260 -1.8479  1.2150
    4MOL    H75 4320   1.780   6.222   0.269 -3.2326  2.5113  1.9751
    4MOL    H76 4321   1.619   6.380   0.199  0.2224  1.2197 -0.7578
    4MOL    H77 4322   1.524   6.841   8.229 -1.4731  0.3243  0.5848
    4MOL    H78 4323   1.550   7.054   0.092 -0.1400  0.2195  0.0502
    4MOL    H79 4324   1.522   7.088   0.409  0.5961  2.1506 -1.6568
    4MOL    H80 4325   1.503   7.098   0.677  0.6990 -0.8319  0.2766
    4MOL    H81 4326   1.839   6.932   0.806  0.5251  0.1062 -0.0583
    4MOL    H82 4327   1.978   6.799   0.931 -0.3540  0.0349  0.7336
    4MOL    H83 4328   2.125   6.261   0.174  0.3086 -1.6516  0.4977
    5MOL     C1 4329   2.808   3.475   0.954  0.8866  0.1330  0.0765
    5MOL     C2 4330   2.912   3.398   0.906  0.1078 -0.0062 -0.5908
    5MOL     C3 4331   3.010   3.344   0.995 -0.1765 -0.4493 -0.1807
    5MOL     C4 4332   3.002   3.384   1.128  0.7386  0.8974 -0.2865
    5MOL     S5 4333   3.107   3.308   1.247  0.3722  0.1648 -0.1687
    5MOL     O6 4334   3.080   3.360   1.382  1.1742 -0.4403 -0.1820
    5MOL     O7 4335   3.242   3.327   1.192 -0.1942  0.1379 -0.5234
    5MOL     C8 4336   3.072   3.137   1.254  0.9584  0.0994  0.0601
    5MOL     C9 4337   2.947   3.080   1.222 -0.5362 -0.3168  0.6443
    5MOL    C10 4338   2.932   2.938   1.237 -0.0779 -0.1818  0.6306
    5MOL    C11 4339   3.045   2.859   1.264 -0.0317  0.7153  0.0060
    5MOL    O12 4340   3.023   2.727   1.268  0.0688 -0.2388 -0.7034
    5MOL    C13 4341   3.032   2.652   1.156 -0.1919  0.1400 -0.2201
    5MOL    C14 4342   3.133   2.667   1.055 -0.2655  0.3008 -0.2182
    5MOL    C15 4343   3.130   2.593   0.942 -0.3645  0.1610 -0.2060
    5MOL    C16 4344   3.021   2.506   0.918 -0.5287  0.1663 -0.4219
    5MOL    C17 4345   3.009   2.433   0.780  0.0205 -0.0238 -0.4823
    5MOL    C18 4346   2.937   2.540   0.693 -0.1427  0.2169 -0.4941
    5MOL    C19 4347   3.143   2.405   0.724  0.5030  0.1996  0.0442
    5MOL    C20 4348   2.942   2.298   0.786  0.6234  0.1659  0.4235
    5MOL    C21 4349   2.979   2.194   0.883  0.2448  0.0001 -0.7366
    5MOL    C22 4350   2.905   2.077   0.889 -0.0704 -0.1982  0.0786
    5MOL    C23 4351   2.803   2.047   0.802 -0.2773 -0.0804  0.6819
    5MOL    O24 4352   2.731   1.929   0.810 -0.6952 -0.0194 -0.3283
    5MOL    C25 4353   2.766   2.144   0.705  0.3609  0.6551  0.0069
    5MOL    C26 4354   2.838   2.265   0.696  0.2043 -0.2727 -0.5372
    5MOL    C27 4355   2.925   2.482   1.021  0.2875 -0.0615  0.8051
    5MOL    C28 4356   2.932   2.561   1.137  0.4306  0.4550  0.3276
    5MOL    C29 4357   3.170   2.917   1.282  0.7683  0.2781 -0.0233
    5MOL    C30 4358   3.187   3.053   1.267 -0.6416  0.3277 -0.0186
    5MOL    C31 4359   2.910   3.470   1.181  0.2848 -0.5323  0.4367
    5MOL    C32 4360   2.809   3.517   1.093  0.2163  1.0450  0.4434
    5MOL    H33 4361   2.911   3.367   0.803 -2.2054 -0.9071 -0.3075
    5MOL    H34 4362   3.088   3.278   0.959  1.3827  1.2786 -0.0637
    5MOL    H35 4363   2.867   3.139   1.178  0.0110 -1.3843 -1.8557
    5MOL    H36 4364   2.834   2.894   1.228 -0.9323  0.9028  3.7525
    5MOL    H37 4365   3.207   2.746   1.059  0.7147 -0.7076  2.2203
    5MOL    H38 4366   3.213   2.599   0.873 -0.1795  1.5137  0.1312
    5MOL    H39 4367   2.940   2.512   0.588 -2.8877 -0.0579 -0.5256
    5MOL    H40 4368   2.985   2.638   0.699 -1.8030  0.9746  0.7146
    5MOL    H41 4369   2.830   2.562   0.696 -0.4048 -0.5421 -3.0085
    5MOL    H42 4370   3.138   2.347   0.632  0.8810 -0.4041  0.3985
    5MOL    H43 4371   3.195   2.494   0.688 -1.5720  0.5626 -2.2046
    5MOL    H44 4372   3.197   2.335   0.788 -1.2713 -0.2693  1.0902
    5MOL    H45 4373   3.051   2.210   0.961 -3.1406  1.2079  2.2716
    5MOL    H46 4374   2.937   2.001   0.960  0.1173 -0.2206 -0.0302
    5MOL    H47 4375   2.687   2.115   0.637  0.5615 -0.7573  0.3567
    5MOL    H48 4376   2.810   2.335   0.618  0.2694  1.4466  0.9634
    5MOL    H49 4377   2.841   2.417   1.002  1.9207 -1.7556 -0.8319
    5MOL    H50 4378   2.848   2.562   1.205 -0.2345 -0.2453 -0.4781
    5MOL    H51 4379   3.260   2.858   1.289  0.6370 -0.2737 -2.3736
    5MOL    H52 4380   3.286   3.088   1.290 -0.0405 -0.6595 -1.0501
    5MOL    H53 4381   2.916   3.498   1.285  1.6864  0.4566  0.0996
    5MOL    H54 4382   2.731   3.588   1.118 -1.6041 -0.2416 -1.4814
    5MOL    H55 4383   2.729   3.510   0.889 -0.6014  1.3084  2.4269
    5MOL    C56 4384   2.804   1.815   0.814  0.1478 -0.0691  0.8382
    5MOL    C57 4385   2.896   1.790   0.710  0.6323  0.1506  0.2519
    5MOL    C58 4386   2.982   1.675   0.717 -0.0536 -0.7897 -0.3030
    5MOL    C59 4387   2.958   1.578   0.819  0.1959  0.0973  0.1592
    5MOL    S60 4388   3.057   1.434   0.833 -0.3222  0.0641 -0.1699
    5MOL    O61 4389   3.083   1.383   0.698 -0.4693  0.1130  0.2556
    5MOL    O62 4390   3.007   1.353   0.942  0.0074 -0.1222  0.0408
    5MOL    C63 4391   3.213   1.493   0.894  0.0822  0.5806  0.1891
    5MOL    C64 4392   3.221   1.538   1.024 -0.2378  0.1617 -0.0761
    5MOL    C65 4393   3.349   1.573   1.076  0.8774 -0.2445  0.5639
    5MOL    C66 4394   3.465   1.551   1.005 -0.3433  0.2080  0.4952
    5MOL    O67 4395   3.589   1.592   1.057 -0.2541  0.5553  0.2269
    5MOL    C68 4396   3.671   1.485   1.088 -0.8854  0.0872 -0.0058
    5MOL    C69 4397   3.663   1.432   1.216 -0.1149 -0.4839  0.3644
    5MOL    C70 4398   3.745   1.322   1.248 -0.0726 -0.1190  0.0035
    5MOL    C71 4399   3.831   1.265   1.150  0.4981  0.6923 -0.1658
    5MOL    C72 4400   3.919   1.141   1.187  0.2357 -0.0696 -0.0619
    5MOL    C73 4401   3.821   1.039   1.245  0.0116 -0.4965 -0.3711
    5MOL    C74 4402   3.997   1.066   1.079  0.4356  0.0605  0.4546
    5MOL    C75 4403   4.024   1.187   1.286 -0.1700 -0.6032  0.0079
    5MOL    C76 4404   4.035   1.130   1.414  0.0464  0.6666 -0.2920
    5MOL    C77 4405   4.135   1.178   1.503  0.2944  0.9824 -0.1339
    5MOL    C78 4406   4.227   1.277   1.468 -0.8990 -0.6378 -0.4340
    5MOL    O79 4407   4.321   1.320   1.556  0.2351 -0.4277 -0.0014
    5MOL    C80 4408   4.207   1.338   1.345  0.5639 -0.2871 -0.4684
    5MOL    C81 4409   4.113   1.296   1.250 -0.7308  0.2413 -0.5963
    5MOL    C82 4410   3.839   1.318   1.020  0.2208 -0.4307  0.3121
    5MOL    C83 4411   3.760   1.432   0.990 -0.2907  0.0843  0.4049
    5MOL    C84 4412   3.454   1.517   0.866  0.5205 -0.0571  0.2358
    5MOL    C85 4413   3.327   1.493   0.811 -0.4828  0.0317  0.1966
    5MOL    C86 4414   2.860   1.604   0.922  0.0299 -0.6486 -0.0970
    5MOL    C87 4415   2.787   1.728   0.920  0.1781 -0.7255  0.6806
    5MOL    H88 4416   2.906   1.850   0.620  1.0614  1.5960  1.2548
    5MOL    H89 4417   3.065   1.662   0.649  1.1719  0.2642  0.9561
    5MOL    H90 4418   3.136   1.554   1.089 -0.4639 -0.8165 -0.1227
    5MOL    H91 4419   3.366   1.607   1.177  0.4057 -0.1395  0.6107
    5MOL    H92 4420   3.598   1.483   1.286  1.4251  3.7732 -1.1031
    5MOL    H93 4421   3.735   1.273   1.344  2.2562 -0.2114  0.2188
    5MOL    H94 4422   3.779   1.070   1.341  0.9774 -0.9521  0.2034
    5MOL    H95 4423   3.873   0.947   1.271  0.9868  0.3459  0.7209
    5MOL    H96 4424   3.740   1.015   1.176 -0.4730 -0.2698  0.1151
    5MOL    H97 4425   3.928   1.052   0.996 -0.9586  0.5190  1.5193
    5MOL    H98 4426   4.079   1.124   1.036 -0.7800  0.7980 -0.9099
    5MOL    H99 4427   4.023   0.968   1.119 -2.0606 -0.4670  0.8648
    5MOL   H100 4428   3.980   1.045   1.452  1.4097 -0.4973 -0.8327
    5MOL   H101 4429   4.154   1.136   1.601 -0.7197 -1.3905 -0.9229
    5MOL   H102 4430   4.274   1.410   1.302  0.3121 -0.6171 -1.4518
    5MOL   H103 4431   4.119   1.341   1.152 -1.2720 -1.5726 -1.4889
    5MOL   H104 4432   3.905   1.273   0.947  0.0117  0.6656 -0.5637
    5MOL   H105 4433   3.764   1.466   0.887  1.9543 -1.1959  0.0257
    5MOL   H106 4434   3.540   1.489   0.807 -0.6561  0.7238 -1.8743
    5MOL   H107 4435   3.312   1.455   0.711  0.6261 -1.1121  0.4613
    5MOL   H108 4436   2.856   1.534   1.005  2.2208 -1.3189 -0.5136
    5MOL   H109 4437   2.708   1.759   0.988  0.7649  0.5202  0.8027
    5MOL   C110 4438   4.434   1.241   1.570  0.1517  0.1019  0.1527
    5MOL   C111 4439   4.550   1.291   1.508  0.4505 -0.1472 -0.8278
    5MOL   C112 4440   4.673   1.222   1.513 -0.6132  0.3757 -1.2295
    5MOL   C113 4441   4.681   1.095   1.584  0.4128 -0.7222 -0.8743
    5MOL   S114 4442   4.835   1.020   1.603 -0.4436 -0.8416  0.0478
    5MOL   O115 4443   4.939   1.110   1.548  0.1545 -0.0594 -0.2649
    5MOL   O116 4444   4.833   0.884   1.549 -0.1770 -0.2401  0.0792
    5MOL   C117 4445   4.847   1.026   1.778  0.4550 -0.2899 -0.1940
    5MOL   C118 4446   4.831   0.907   1.849 -0.0187 -0.0611  0.0901
    5MOL   C119 4447   4.825   0.915   1.987  0.8952 -0.2035  0.2946
    5MOL   C120 4448   4.823   1.037   2.052  0.6536 -0.3950  0.0713
    5MOL   O121 4449   4.785   1.040   2.182  0.0707 -0.5873  0.3231
    5MOL   C122 4450   4.671   0.973   2.216  0.6447 -0.0122 -0.3505
    5MOL   C123 4451   4.543   0.999   2.165  0.1232 -0.1970 -0.1947
    5MOL   C124 4452   4.426   0.933   2.214 -0.1778  0.1482  0.2224
    5MOL   C125 4453   4.434   0.838   2.318 -0.1934 -0.0736 -0.3565
    5MOL   C126 4454   4.299   0.775   2.369  0.0193  0.9015  0.2100
    5MOL   C127 4455   4.227   0.717   2.243  0.0246 -0.0335 -0.5477
    5MOL   C128 4456   4.320   0.664   2.468  0.5328  0.4373  0.2949
    5MOL   C129 4457   4.210   0.875   2.431  0.6910  0.0059 -0.0976
    5MOL   C130 4458   4.251   1.006   2.457  0.3679 -0.0387 -0.0381
    5MOL   C131 4459   4.162   1.104   2.508 -0.5349 -0.4159 -0.3349
    5MOL   C132 4460   4.027   1.067   2.537  0.9923  0.1742  0.0703
    5MOL   O133 4461   3.936   1.153   2.593 -0.0729 -0.3150  1.1033
    5MOL   C134 4462   3.984   0.937   2.510 -0.4135  0.5758  0.4082
    5MOL   C135 4463   4.073   0.839   2.456  0.2379 -1.1794  0.0371
    5MOL   C136 4464   4.557   0.816   2.378 -0.2773 -0.1976  0.3170
    5MOL   C137 4465   4.672   0.877   2.325 -0.4914 -0.5958  0.5025
    5MOL   C138 4466   4.842   1.161   1.980 -0.5015 -0.0270 -1.0964
    5MOL   C139 4467   4.861   1.150   1.843 -0.0709 -0.2060  0.6297
    5MOL   C140 4468   4.568   1.043   1.648  0.8155  0.3209  0.2444
    5MOL   C141 4469   4.447   1.116   1.644 -0.1798  0.2950 -0.2881
    5MOL   H142 4470   4.547   1.393   1.471 -1.0886  1.0089  2.3249
    5MOL   H143 4471   4.763   1.270   1.475 -0.1618 -1.1342 -2.1104
    5MOL   H144 4472   4.821   0.809   1.805 -1.8405  0.9404 -1.7882
    5MOL   H145 4473   4.797   0.829   2.045 -0.9846  2.3095  3.2037
    5MOL   H146 4474   4.527   1.081   2.097 -1.1690 -0.5072 -0.2758
    5MOL   H147 4475   4.330   0.955   2.172 -0.0090 -2.5193 -1.6982
    5MOL   H148 4476   4.140   0.656   2.269 -0.5007  0.9543  0.0060
    5MOL   H149 4477   4.289   0.654   2.179 -0.1162  0.6422 -1.3464
    5MOL   H150 4478   4.175   0.782   2.173 -0.8367 -0.5832 -0.4252
    5MOL   H151 4479   4.390   0.588   2.435 -0.4489 -0.0445 -0.6860
    5MOL   H152 4480   4.363   0.701   2.561  2.7708 -0.2183 -0.4629
    5MOL   H153 4481   4.221   0.626   2.493  0.4591  0.8718  0.6707
    5MOL   H154 4482   4.353   1.038   2.436  0.3498 -0.7844 -1.2621
    5MOL   H155 4483   4.193   1.204   2.535  2.6103 -1.6147  0.7481
    5MOL   H156 4484   3.881   0.911   2.528 -0.3755  0.8723  1.0586
    5MOL   H157 4485   4.034   0.743   2.425  0.3655 -1.4433  0.7037
    5MOL   H158 4486   4.565   0.739   2.453 -0.5975  0.1200  0.6781
    5MOL   H159 4487   4.764   0.845   2.372  0.7069  1.4131 -0.4391
    5MOL   H160 4488   4.855   1.257   2.026  1.3611 -0.3529 -0.8974
    5MOL   H161 4489   4.881   1.245   1.796 -0.8354  0.5868  1.8860
    5MOL   H162 4490   4.566   0.955   1.711 -0.2418  1.2625  1.5612
    5MOL   H163 4491   4.371   1.069   1.704  0.0779  0.1127 -0.1030
    5MOL   C164 4492   3.955   1.174   2.727 -0.8504 -0.4350  0.7623
    5MOL   C165 4493   3.911   1.078   2.821 -0.0642 -0.3502  0.0760
    5MOL   C166 4494   3.919   1.103   2.958 -0.3626 -0.8728  0.0022
    5MOL   C167 4495   3.968   1.232   3.001  0.1765  0.2246 -0.3428
    5MOL   S168 4496   3.995   1.253   3.174 -0.0574  0.1143 -0.7531
    5MOL   O169 4497   4.043   1.391   3.190 -0.0231 -0.6173 -0.0754
    5MOL   O170 4498   4.070   1.141   3.226 -0.0213  0.4921  0.0769
    5MOL   C171 4499   3.829   1.247   3.248 -0.2338 -0.0343  0.7068
    5MOL   C172 4500   3.763   1.372   3.259 -0.5262  0.0027 -0.1374
    5MOL   C173 4501   3.632   1.377   3.312  0.0746  0.3441  0.0584
    5MOL   C174 4502   3.569   1.255   3.352  0.0751  0.6271 -0.0901
    5MOL   O175 4503   3.439   1.252   3.395  0.0590  0.2109 -0.3470
    5MOL   C176 4504   3.425   1.303   3.521  0.2609 -0.1891 -0.0463
    5MOL   C177 4505   3.358   1.424   3.543 -1.1375 -0.1933 -0.3894
    5MOL   C178 4506   3.366   1.481   3.677  0.2351  0.2373  0.5110
    5MOL   C179 4507   3.438   1.426   3.783 -0.1649  0.9030 -0.2053
    5MOL   C180 4508   3.431   1.483   3.925 -0.0951 -0.3583  0.1255
    5MOL   C181 4509   3.308   1.425   3.999  0.5995 -0.6489 -0.9230
    5MOL   C182 4510   3.562   1.448   4.002 -0.5085 -0.1217 -0.4864
    5MOL   C183 4511   3.430   1.637   3.913  0.1669  0.8795  0.3309
    5MOL   C184 4512   3.337   1.717   3.986  0.2730  0.1666 -0.2193
    5MOL   C185 4513   3.327   1.854   3.971  0.0605 -0.3779  0.1317
    5MOL   C186 4514   3.405   1.924   3.882 -0.5001  0.4427 -0.3286
    5MOL   O187 4515   3.401   2.061   3.871 -1.0630 -0.1557 -0.4048
    5MOL   C188 4516   3.508   1.852   3.815 -0.3243  0.0572  0.4346
    5MOL   C189 4517   3.521   1.710   3.831 -0.3406  0.4494 -0.3558
    5MOL   C190 4518   3.501   1.303   3.758 -0.3567  1.1866 -0.0424
    5MOL   C191 4519   3.493   1.246   3.629 -0.1682 -0.0893  0.3476
    5MOL   C192 4520   3.633   1.130   3.339  0.6833 -0.1131  0.2139
    5MOL   C193 4521   3.767   1.133   3.292  0.2098 -0.1983 -0.5831
    5MOL   C194 4522   3.992   1.336   2.908 -0.1293 -0.5146  0.7466
    5MOL   C195 4523   3.988   1.303   2.774  0.0830  0.3565  0.6654
    5MOL   H196 4524   3.871   0.987   2.780 -1.7826 -0.1646  1.2898
    5MOL   H197 4525   3.898   1.026   3.031 -0.0380 -0.5524  0.4426
    5MOL   H198 4526   3.811   1.467   3.243 -0.5122 -0.0538 -0.4168
    5MOL   H199 4527   3.579   1.468   3.337  0.2009  0.5627 -0.4740
    5MOL   H200 4528   3.307   1.467   3.458  1.0771  1.7844 -0.7515
    5MOL   H201 4529   3.299   1.566   3.683 -1.1564 -0.8523  0.6520
    5MOL   H202 4530   3.318   1.317   4.005 -1.0972 -0.6784  2.5041
    5MOL   H203 4531   3.216   1.444   3.945 -0.3544 -1.2434  0.4615
    5MOL   H204 4532   3.292   1.466   4.099  0.4777 -3.0606  0.0611
    5MOL   H205 4533   3.649   1.445   3.936 -0.0228  1.5584  0.0702
    5MOL   H206 4534   3.579   1.508   4.091  0.0392 -0.7595 -0.1508
    5MOL   H207 4535   3.564   1.343   4.031 -0.8539 -0.2805 -1.0262
    5MOL   H208 4536   3.262   1.671   4.048  1.2716  0.3160  1.1365
    5MOL   H209 4537   3.248   1.901   4.028  1.8670  1.9645  0.7686
    5MOL   H210 4538   3.581   1.897   3.749 -1.3916 -0.2414 -0.9695
    5MOL   H211 4539   3.602   1.660   3.780 -0.9776  2.0906 -3.0936
    5MOL   H212 4540   3.558   1.252   3.834 -1.0958 -1.7335 -1.3571
    5MOL   H213 4541   3.537   1.147   3.624 -0.3204 -0.1074 -0.5912
    5MOL   H214 4542   3.585   1.036   3.360  0.5268 -0.0092  0.3200
    5MOL   H215 4543   3.823   1.041   3.300 -1.6875 -1.3905 -0.5980
    5MOL   H216 4544   4.024   1.437   2.930  1.1967 -1.0057  1.1648
    5MOL   H217 4545   4.016   1.365   2.690  0.0937 -0.7520 -0.1659
    5MOL   C218 4546   3.384   2.127   3.758 -0.1191 -0.2104  0.6456
    5MOL   C219 4547   3.441   2.255   3.756  0.0742 -0.0819  0.1667
    5MOL   C220 4548   3.428   2.342   3.651  0.0230  0.2394 -0.0894
    5MOL   C221 4549   3.353   2.303   3.540  0.2638  0.2524  0.2179
    5MOL   S222 4550   3.349   2.417   3.392  0.1187  0.1194  0.3395
    5MOL   O223 4551   3.301   2.550   3.443  0.8615  0.6816  0.2276
    5MOL   O224 4552   3.261   2.353   3.295 -0.1414 -0.1794  0.3259
    5MOL   C225 4553   3.500   2.439   3.310 -0.6472  0.1241  0.9215
    5MOL   C226 4554   3.547   2.333   3.221  0.5335  0.0059  0.3093
    5MOL   C227 4555   3.677   2.341   3.164  0.0895  0.5644 -0.4078
    5MOL   C228 4556   3.744   2.460   3.163 -0.5989 -0.3500 -0.1755
    5MOL   O229 4557   3.863   2.477   3.090  0.0973 -0.0991 -1.1833
    5MOL   C230 4558   3.864   2.584   3.000 -0.3575  0.2335  0.0098
    5MOL   C231 4559   3.925   2.710   3.023 -0.1539 -0.4386  0.3777
    5MOL   C232 4560   3.932   2.808   2.918  0.3934  0.2232  0.0754
    5MOL   C233 4561   3.856   2.787   2.794 -0.1633 -0.1885 -1.0329
    5MOL   C234 4562   3.874   2.886   2.677  0.4663  0.5932  0.4091
    5MOL   C235 4563   3.813   2.840   2.541  0.3719 -0.0876 -0.1698
    5MOL   C236 4564   3.798   3.017   2.717  0.5145  0.3848 -0.0725
    5MOL   C237 4565   4.026   2.910   2.654 -0.4720 -0.0131  0.6636
    5MOL   C238 4566   4.106   2.818   2.583  0.0925 -0.0245 -0.5263
    5MOL   C239 4567   4.241   2.842   2.552  0.3004  1.2811 -0.6423
    5MOL   C240 4568   4.311   2.945   2.617  0.1934  0.0169 -1.1724
    5MOL   O241 4569   4.444   2.965   2.591 -0.0980 -0.2470 -0.0445
    5MOL   C242 4570   4.233   3.037   2.687  0.0101  0.4871  0.2563
    5MOL   C243 4571   4.092   3.021   2.709 -0.2438  0.3218  0.9143
    5MOL   C244 4572   3.791   2.664   2.779 -0.8193 -0.1803 -0.5171
    5MOL   C245 4573   3.803   2.562   2.875 -0.0297  1.4279 -0.1446
    5MOL   C246 4574   3.696   2.561   3.251 -0.3374 -0.0529 -0.2189
    5MOL   C247 4575   3.589   2.547   3.337  0.0472  0.2059  0.1561
    5MOL   C248 4576   3.287   2.175   3.536  0.7548 -0.4749  0.4886
    5MOL   C249 4577   3.306   2.081   3.645 -0.2041  0.4899 -0.1129
    5MOL   H250 4578   3.500   2.286   3.842 -0.6504  1.6659  0.0418
    5MOL   H251 4579   3.466   2.443   3.664 -0.4415  0.2976  0.8640
    5MOL   H252 4580   3.479   2.250   3.212 -1.5483  1.5049  1.5601
    5MOL   H253 4581   3.692   2.263   3.090 -1.2759  0.4572 -0.5814
    5MOL   H254 4582   3.968   2.736   3.119  2.8498 -0.8717 -0.7806
    5MOL   H255 4583   3.969   2.907   2.940 -1.9508  0.9844  0.7675
    5MOL   H256 4584   3.842   2.913   2.465 -0.2926 -0.7584 -1.0814
    5MOL   H257 4585   3.705   2.831   2.554  0.4168 -0.6186 -0.1601
    5MOL   H258 4586   3.849   2.740   2.518  1.5077  0.1616  0.4973
    5MOL   H259 4587   3.839   3.058   2.810 -1.2199 -1.1084  1.3848
    5MOL   H260 4588   3.796   3.090   2.636 -1.4570 -0.4367 -0.8149
    5MOL   H261 4589   3.692   3.000   2.739  0.1259  1.9647 -0.6340
    5MOL   H262 4590   4.071   2.720   2.552  3.7262 -1.0791 -1.6298
    5MOL   H263 4591   4.290   2.764   2.495  1.4299  1.0033  0.6869
    5MOL   H264 4592   4.282   3.123   2.729 -0.2395  1.5410 -1.5193
    5MOL   H265 4593   4.046   3.108   2.753  1.7415  1.7869  0.1233
    5MOL   H266 4594   3.737   2.644   2.688  0.5889 -1.7361 -1.0267
    5MOL   H267 4595   3.773   2.459   2.861  0.9301  0.9817  0.9679
    5MOL   H268 4596   3.761   2.647   3.253  1.3513 -1.2550 -1.2515
    5MOL   H269 4597   3.554   2.625   3.403 -1.3187 -0.8075  0.6432
    5MOL   H270 4598   3.227   2.153   3.449 -0.9970  2.7609  0.8092
    5MOL   H271 4599   3.255   1.986   3.646  3.1933 -1.4013  1.2098
    5MOL   C272 4600   4.492   3.025   2.472  0.0071  0.0565  0.2149
    5MOL   C273 4601   4.453   3.155   2.445 -1.0702 -0.3664 -0.2786
    5MOL   C274 4602   4.506   3.224   2.332 -0.1585  0.5272  0.0710
    5MOL   C275 4603   4.592   3.152   2.243 -0.4777 -0.8895 -0.4913
    5MOL   S276 4604   4.647   3.252   2.097 -0.4130  0.2037  0.2129
    5MOL   O277 4605   4.540   3.350   2.065 -0.1914  0.1681 -0.1669
    5MOL   O278 4606   4.676   3.143   1.996 -0.0834 -1.0032  0.2443
    5MOL   C279 4607   4.800   3.331   2.133  0.3791 -0.4693  0.4032
    5MOL   C280 4608   4.790   3.431   2.229  0.4407  0.0277  1.0771
    5MOL   C281 4609   4.901   3.519   2.253 -0.3217 -0.5176  0.0359
    5MOL   C282 4610   5.021   3.487   2.186 -0.0857 -0.4025 -0.0275
    5MOL   O283 4611   5.129   3.543   2.235 -0.1354  0.2382 -0.0331
    5MOL   C284 4612   5.141   3.679   2.218  0.1341  0.5979  1.3681
    5MOL   C285 4613   5.208   3.728   2.101  0.3490 -0.4043 -0.6424
    5MOL   C286 4614   5.219   3.866   2.080  0.4159  1.0852  0.1639
    5MOL   C287 4615   5.189   3.955   2.182  0.5618  0.2779  0.0552
    5MOL   C288 4616   5.230   4.101   2.169  0.0133  0.4452 -0.2687
    5MOL   C289 4617   5.165   4.161   2.037 -0.5437 -0.1359  0.1258
    5MOL   C290 4618   5.180   4.191   2.289 -0.7484  0.0668  0.1619
    5MOL   C291 4619   5.384   4.103   2.161  0.3652 -0.3501 -0.7232
    5MOL   C292 4620   5.450   4.193   2.071  0.5613  0.0476  0.9690
    5MOL   C293 4621   5.589   4.201   2.076 -0.4943 -0.6285 -0.3577
    5MOL   C294 4622   5.668   4.126   2.173  0.3217  0.6088  0.9331
    5MOL   O295 4623   5.805   4.137   2.184 -0.1133 -0.3940  0.7052
    5MOL   C296 4624   5.599   4.026   2.249 -0.0798 -0.4325  0.5412
    5MOL   C297 4625   5.459   4.013   2.240  0.1974 -0.8837 -0.0910
    5MOL   C298 4626   5.126   3.901   2.303 -0.0315 -0.9441  0.1840
    5MOL   C299 4627   5.095   3.765   2.311 -0.3223 -0.0279  0.1329
    5MOL   C300 4628   5.032   3.378   2.100  0.1337 -0.5699  0.0571
    5MOL   C301 4629   4.918   3.300   2.072  0.8400 -0.1060 -0.4880
    5MOL   C302 4630   4.625   3.016   2.272 -0.3192 -0.7542 -0.5691
    5MOL   C303 4631   4.577   2.957   2.387  0.1881  0.3397  0.3241
    5MOL   H304 4632   4.384   3.205   2.511  0.9848  1.6450  0.4313
    5MOL   H305 4633   4.488   3.328   2.309 -0.9087  0.1434 -1.1311
    5MOL   H306 4634   4.696   3.443   2.281 -0.1880 -0.4477  0.0475
    5MOL   H307 4635   4.900   3.595   2.329  0.4131  1.2129 -1.6376
    5MOL   H308 4636   5.258   3.656   2.038  1.9319  0.4212 -0.3554
    5MOL   H309 4637   5.281   3.895   1.997  0.9913  0.0573  0.2241
    5MOL   H310 4638   5.228   4.138   1.951 -0.4929  0.2033  0.0693
    5MOL   H311 4639   5.138   4.266   2.047  1.0606  0.4385 -1.2495
    5MOL   H312 4640   5.071   4.107   2.028 -0.1235 -0.9056  0.2742
    5MOL   H313 4641   5.073   4.201   2.271 -0.6741  0.0511 -0.2821
    5MOL   H314 4642   5.197   4.153   2.390 -2.6202 -1.0223  0.0854
    5MOL   H315 4643   5.221   4.292   2.287 -1.0171  0.1746  0.1026
    5MOL   H316 4644   5.400   4.255   1.998  1.5553 -1.8462 -1.3807
    5MOL   H317 4645   5.645   4.268   2.012  1.3073  0.5957  2.4016
    5MOL   H318 4646   5.659   3.969   2.318  0.1727  1.3649  1.8424
    5MOL   H319 4647   5.401   3.948   2.304  0.6588 -0.6940  0.5236
    5MOL   H320 4648   5.102   3.966   2.386 -0.9085 -1.2996  0.2125
    5MOL   H321 4649   5.041   3.732   2.398 -0.3767 -2.2848 -0.7305
    5MOL   H322 4650   5.130   3.355   2.061 -0.0492  1.2449 -1.5610
    5MOL   H323 4651   4.925   3.211   2.011 -1.1995  0.2032 -1.2479
    5MOL   H324 4652   4.692   2.969   2.202  0.9876 -0.5497  0.5283
    5MOL   H325 4653   4.619   2.858   2.399 -0.4977 -0.5095 -3.5342
    5MOL   C326 4654   5.852   4.205   2.294  0.1506 -1.1612 -0.3244
    5MOL   C327 4655   5.770   4.274   2.382 -0.0817 -0.2225  0.0320
    5MOL   C328 4656   5.821   4.347   2.488 -0.9797 -0.0927  0.8456
    5MOL   C329 4657   5.964   4.353   2.508 -0.5265 -0.5617 -0.9020
    5MOL   S330 4658   6.041   4.440   2.646 -0.1984  0.0706  0.3963
    5MOL   O331 4659   6.089   4.346   2.750  0.3093 -0.2982  0.1367
    5MOL   O332 4660   5.947   4.548   2.680 -0.3002 -0.5628  0.0691
    5MOL   C333 4661   6.192   4.522   2.584  0.3495 -0.1852 -0.5948
    5MOL   C334 4662   6.172   4.640   2.512  0.8229  0.1303  0.2030
    5MOL   C335 4663   6.285   4.715   2.461 -0.1975  0.4600  0.1487
    5MOL   C336 4664   6.418   4.664   2.490  0.3086  0.0098 -0.8693
    5MOL   O337 4665   6.522   4.747   2.453 -0.3114  0.1164 -0.0855
    5MOL   C338 4666   6.622   4.686   2.381 -0.0666 -0.6926  0.6853
    5MOL   C339 4667   6.725   4.625   2.450 -0.0313  0.4855  0.1469
    5MOL   C340 4668   6.828   4.561   2.375  0.3075  0.2558 -0.3614
    5MOL   C341 4669   6.816   4.548   2.234 -0.0104  0.2845 -0.7449
    5MOL   C342 4670   6.915   4.457   2.153  0.2217  0.3719 -0.9800
    5MOL   C343 4671   6.831   4.334   2.111 -0.0115  0.4547  0.3079
    5MOL   C344 4672   6.966   4.521   2.028 -0.7494  0.1420  0.7190
    5MOL   C345 4673   7.043   4.424   2.231  0.2307  0.3944  0.4861
    5MOL   C346 4674   7.113   4.530   2.300 -0.6957 -0.2130  0.1069
    5MOL   C347 4675   7.229   4.500   2.378  0.1695  0.5932  0.4430
    5MOL   C348 4676   7.268   4.361   2.388 -0.0425 -0.0080 -0.1662
    5MOL   O349 4677   7.382   4.343   2.457  0.1986 -0.0793 -0.1463
    5MOL   C350 4678   7.196   4.259   2.325  0.0659 -0.4067 -0.7055
    5MOL   C351 4679   7.086   4.290   2.246  0.2828  0.5437  0.3593
    5MOL   C352 4680   6.717   4.625   2.166  0.3257  0.2583 -0.0664
    5MOL   C353 4681   6.617   4.690   2.240  0.7627  0.0942  0.4674
    5MOL   C354 4682   6.430   4.536   2.566 -0.1605  0.2547  0.2078
    5MOL   C355 4683   6.319   4.469   2.615  0.5591  0.6920  0.3532
    5MOL   C356 4684   6.043   4.274   2.425  0.2456 -0.5171  0.5628
    5MOL   C357 4685   5.990   4.211   2.311 -0.2691 -0.5558 -0.7645
    5MOL   H358 4686   5.664   4.283   2.365 -0.0694 -1.7354 -0.9472
    5MOL   H359 4687   5.758   4.406   2.554 -2.4076 -0.1645 -0.4463
    5MOL   H360 4688   6.072   4.673   2.491  0.5396 -0.3700  0.7560
    5MOL   H361 4689   6.282   4.810   2.409  0.0910  0.6878  0.5467
    5MOL   H362 4690   6.729   4.636   2.557 -1.4013 -0.3851  0.2980
    5MOL   H363 4691   6.906   4.516   2.435 -0.6468  1.0174  1.4667
    5MOL   H364 4692   6.745   4.357   2.048  0.7565 -0.7204 -1.2262
    5MOL   H365 4693   6.800   4.264   2.188  1.8897  0.5793  1.2240
    5MOL   H366 4694   6.899   4.274   2.051 -0.8953  0.0398 -0.2886
    5MOL   H367 4695   7.039   4.460   1.975 -1.6868  1.0307 -1.6747
    5MOL   H368 4696   6.876   4.531   1.967 -0.7651  0.6649  0.8216
    5MOL   H369 4697   7.006   4.618   2.059  0.1541 -0.3509  1.0895
    5MOL   H370 4698   7.067   4.628   2.299  1.0900  0.6355 -0.1459
    5MOL   H371 4699   7.281   4.578   2.431  1.2348 -0.3614  0.8428
    5MOL   H372 4700   7.231   4.157   2.332  1.1043 -0.0628 -0.7678
    5MOL   H373 4701   7.042   4.205   2.195  1.3371  0.1756  0.0635
    5MOL   H374 4702   6.714   4.625   2.059 -1.7580 -0.6090 -0.0330
    5MOL   H375 4703   6.539   4.739   2.184  0.6181 -0.5978  0.0573
    5MOL   H376 4704   6.529   4.518   2.603 -0.3248  0.7240  0.8762
    5MOL   H377 4705   6.331   4.393   2.691  1.3324  0.2295 -0.2215
    5MOL   H378 4706   6.151   4.275   2.433  0.3031 -1.1288 -0.0363
    5MOL   H379 4707   6.055   4.167   2.236 -2.3347  1.1569 -3.6352
    5MOL   C380 4708   7.500   4.407   2.422 -0.9967 -0.5000 -0.1442
    5MOL   C381 4709   7.524   4.449   2.294 -0.3972 -0.6202 -0.1696
    5MOL   C382 4710   7.638   4.520   2.262 -0.4442  0.2297 -0.3038
    5MOL   C383 4711   7.732   4.547   2.364 -0.4492  0.0870  0.1868
    5MOL   S384 4712   7.882   4.637   2.325 -0.3190 -0.2114  0.3469
    5MOL   O385 4713   7.978   4.614   2.433 -0.3476  0.4589  0.0320
    5MOL   O386 4714   7.844   4.770   2.285 -0.0002  0.1201  0.0519
    5MOL   C387 4715   7.946   4.552   2.183 -0.4835 -0.2730  0.2877
    5MOL   C388 4716   7.949   4.411   2.174  0.4273 -0.1920  0.1829
    5MOL   C389 4717   7.981   4.343   2.052 -0.8864 -0.6741 -0.6749
    5MOL   C390 4718   8.003   4.419   1.939  0.2847 -0.0193 -0.4976
    5MOL   O391 4719   8.040   4.358   1.822  0.1135 -0.8225  0.0211
    5MOL   C392 4720   7.938   4.339   1.733  0.1537  0.6236  0.6380
    5MOL   C393 4721   7.808   4.300   1.768 -0.6627 -0.8058 -0.7961
    5MOL   C394 4722   7.710   4.282   1.666  0.8339  0.1014 -0.5023
    5MOL   C395 4723   7.742   4.287   1.527  0.1200 -0.4210 -0.4063
    5MOL   C396 4724   7.653   4.246   1.409 -0.3583 -0.4568 -0.4053
    5MOL   C397 4725   7.670   4.344   1.288  0.1436  0.1144  0.2034
    5MOL   C398 4726   7.678   4.104   1.358 -0.2880 -0.1903 -0.1043
    5MOL   C399 4727   7.508   4.259   1.450 -0.3983  0.4750 -0.2103
    5MOL   C400 4728   7.420   4.148   1.453 -0.7434 -0.1172 -1.6378
    5MOL   C401 4729   7.286   4.178   1.489 -0.1905  0.2486 -0.3148
    5MOL   C402 4730   7.246   4.308   1.515  1.0618  0.1023  0.2466
    5MOL   O403 4731   7.111   4.345   1.540 -0.1029 -0.2818 -0.5080
    5MOL   C404 4732   7.330   4.419   1.518 -0.1128 -0.0834  0.2352
    5MOL   C405 4733   7.465   4.392   1.492 -0.6470  0.5639 -0.2505
    5MOL   C406 4734   7.875   4.332   1.496 -0.4284 -0.1922 -0.0251
    5MOL   C407 4735   7.974   4.353   1.602 -0.2396 -0.3073 -0.0919
    5MOL   C408 4736   7.999   4.564   1.951 -0.0672  0.0907  0.2385
    5MOL   C409 4737   7.978   4.631   2.068  0.0105 -0.5529 -0.6161
    5MOL   C410 4738   7.708   4.507   2.495  0.1830  0.5856 -0.3729
    5MOL   C411 4739   7.593   4.439   2.528 -0.4025 -0.8869  0.2179
    5MOL   H412 4740   7.455   4.424   2.215  1.2688 -2.2712 -1.1216
    5MOL   H413 4741   7.659   4.561   2.164  0.7687 -1.4429 -0.7612
    5MOL   H414 4742   7.906   4.349   2.252 -1.3509 -0.5201 -1.0459
    5MOL   H415 4743   7.969   4.236   2.055  1.2319 -0.9409 -0.6110
    5MOL   H416 4744   7.795   4.309   1.875  0.1433 -1.0996 -0.6768
    5MOL   H417 4745   7.608   4.255   1.693 -0.1342  3.5088 -0.4778
    5MOL   H418 4746   7.652   4.446   1.323  2.3813  1.2613 -1.8307
    5MOL   H419 4747   7.599   4.316   1.210  1.5644 -0.7501 -0.8023
    5MOL   H420 4748   7.765   4.342   1.235 -0.0443  1.0473 -0.1776
    5MOL   H421 4749   7.674   4.028   1.435 -0.1388  0.1745  0.2668
    5MOL   H422 4750   7.611   4.084   1.275  1.5612 -0.5921 -1.5454
    5MOL   H423 4751   7.780   4.105   1.319 -0.1177 -0.7747  0.3324
    5MOL   H424 4752   7.448   4.044   1.441  0.7503  0.1678 -0.6631
    5MOL   H425 4753   7.214   4.098   1.501 -1.0120  1.0801  0.3322
    5MOL   H426 4754   7.305   4.522   1.537 -0.6724 -0.1512 -0.1483
    5MOL   H427 4755   7.538   4.472   1.489 -0.8204  0.7435  0.3155
    5MOL   H428 4756   7.913   4.343   1.395 -0.9658 -3.9082 -0.7095
    5MOL   H429 4757   8.073   4.392   1.583  0.1576 -1.4473 -0.3627
    5MOL   H430 4758   8.021   4.621   1.862 -0.0770  0.3734  0.4176
    5MOL   H431 4759   7.968   4.738   2.071 -0.1667 -0.6044  0.9554
    5MOL   H432 4760   7.774   4.532   2.578  0.2244 -1.0337  0.0972
    5MOL   H433 4761   7.572   4.409   2.630  2.5333  0.1080  1.1700
    5MOL   C434 4762   7.026   4.252   1.594  0.6569  1.3460  0.6929
    5MOL   C435 4763   7.031   4.226   1.730 -0.2273 -0.3240  0.2108
    5MOL   C436 4764   6.940   4.135   1.792 -0.3190 -0.1458 -0.0724
    5MOL   C437 4765   6.842   4.074   1.715  0.2422 -0.1913  0.1717
    5MOL   S438 4766   6.722   3.963   1.791  0.3688 -0.1917  0.2594
    5MOL   O439 4767   6.594   4.036   1.789  0.4043 -0.4347 -0.5955
    5MOL   O440 4768   6.786   3.920   1.921  0.2600 -0.2671 -0.2979
    5MOL   C441 4769   6.722   3.823   1.670 -0.4760  0.1148  0.6732
    5MOL   C442 4770   6.820   3.724   1.665  0.7384 -0.4907 -0.3046
    5MOL   C443 4771   6.804   3.612   1.577 -0.0609 -0.6852  0.3028
    5MOL   C444 4772   6.691   3.603   1.494  0.5805  0.2707  0.0746
    5MOL   O445 4773   6.698   3.504   1.403 -0.1594  0.1963 -0.3465
    5MOL   C446 4774   6.591   3.493   1.321 -0.0220  0.2727 -0.7578
    5MOL   C447 4775   6.491   3.394   1.357  0.2175 -0.1709 -0.1441
    5MOL   C448 4776   6.382   3.380   1.268 -0.6266 -0.6299 -0.0485
    5MOL   C449 4777   6.362   3.462   1.156 -0.4035 -0.1389  0.0412
    5MOL   C450 4778   6.233   3.463   1.070  0.0291  0.7300  0.0098
    5MOL   C451 4779   6.253   3.371   0.957  0.2602  0.4862 -0.3160
    5MOL   C452 4780   6.122   3.410   1.158 -0.5245 -0.1078  0.3554
    5MOL   C453 4781   6.181   3.604   1.020  0.3202  0.4600  0.1477
    5MOL   C454 4782   6.189   3.713   1.106  0.7108 -0.5067 -0.7712
    5MOL   C455 4783   6.145   3.842   1.066  0.1505 -0.2943 -0.3988
    5MOL   C456 4784   6.087   3.854   0.943 -0.0038  0.4267  0.1491
    5MOL   O457 4785   6.045   3.980   0.917  0.0613 -0.1443 -0.3237
    5MOL   C458 4786   6.066   3.751   0.850  0.0477 -0.0787 -0.8262
    5MOL   C459 4787   6.114   3.623   0.893  0.1255 -0.2886 -0.0622
    5MOL   C460 4788   6.460   3.556   1.125  0.5795  0.1446  0.0476
    5MOL   C461 4789   6.575   3.567   1.205  0.4944 -0.8702  0.4420
    5MOL   C462 4790   6.584   3.697   1.511 -0.1401 -0.3400 -0.9040
    5MOL   C463 4791   6.608   3.805   1.591  0.0913 -0.1835 -0.2482
    5MOL   C464 4792   6.833   4.097   1.578 -0.5746 -0.0866  0.2871
    5MOL   C465 4793   6.927   4.181   1.514  0.0806  0.0229  0.1116
    5MOL   H466 4794   7.098   4.280   1.795 -0.9130 -0.6208  1.1773
    5MOL   H467 4795   6.938   4.114   1.898 -0.5418 -1.2842 -0.3035
    5MOL   H468 4796   6.912   3.736   1.720  0.3605 -0.0240  0.2294
    5MOL   H469 4797   6.883   3.540   1.565 -0.5778 -1.1910 -0.0635
    5MOL   H470 4798   6.510   3.323   1.436 -0.4939  0.1921  0.3557
    5MOL   H471 4799   6.318   3.295   1.289 -0.6533 -0.7664 -0.6960
    5MOL   H472 4800   6.324   3.417   0.888  0.2807  2.3258  0.8899
    5MOL   H473 4801   6.162   3.348   0.901  1.4267 -0.9249 -1.6763
    5MOL   H474 4802   6.295   3.277   0.992 -0.5004  0.0894 -0.4456
    5MOL   H475 4803   6.131   3.309   1.198 -1.1584 -0.9060 -1.4593
    5MOL   H476 4804   6.101   3.482   1.237  1.0561  1.1762 -0.3775
    5MOL   H477 4805   6.039   3.408   1.088  0.0464  0.4892 -0.3423
    5MOL   H478 4806   6.230   3.688   1.202  0.1066 -0.8010 -0.5926
    5MOL   H479 4807   6.149   3.929   1.129  0.2387 -1.2521  0.9425
    5MOL   H480 4808   6.001   3.764   0.765  0.3674 -0.9716 -1.2142
    5MOL   H481 4809   6.082   3.534   0.840  1.0058 -2.1378  2.4507
    5MOL   H482 4810   6.448   3.626   1.044 -0.5526 -1.7182 -1.4435
    5MOL   H483 4811   6.643   3.646   1.179 -0.9573  0.2746  0.0617
    5MOL   H484 4812   6.496   3.684   1.449 -0.1667 -0.8981 -0.7571
    5MOL   H485 4813   6.533   3.883   1.593 -1.1136 -1.3437  1.1543
    5MOL   H486 4814   6.760   4.044   1.518  0.8797  1.5565 -3.0462
    5MOL   H487 4815   6.921   4.204   1.409 -2.3270  1.2426  0.4880
    5MOL   C488 4816   5.918   4.021   0.933 -0.4438 -0.5574  0.7764
    5MOL   C489 4817   5.832   4.012   0.825 -0.0208  0.7352  0.3173
    5MOL   C490 4818   5.701   4.060   0.836  0.7766 -0.1278 -0.4704
    5MOL   C491 4819   5.660   4.123   0.957  0.4743  0.2104 -0.0501
    5MOL   S492 4820   5.500   4.197   0.969  0.0883  0.3531  0.1946
    5MOL   O493 4821   5.490   4.231   1.111  0.0137  0.6740  0.4598
    5MOL   O494 4822   5.398   4.115   0.905 -0.0371  0.2674 -0.2348
    5MOL   C495 4823   5.508   4.354   0.888 -0.2878 -0.3901  0.3323
    5MOL   C496 4824   5.433   4.379   0.770  0.1624  0.0470 -0.4928
    5MOL   C497 4825   5.438   4.504   0.707 -0.2080 -0.2084 -0.2267
    5MOL   C498 4826   5.521   4.609   0.762  0.5536 -0.1768  0.3691
    5MOL   O499 4827   5.526   4.729   0.699 -0.5790  0.6648  0.1310
    5MOL   C500 4828   5.646   4.789   0.688  0.5315 -0.4877  0.6308
    5MOL   C501 4829   5.674   4.910   0.759  0.6496 -0.0487 -0.0497
    5MOL   C502 4830   5.790   4.984   0.748 -0.1736 -0.1987  0.0495
    5MOL   C503 4831   5.890   4.931   0.659  0.2919  0.3041 -0.5806
    5MOL   C504 4832   6.023   5.007   0.653  0.2647 -0.3088  0.3928
    5MOL   C505 4833   6.135   4.917   0.603 -0.0962 -0.1899  0.4466
    5MOL   C506 4834   6.010   5.118   0.548 -0.4132  0.4102  0.5122
    5MOL   C507 4835   6.056   5.063   0.788 -0.3753 -0.3149  0.0228
    5MOL   C508 4836   6.054   4.980   0.906  0.1469 -0.8993  0.3009
    5MOL   C509 4837   6.063   5.043   1.036  0.0196  0.8673 -0.0176
    5MOL   C510 4838   6.087   5.181   1.057  0.2822  0.5356  0.4821
    5MOL   O511 4839   6.087   5.233   1.189 -0.0671 -0.0847  0.5427
    5MOL   C512 4840   6.100   5.259   0.935 -0.1454  0.3117 -0.0103
    5MOL   C513 4841   6.081   5.203   0.807  0.2134 -0.0800 -0.2704
    5MOL   C514 4842   5.857   4.827   0.567 -0.0202  0.7598 -0.2903
    5MOL   C515 4843   5.734   4.756   0.587  0.5796 -0.3419  0.3307
    5MOL   C516 4844   5.596   4.579   0.877  0.2086 -0.3021 -0.2271
    5MOL   C517 4845   5.586   4.458   0.949 -0.2500 -0.3287  0.2585
    5MOL   C518 4846   5.754   4.116   1.068 -0.5392 -0.9200  0.2340
    5MOL   C519 4847   5.885   4.072   1.054 -0.4429 -0.2260  1.2242
    5MOL   H520 4848   5.867   3.959   0.738 -1.1298 -4.1279  2.6684
    5MOL   H521 4849   5.639   4.048   0.748 -0.1043 -1.5395  0.3214
    5MOL   H522 4850   5.373   4.306   0.718  0.3688  1.1543 -2.3373
    5MOL   H523 4851   5.376   4.523   0.621 -0.7527  0.7488  0.3683
    5MOL   H524 4852   5.596   4.948   0.823  1.7048 -1.7456  2.2864
    5MOL   H525 4853   5.803   5.070   0.811  1.6421 -0.6205  0.2587
    5MOL   H526 4854   6.118   4.903   0.496 -1.8553  1.1091  0.5332
    5MOL   H527 4855   6.134   4.825   0.662  1.0799 -1.0056 -0.7436
    5MOL   H528 4856   6.234   4.958   0.620  0.6457 -2.1175  0.9458
    5MOL   H529 4857   5.939   5.193   0.584  1.3873  2.0745  0.6349
    5MOL   H530 4858   6.107   5.164   0.534  0.5582 -2.4444 -2.7624
    5MOL   H531 4859   5.974   5.071   0.456 -0.6679  0.7574  0.4355
    5MOL   H532 4860   6.035   4.874   0.899 -0.9698 -0.6388 -0.6975
    5MOL   H533 4861   6.060   4.975   1.120  1.2984 -0.0075 -0.6515
    5MOL   H534 4862   6.110   5.367   0.934  1.0338  0.2308  1.3239
    5MOL   H535 4863   6.088   5.269   0.722  1.9532  1.0678  0.7267
    5MOL   H536 4864   5.922   4.805   0.484  0.6626  1.6128  0.0135
    5MOL   H537 4865   5.716   4.668   0.527  0.1142  0.3383 -0.5319
    5MOL   H538 4866   5.655   4.662   0.914  0.1975  0.4194 -1.7710
    5MOL   H539 4867   5.653   4.431   1.029  1.0830 -0.9039 -1.0359
    5MOL   H540 4868   5.721   4.156   1.163  0.7435  0.9514 -0.0666
    5MOL   H541 4869   5.954   4.065   1.136  0.1080 -0.7362  0.7199
    5MOL   C542 4870   5.964   5.244   1.254 -0.7920 -0.1808  0.7380
    5MOL   C543 4871   5.951   5.173   1.370  0.3887 -0.0019 -0.0779
    5MOL   C544 4872   5.827   5.169   1.446  0.5899  0.1234  0.4795
    5MOL   C545 4873   5.721   5.260   1.410 -0.4637  0.5949 -0.3283
    5MOL   S546 4874   5.560   5.252   1.475  0.1656  0.1574  0.0054
    5MOL   O547 4875   5.502   5.388   1.485 -0.2843 -0.3034  0.0461
    5MOL   O548 4876   5.556   5.164   1.589  0.3829 -0.1819 -0.1786
    5MOL   C549 4877   5.461   5.173   1.350 -0.0509  0.2525  0.1908
    5MOL   C550 4878   5.323   5.189   1.346  0.6151 -0.0555 -0.4265
    5MOL   C551 4879   5.251   5.125   1.244  0.1080  0.5665  0.2824
    5MOL   C552 4880   5.312   5.056   1.134 -0.6019  1.2038 -0.1112
    5MOL   O553 4881   5.245   5.016   1.021  0.2147  0.3558 -0.1011
    5MOL   C554 4882   5.191   4.892   1.022  1.0914  0.2175  0.9790
    5MOL   C555 4883   5.268   4.775   1.011 -0.4679  0.4731  0.2813
    5MOL   C556 4884   5.221   4.645   1.039 -0.0504  0.6659 -0.1021
    5MOL   C557 4885   5.078   4.636   1.060  0.2908  0.5524  0.5127
    5MOL   C558 4886   5.026   4.491   1.080 -0.4324 -0.2774  0.2220
    5MOL   C559 4887   5.096   4.436   1.201 -0.3797  0.1204 -0.6730
    5MOL   C560 4888   4.873   4.502   1.122  0.2859 -0.4948  0.1899
    5MOL   C561 4889   5.043   4.401   0.964 -0.3835  0.9152  0.3383
    5MOL   C562 4890   5.042   4.256   0.976  0.3945 -0.4423 -0.2566
    5MOL   C563 4891   5.082   4.171   0.878  0.1202  0.3441  0.2753
    5MOL   C564 4892   5.121   4.227   0.753  0.2612 -0.1302  0.2874
    5MOL   O565 4893   5.143   4.141   0.644  0.1340  0.0975 -0.7729
    5MOL   C566 4894   5.108   4.365   0.728  0.1874  0.2284  0.1374
    5MOL   C567 4895   5.071   4.448   0.831 -0.6333  0.2977  0.0481
    5MOL   C568 4896   4.999   4.751   1.054 -0.0343  0.3146 -0.2075
    5MOL   C569 4897   5.054   4.877   1.050  0.1589  0.5868 -0.2097
    5MOL   C570 4898   5.451   5.041   1.142  1.0356  0.9571  0.3833
    5MOL   C571 4899   5.522   5.107   1.243  0.3628 -0.6014  0.2854
    5MOL   C572 4900   5.741   5.337   1.290  0.1259  0.1433  0.5965
    5MOL   C573 4901   5.856   5.322   1.210 -0.6573 -0.5159 -0.9501
    5MOL   H574 4902   6.042   5.125   1.402  0.4646  0.2878  0.1483
    5MOL   H575 4903   5.821   5.095   1.525  1.4479 -0.6687 -0.1871
    5MOL   H576 4904   5.275   5.260   1.412  1.5393  1.4351 -1.3527
    5MOL   H577 4905   5.145   5.146   1.239 -0.1324 -0.2105  1.8831
    5MOL   H578 4906   5.374   4.776   0.988 -0.4238 -1.2221  0.3372
    5MOL   H579 4907   5.278   4.555   1.021 -1.4506 -0.6142  1.5825
    5MOL   H580 4908   5.202   4.416   1.186 -0.8921 -1.3553 -2.5908
    5MOL   H581 4909   5.066   4.349   1.258 -1.5708  1.4013  0.7058
    5MOL   H582 4910   5.093   4.519   1.271  4.0448  1.3380 -1.7708
    5MOL   H583 4911   4.843   4.402   1.154 -0.5856  0.0493  1.1145
    5MOL   H584 4912   4.845   4.579   1.194  2.0975  0.0457  0.3432
    5MOL   H585 4913   4.819   4.528   1.032  0.1819 -2.7422 -0.4029
    5MOL   H586 4914   5.021   4.210   1.071  0.7954  1.7521  0.9352
    5MOL   H587 4915   5.064   4.065   0.888  1.5638  0.1363  0.8119
    5MOL   H588 4916   5.133   4.401   0.630  2.2078 -0.3881  0.3896
    5MOL   H589 4917   5.065   4.554   0.813 -1.8197  0.1239 -0.6370
    5MOL   H590 4918   4.891   4.754   1.055 -0.0397  0.5729 -1.2025
    5MOL   H591 4919   4.994   4.966   1.041 -0.9561 -0.1233  0.0679
    5MOL   H592 4920   5.500   4.993   1.058 -2.0736 -0.6136 -0.6100
    5MOL   H593 4921   5.630   5.096   1.242  0.3272 -1.0621  1.2590
    5MOL   H594 4922   5.666   5.411   1.267  0.6286  0.2263 -0.8557
    5MOL   H595 4923   5.872   5.379   1.119  1.4919 -0.7533 -0.7455
    5MOL   C596 4924   5.039   4.089   0.566 -0.3979 -0.2865  0.2453
    5MOL   C597 4925   4.947   4.178   0.508 -0.5954 -0.3080 -0.8413
    5MOL   C598 4926   4.830   4.131   0.441 -0.0891  0.5053 -0.2858
    5MOL   C599 4927   4.812   3.994   0.432 -0.2142  0.7505  0.0875
    5MOL   S600 4928   4.658   3.927   0.358 -0.3012 -0.1238 -0.2678
    5MOL   O601 4929   4.553   3.922   0.466 -0.3328  0.0658  0.3333
    5MOL   O602 4930   4.695   3.809   0.282  0.5098  0.1892 -0.2611
    5MOL   C603 4931   4.601   4.050   0.243  0.2406  0.0714  0.6035
    5MOL   C604 4932   4.646   4.044   0.113 -0.0331 -0.0108 -0.2579
    5MOL   C605 4933   4.608   4.148   0.024  0.3158 -0.1712 -0.5303
    5MOL   C606 4934   4.530   4.250   0.068 -0.0104 -0.2985 -0.2161
    5MOL   O607 4935   4.499   4.347   8.229  0.4747  0.1341 -0.1718
    5MOL   C608 4936   4.532   4.474   0.011 -0.2087 -0.2616 -0.8461
    5MOL   C609 4937   4.653   4.525   8.204  0.8987 -0.1924  0.9332
    5MOL   C610 4938   4.705   4.650   8.250  0.0114 -0.0009 -1.0377
    5MOL   C611 4939   4.645   4.718   0.108  0.3948  0.9907  0.2703
    5MOL   C612 4940   4.700   4.853   0.154 -0.1919 -0.4974  0.0210
    5MOL   C613 4941   4.690   4.851   0.305  0.5880 -0.1298  0.1590
    5MOL   C614 4942   4.852   4.872   0.131  0.3344  0.3120  0.2868
    5MOL   C615 4943   4.619   4.964   0.081 -0.0148 -0.3068 -0.0408
    5MOL   C616 4944   4.492   5.001   0.130  0.5396  0.1879  0.1102
    5MOL   C617 4945   4.405   5.092   0.063 -0.1025 -0.3744 -0.0262
    5MOL   C618 4946   4.438   5.143   8.190 -0.4578 -0.1003  0.5823
    5MOL   O619 4947   4.354   5.217   8.113  0.5944 -0.0282 -0.3726
    5MOL   C620 4948   4.569   5.107   8.138 -0.2002 -1.5216 -0.1924
    5MOL   C621 4949   4.657   5.022   8.210  0.1655 -0.4749  0.1376
    5MOL   C622 4950   4.517   4.676   0.150  0.0607 -0.6547 -0.5576
    5MOL   C623 4951   4.460   4.556   0.101  0.4240  0.8914 -0.4842
    5MOL   C624 4952   4.476   4.247   0.199  0.0841  0.0147  0.4627
    5MOL   C625 4953   4.511   4.148   0.291 -0.1790  0.0223  0.1260
    5MOL   C626 4954   4.910   3.907   0.476 -0.3054  0.1136  0.0445
    5MOL   C627 4955   5.022   3.951   0.545  0.3276 -0.4978 -0.7873
    5MOL   H628 4956   4.980   4.281   0.509  0.1066 -0.5287 -0.9113
    5MOL   H629 4957   4.763   4.209   0.410  0.2269  1.3632  1.1564
    5MOL   H630 4958   4.714   3.964   0.087 -0.5022 -0.4890 -0.0150
    5MOL   H631 4959   4.633   4.155   8.173  2.1993 -1.0906 -0.1718
    5MOL   H632 4960   4.719   4.477   8.133  0.6009 -1.8239  1.7391
    5MOL   H633 4961   4.798   4.683   8.206  1.2263 -1.6496  0.2010
    5MOL   H634 4962   4.741   4.939   0.344  1.6402  0.2406 -1.9904
    5MOL   H635 4963   4.746   4.767   0.344  2.2273  0.7231 -0.2984
    5MOL   H636 4964   4.593   4.862   0.354  0.5911  0.1200  0.1097
    5MOL   H637 4965   4.922   4.812   0.189  1.2313  1.4148  0.3783
    5MOL   H638 4966   4.876   4.866   0.025 -0.1224  3.0826 -0.0299
    5MOL   H639 4967   4.886   4.973   0.157  1.8857  0.9082 -3.6672
    5MOL   H640 4968   4.452   4.960   0.222 -1.2582 -0.4459 -0.9315
    5MOL   H641 4969   4.308   5.118   0.101  0.7648  1.5607  0.9612
    5MOL   H642 4970   4.601   5.148   8.044 -0.2227  1.0842  0.8861
    5MOL   H643 4971   4.750   5.005   8.157  0.0421  4.0457 -1.6866
    5MOL   H644 4972   4.468   4.729   0.230  0.0876 -0.6612 -0.5371
    5MOL   H645 4973   4.372   4.514   0.149  1.2846  0.1068  0.4224
    5MOL   H646 4974   4.406   4.321   0.235  0.1663  1.2311 -1.7930
    5MOL   H647 4975   4.463   4.144   0.388  1.0854  0.6256  0.7917
    5MOL   H648 4976   4.898   3.801   0.461 -0.4570  0.2405 -0.7296
    5MOL   H649 4977   5.092   3.878   0.582 -0.0422 -0.8320 -0.7388
    5MOL   C650 4978   4.247   5.289   8.171 -0.3457 -0.1265  0.0931
    5MOL   C651 4979   4.274   5.378   0.026  0.0542 -0.4051  0.3389
    5MOL   C652 4980   4.163   5.460   0.074 -0.4638 -0.8632 -0.0629
    5MOL   C653 4981   4.040   5.453   0.007 -0.0370 -0.9440 -0.0755
    5MOL   S654 4982   3.901   5.544   0.072 -0.4277  0.3877  0.2911
    5MOL   O655 4983   3.845   5.625   8.217 -0.4283  0.5689 -0.0612
    5MOL   O656 4984   3.941   5.615   0.193  0.0625 -0.0773 -0.1518
    5MOL   C657 4985   3.780   5.422   0.119  0.6971 -0.0596  0.1049
    5MOL   C658 4986   3.645   5.454   0.092  0.0871  0.3291 -0.2882
    5MOL   C659 4987   3.544   5.356   0.124 -0.5111 -0.1631  0.4731
    5MOL   C660 4988   3.582   5.226   0.169 -0.6038  0.0112  0.2721
    5MOL   O661 4989   3.480   5.133   0.203  0.1037 -0.2904  0.6455
    5MOL   C662 4990   3.506   5.066   0.318  0.5328 -0.1737 -0.0850
    5MOL   C663 4991   3.529   4.931   0.301  0.4336  0.4394 -0.2470
    5MOL   C664 4992   3.551   4.849   0.411 -0.1083 -0.3885 -0.6145
    5MOL   C665 4993   3.553   4.903   0.544  0.5431  0.3427 -0.3849
    5MOL   C666 4994   3.602   4.821   0.661 -0.6145 -1.0474  0.4442
    5MOL   C667 4995   3.623   4.912   0.782 -0.2498 -0.3582  0.1216
    5MOL   C668 4996   3.494   4.723   0.685 -0.3024 -0.2748  0.3821
    5MOL   C669 4997   3.734   4.751   0.618 -0.3931 -0.2821 -0.9080
    5MOL   C670 4998   3.750   4.614   0.615 -0.3414  0.0480  0.2380
    5MOL   C671 4999   3.868   4.551   0.571  0.1745 -0.8170 -0.2897
    5MOL   C672 5000   3.971   4.632   0.516  0.0746 -0.1118 -0.2668
    5MOL   O673 5001   4.085   4.580   0.454 -0.2286 -1.4112  0.3374
    5MOL   C674 5002   3.954   4.774   0.528 -0.1020 -0.1132  0.2546
    5MOL   C675 5003   3.841   4.836   0.579 -0.6882 -0.2620 -0.0501
    5MOL   C676 5004   3.510   5.038   0.558  0.7278 -0.2094 -0.3770
    5MOL   C677 5005   3.488   5.121   0.445  0.3471  0.8360 -0.5193
    5MOL   C678 5006   3.721   5.198   0.181 -0.5188 -1.0717  0.1774
    5MOL   C679 5007   3.817   5.292   0.154 -1.1571 -0.0404  0.2666
    5MOL   C680 5008   4.020   5.361   8.157 -0.0034 -0.2497 -0.6613
    5MOL   C681 5009   4.122   5.277   8.115 -0.1476  0.3919 -0.1820
    5MOL   H682 5010   4.375   5.391   0.062 -0.5206  1.5362  1.3426
    5MOL   H683 5011   4.181   5.526   0.157  0.8941 -0.0967 -0.9395
    5MOL   H684 5012   3.620   5.556   0.065  0.0855 -0.3461 -2.8787
    5MOL   H685 5013   3.440   5.371   0.100  0.4346  2.5337 -2.3135
    5MOL   H686 5014   3.543   4.884   0.205  0.8141 -0.0187  0.0271
    5MOL   H687 5015   3.570   4.743   0.400 -0.5467 -0.5601  0.2452
    5MOL   H688 5016   3.534   4.959   0.823 -1.1442 -1.5649 -0.4150
    5MOL   H689 5017   3.695   4.986   0.746 -0.4266  0.5340  1.5784
    5MOL   H690 5018   3.670   4.849   0.858  1.7645  0.5184 -0.3535
    5MOL   H691 5019   3.528   4.677   0.778 -1.2075 -0.6104  0.5498
    5MOL   H692 5020   3.398   4.766   0.714  0.3604  0.6291  1.2464
    5MOL   H693 5021   3.472   4.661   0.597  1.9818  0.5811 -0.8345
    5MOL   H694 5022   3.671   4.546   0.640 -0.2848  0.2735  1.0484
    5MOL   H695 5023   3.880   4.444   0.577  0.5496 -0.7240  0.7819
    5MOL   H696 5024   4.030   4.840   0.489  1.4096 -0.2512  2.7975
    5MOL   H697 5025   3.828   4.944   0.572 -0.2906 -0.1708  0.6135
    5MOL   H698 5026   3.505   5.087   0.654  0.7318 -1.3569  0.2146
    5MOL   H699 5027   3.459   5.225   0.457 -1.1480  0.3143  0.4319
    5MOL   H700 5028   3.740   5.100   0.224  1.6401 -1.4570 -1.5446
    5MOL   H701 5029   3.921   5.270   0.171 -1.4318 -1.9755 -0.4988
    5MOL   H702 5030   3.918   5.352   8.124 -0.3597  1.0319  0.0602
    5MOL   H703 5031   4.105   5.214   8.029  0.2826  1.7433 -1.2777
    5MOL   C704 5032   4.197   4.592   0.531 -0.4355 -0.4928  0.7183
    5MOL   C705 5033   4.300   4.678   0.486  0.1031 -0.1395 -0.3735
    5MOL   C706 5034   4.423   4.668   0.553  0.3599 -0.2355  0.4847
    5MOL   C707 5035   4.431   4.592   0.670 -0.1357  0.0514  0.5849
    5MOL   S708 5036   4.588   4.603   0.760  0.3638  0.2452  0.0637
    5MOL   O709 5037   4.690   4.536   0.685  0.2031 -0.5675 -0.3699
    5MOL   O710 5038   4.562   4.563   0.900  0.4315 -0.0181  0.2421
    5MOL   C711 5039   4.632   4.783   0.766  0.0111  0.0532  0.4612
    5MOL   C712 5040   4.535   4.880   0.787  0.3723 -0.8175 -0.3844
    5MOL   C713 5041   4.572   5.016   0.785  0.2737 -0.3115  0.0895
    5MOL   C714 5042   4.695   5.055   0.729  0.3313  0.7334 -0.2664
    5MOL   O715 5043   4.722   5.187   0.729  0.0392 -0.3438  0.1503
    5MOL   C716 5044   4.756   5.239   0.609  0.0326  0.1055  0.3898
    5MOL   C717 5045   4.707   5.190   0.479  0.0247  0.2635  0.6485
    5MOL   C718 5046   4.721   5.266   0.361 -0.7007  0.1828  0.5908
    5MOL   C719 5047   4.785   5.395   0.366  0.0690 -0.8686  0.2135
    5MOL   C720 5048   4.797   5.468   0.236  0.1596  0.4112 -0.1974
    5MOL   C721 5049   4.911   5.579   0.242 -0.1355 -0.0577  0.1039
    5MOL   C722 5050   4.839   5.374   0.122  0.7813  0.2177  0.0129
    5MOL   C723 5051   4.669   5.542   0.204  0.3830 -0.2097  0.5735
    5MOL   C724 5052   4.621   5.558   0.070 -0.3024  0.3125 -0.0312
    5MOL   C725 5053   4.497   5.625   0.054  0.0001  0.1086  0.4070
    5MOL   C726 5054   4.432   5.688   0.160 -0.4885  0.2443 -0.2215
    5MOL   O727 5055   4.319   5.758   0.125 -0.0358 -0.8574  0.1470
    5MOL   C728 5056   4.491   5.687   0.287 -0.2753 -0.3027 -0.0746
    5MOL   C729 5057   4.609   5.617   0.307 -0.0665 -0.9045 -0.3554
    5MOL   C730 5058   4.823   5.441   0.489  0.0735  0.5890  0.4016
    5MOL   C731 5059   4.816   5.365   0.605 -0.4379  0.6458  0.0878
    5MOL   C732 5060   4.790   4.953   0.698  0.2366 -0.5108  0.0794
    5MOL   C733 5061   4.759   4.821   0.727 -0.5473  0.1505 -0.8370
    5MOL   C734 5062   4.327   4.517   0.725 -0.1906 -0.5471 -0.3197
    5MOL   C735 5063   4.210   4.511   0.641  0.3339 -0.2759  0.1600
    5MOL   H736 5064   4.285   4.743   0.401 -1.8241  0.5759  0.5064
    5MOL   H737 5065   4.510   4.722   0.517 -0.8453  1.3536 -0.0699
    5MOL   H738 5066   4.438   4.841   0.817  0.0541  0.0123 -0.3268
    5MOL   H739 5067   4.501   5.089   0.819  1.9899  0.6883  1.6114
    5MOL   H740 5068   4.648   5.102   0.456  0.9444 -0.0907 -0.4404
    5MOL   H741 5069   4.683   5.222   0.270  2.5802  0.1069 -0.8209
    5MOL   H742 5070   4.894   5.658   0.316  1.9282 -1.5548  2.2710
    5MOL   H743 5071   4.918   5.629   0.146 -2.0002 -0.0325 -0.0512
    5MOL   H744 5072   5.007   5.543   0.278 -0.1322 -0.6356 -0.4973
    5MOL   H745 5073   4.873   5.426   0.032  0.6014  2.5217  1.2243
    5MOL   H746 5074   4.926   5.323   0.163  0.9384  1.0543  0.7360
    5MOL   H747 5075   4.769   5.299   0.086  1.4266  0.0208 -0.8554
    5MOL   H748 5076   4.674   5.507   8.245  0.6024  0.6549  0.3516
    5MOL   H749 5077   4.452   5.640   8.210 -2.0164  2.4949  1.6499
    5MOL   H750 5078   4.449   5.740   0.371  0.8364  0.5410 -0.0273
    5MOL   H751 5079   4.644   5.604   0.408  2.7487  1.2116 -0.9894
    5MOL   H752 5080   4.870   5.538   0.505 -1.8271  1.5267  0.3781
    5MOL   H753 5081   4.852   5.412   0.695 -1.7840 -0.3629  1.1678
    5MOL   H754 5082   4.889   4.986   0.671 -0.8535  1.6885 -1.4612
    5MOL   H755 5083   4.840   4.751   0.715 -2.1864 -2.0055  0.3509
    5MOL   H756 5084   4.349   4.460   0.814  0.3338  0.3279  0.1145
    5MOL   H757 5085   4.126   4.446   0.661 -2.0997  2.3838 -1.0349
    5MOL   C758 5086   4.281   5.864   0.202  0.1471  0.9416  0.5880
    5MOL   C759 5087   4.176   5.847   0.290  0.0914 -0.0374  0.4007
    5MOL   C760 5088   4.137   5.949   0.370 -0.2090 -0.4359 -0.5301
    5MOL   C761 5089   4.220   6.063   0.371 -0.2580  0.2726 -0.1603
    5MOL   S762 5090   4.178   6.186   0.492 -0.1801  0.1599  0.3628
    5MOL   O763 5091   4.051   6.256   0.457  0.6094  0.2472 -0.4594
    5MOL   O764 5092   4.301   6.265   0.523  0.0766  0.1405 -0.4420
    5MOL   C765 5093   4.139   6.079   0.633  0.3485 -0.4072 -0.0528
    5MOL   C766 5094   4.008   6.030   0.657  0.5139 -0.0634  0.3764
    5MOL   C767 5095   3.987   5.955   0.768  0.4133  0.0705  0.3737
    5MOL   C768 5096   4.088   5.930   0.871  0.4807  0.0175  0.7513
    5MOL   O769 5097   4.064   5.861   0.987  0.3825 -0.8162  0.1041
    5MOL   C770 5098   3.988   5.746   0.979 -0.4981  0.0280 -0.8497
    5MOL   C771 5099   3.995   5.647   0.874  0.2807  0.4220  0.1526
    5MOL   C772 5100   3.910   5.532   0.877  0.1928  0.2595  0.0449
    5MOL   C773 5101   3.830   5.508   0.997 -0.6951 -0.4401  0.3387
    5MOL   C774 5102   3.761   5.379   1.004 -0.3710  0.5769  0.1007
    5MOL   C775 5103   3.676   5.368   1.138  0.5191 -0.5145  0.6785
    5MOL   C776 5104   3.664   5.373   0.883  0.3754  0.4453  0.5739
    5MOL   C777 5105   3.862   5.266   1.003 -0.5051  0.5067  0.1132
    5MOL   C778 5106   3.971   5.262   1.093  0.0378  0.1396  1.0927
    5MOL   C779 5107   4.079   5.178   1.074 -0.2339  0.6347  0.9764
    5MOL   C780 5108   4.069   5.073   0.978  0.9848 -0.6726 -0.3427
    5MOL   O781 5109   4.173   4.980   0.960  0.5851  0.4881 -0.5727
    5MOL   C782 5110   3.962   5.071   0.886  0.2138 -0.5006 -0.5725
    5MOL   C783 5111   3.861   5.168   0.898  0.2733  0.1346 -0.7752
    5MOL   C784 5112   3.834   5.607   1.099 -0.5912 -0.3319 -0.1065
    5MOL   C785 5113   3.915   5.724   1.089  1.1459 -0.8943  0.3273
    5MOL   C786 5114   4.210   5.984   0.841  0.0148  0.4684  0.3495
    5MOL   C787 5115   4.248   6.049   0.721  0.6911 -0.5362 -0.3035
    5MOL   C788 5116   4.321   6.083   0.281 -0.3659 -0.3163  0.5154
    5MOL   C789 5117   4.348   5.984   0.188 -0.2448 -0.0679  0.0735
    5MOL   H790 5118   4.131   5.749   0.293  1.2712 -0.9133 -4.9835
    5MOL   H791 5119   4.055   5.937   0.439 -0.1617 -0.8872 -0.5528
    5MOL   H792 5120   3.920   6.058   0.601  0.2966 -0.2505  0.6218
    5MOL   H793 5121   3.895   5.901   0.779  0.4088 -0.2742 -1.1174
    5MOL   H794 5122   4.060   5.662   0.789 -0.0508  0.9716 -0.0013
    5MOL   H795 5123   3.926   5.460   0.798  1.9909 -1.2147  1.7017
    5MOL   H796 5124   3.614   5.279   1.146  0.5431 -0.7943 -1.8518
    5MOL   H797 5125   3.596   5.442   1.134  0.3374 -0.8227 -2.3969
    5MOL   H798 5126   3.739   5.370   1.227  2.2993 -0.8738 -0.5701
    5MOL   H799 5127   3.713   5.379   0.785 -1.9200 -0.4849 -0.6619
    5MOL   H800 5128   3.603   5.283   0.886  1.1204 -0.0839  0.2457
    5MOL   H801 5129   3.592   5.454   0.879 -1.2125 -0.8411  2.4342
    5MOL   H802 5130   3.971   5.342   1.166 -1.3587  1.6168 -0.4678
    5MOL   H803 5131   4.165   5.186   1.140  1.7420 -4.6978 -0.6663
    5MOL   H804 5132   3.959   4.993   0.812  3.8521 -0.7860 -0.5258
    5MOL   H805 5133   3.781   5.159   0.826 -1.9822 -1.2558  1.8089
    5MOL   H806 5134   3.791   5.596   1.198 -0.4989 -4.5655 -0.4056
    5MOL   H807 5135   3.920   5.786   1.177 -0.3666  1.7768 -1.4091
    5MOL   H808 5136   4.290   5.962   0.909  0.1689  1.0382  0.3557
    5MOL   H809 5137   4.342   6.098   0.702 -0.0676  0.5345 -1.3447
    5MOL   H810 5138   4.377   6.175   0.267 -0.9696 -0.3983 -3.0086
    5MOL   H811 5139   4.426   6.002   0.116 -1.3637  0.7089 -0.9743
    5MOL   C812 5140   4.151   4.859   1.014 -0.5370  0.4005  0.1284
    5MOL   C813 5141   4.122   4.757   0.921 -0.9148 -0.2061  0.2454
    5MOL   C814 5142   4.102   4.624   0.962  0.0466 -0.1422  0.2145
    5MOL   C815 5143   4.122   4.595   1.099 -0.5328 -0.6792  0.1673
    5MOL   S816 5144   4.099   4.419   1.145 -0.0677  0.2495 -0.3148
    5MOL   O817 5145   4.124   4.407   1.291  0.1346  0.5696 -0.0841
    5MOL   O818 5146   4.171   4.327   1.056 -0.1817  0.1179  0.5556
    5MOL   C819 5147   3.920   4.381   1.111  0.4088  0.6050 -0.7457
    5MOL   C820 5148   3.874   4.260   1.172  0.7486 -0.4221 -0.3135
    5MOL   C821 5149   3.743   4.220   1.170 -0.1085  0.0487  0.4733
    5MOL   C822 5150   3.641   4.294   1.108  0.2119 -0.1546 -0.8511
    5MOL   O823 5151   3.509   4.257   1.104 -0.4551  0.1280  0.5875
    5MOL   C824 5152   3.435   4.266   1.223  0.5643  0.5309  0.3436
    5MOL   C825 5153   3.368   4.386   1.263  0.6768  0.3328 -0.0357
    5MOL   C826 5154   3.334   4.418   1.389  0.8819  0.5134 -0.3324
    5MOL   C827 5155   3.356   4.326   1.491 -0.1981 -0.6243  0.4001
    5MOL   C828 5156   3.323   4.358   1.635 -0.2330  0.3571 -0.8068
    5MOL   C829 5157   3.170   4.336   1.645 -0.2527  0.2698 -0.7751
    5MOL   C830 5158   3.395   4.259   1.734 -0.2813 -0.1617 -0.4094
    5MOL   C831 5159   3.371   4.499   1.668 -0.0439 -0.1146  0.2469
    5MOL   C832 5160   3.512   4.533   1.667 -0.0921  0.1362  0.3110
    5MOL   C833 5161   3.549   4.661   1.705 -0.2474 -0.2902  0.1244
    5MOL   C834 5162   3.457   4.757   1.753 -0.1103  0.1306 -0.2966
    5MOL   O835 5163   3.502   4.872   1.798  0.6148  0.5516 -0.4546
    5MOL   C836 5164   3.320   4.718   1.750  0.2245 -1.0760  0.5071
    5MOL   C837 5165   3.278   4.594   1.702 -0.1254 -0.0719 -0.4043
    5MOL   C838 5166   3.414   4.200   1.456 -0.5494  0.4079  0.4495
    5MOL   C839 5167   3.454   4.167   1.320 -0.1259 -0.4197 -0.3544
    5MOL   C840 5168   3.679   4.424   1.061 -0.6800  0.5567 -0.6274
    5MOL   C841 5169   3.816   4.462   1.060  0.0622  0.6065 -0.2703
    5MOL   C842 5170   4.156   4.699   1.192  0.0916 -0.7326  0.1932
    5MOL   C843 5171   4.174   4.829   1.146 -0.5766 -0.3344 -0.0099
    5MOL   H844 5172   4.111   4.784   0.817 -0.2228  0.4155  0.3311
    5MOL   H845 5173   4.061   4.543   0.903  0.5333 -1.2607  1.3709
    5MOL   H846 5174   3.950   4.210   1.230 -2.7757 -4.4682  1.0510
    5MOL   H847 5175   3.718   4.126   1.217 -0.4415  0.0065  0.2161
    5MOL   H848 5176   3.354   4.468   1.193 -2.5598 -0.8153 -0.8299
    5MOL   H849 5177   3.283   4.512   1.403  0.7464  1.0448 -3.8140
    5MOL   H850 5178   3.124   4.363   1.740  0.1747 -2.4432  0.2514
    5MOL   H851 5179   3.137   4.235   1.620  1.3651 -0.6049  0.5185
    5MOL   H852 5180   3.123   4.399   1.570 -0.2541  2.1129  0.7443
    5MOL   H853 5181   3.502   4.256   1.713  0.2640  1.3687  2.0182
    5MOL   H854 5182   3.390   4.293   1.837 -2.4448 -1.0165 -0.1975
    5MOL   H855 5183   3.339   4.166   1.720 -2.2479  0.7582  1.1872
    5MOL   H856 5184   3.588   4.458   1.650  0.7068  1.3925 -1.8916
    5MOL   H857 5185   3.653   4.687   1.709 -0.5831  0.8999  2.7530
    5MOL   H858 5186   3.244   4.785   1.786  0.7361  0.7241 -1.6213
    5MOL   H859 5187   3.175   4.564   1.712  0.0667 -0.7362 -0.3372
    5MOL   H860 5188   3.426   4.116   1.522  0.6548 -0.8174 -1.2787
    5MOL   H861 5189   3.512   4.078   1.304  0.4361 -0.4436  1.7513
    5MOL   H862 5190   3.608   4.502   1.038 -0.9800 -0.1707 -2.2493
    5MOL   H863 5191   3.837   4.561   1.022  0.2963 -0.1283 -2.1012
    5MOL   H864 5192   4.169   4.678   1.298  1.9293  0.0308  0.1337
    5MOL   H865 5193   4.193   4.907   1.218  1.6292 -0.3650 -0.5167
    5MOL   C866 5194   3.465   4.982   1.731  0.3646  0.2683  0.0555
    5MOL   C867 5195   3.531   5.013   1.612  0.5560  0.2980 -0.2357
    5MOL   C868 5196   3.489   5.125   1.529  0.2378  0.2756  0.2083
    5MOL   C869 5197   3.402   5.212   1.589  0.1798  0.8624  0.3315
    5MOL   S870 5198   3.352   5.350   1.492  0.0777 -0.0463  0.0496
    5MOL   O871 5199   3.204   5.351   1.500 -0.9028 -0.0437  0.3011
    5MOL   O872 5200   3.419   5.351   1.360  0.1863  0.2554  0.1840
    5MOL   C873 5201   3.421   5.495   1.582  0.2230  0.0150 -0.5939
    5MOL   C874 5202   3.558   5.520   1.565 -0.3194  0.1403  0.7186
    5MOL   C875 5203   3.620   5.635   1.617  0.7747  0.7678  0.1677
    5MOL   C876 5204   3.553   5.714   1.713 -0.4294 -0.1975  0.0656
    5MOL   O877 5205   3.619   5.809   1.788  0.0456  0.2954  0.4596
    5MOL   C878 5206   3.678   5.915   1.722  0.0637 -0.1517  0.8208
    5MOL   C879 5207   3.614   5.994   1.625 -0.0103 -0.1501  0.3788
    5MOL   C880 5208   3.682   6.096   1.562  0.3752  0.1515 -0.0731
    5MOL   C881 5209   3.818   6.124   1.596 -0.6306 -0.0799 -0.0701
    5MOL   C882 5210   3.889   6.248   1.526 -0.2769 -0.2178  0.6251
    5MOL   C883 5211   3.824   6.381   1.579  0.4281  0.0876  0.8317
    5MOL   C884 5212   4.043   6.256   1.542 -0.0584 -0.3764  0.3011
    5MOL   C885 5213   3.857   6.231   1.375 -0.2357  0.3242  0.0613
    5MOL   C886 5214   3.896   6.111   1.305 -0.4895  0.0542 -0.2370
    5MOL   C887 5215   3.874   6.097   1.163  0.1946 -0.1592  0.4184
    5MOL   C888 5216   3.814   6.200   1.090  0.4658 -0.5954 -0.1539
    5MOL   O889 5217   3.813   6.199   0.955  0.3188  0.2265  0.2022
    5MOL   C890 5218   3.773   6.313   1.160 -0.3460  0.6914 -0.2896
    5MOL   C891 5219   3.791   6.335   1.301 -0.2357  0.9430  0.6016
    5MOL   C892 5220   3.878   6.052   1.695  0.3068  0.1336  0.0249
    5MOL   C893 5221   3.808   5.954   1.760 -0.2626 -0.1684  0.0314
    5MOL   C894 5222   3.419   5.689   1.728 -0.1822 -0.3632  0.1114
    5MOL   C895 5223   3.347   5.587   1.662  0.7470 -0.4627  0.2854
    5MOL   C896 5224   3.340   5.192   1.713 -0.9050  0.0307 -0.4134
    5MOL   C897 5225   3.370   5.074   1.781 -0.4421 -0.4909  0.1206
    5MOL   H898 5226   3.601   4.947   1.564 -0.4268 -0.8096 -0.1660
    5MOL   H899 5227   3.535   5.139   1.432 -0.4585  1.5314  0.0500
    5MOL   H900 5228   3.621   5.460   1.501  1.0163 -0.3348  2.4353
    5MOL   H901 5229   3.725   5.656   1.602  0.4524  2.3272  0.0748
    5MOL   H902 5230   3.512   5.967   1.601  0.4449 -1.4969 -0.1183
    5MOL   H903 5231   3.636   6.143   1.477 -1.2291  1.1542  1.3021
    5MOL   H904 5232   3.876   6.465   1.533  0.2105 -0.6091 -0.7077
    5MOL   H905 5233   3.850   6.387   1.685 -1.7939 -0.4253  1.4268
    5MOL   H906 5234   3.716   6.390   1.571  0.6294  1.8849 -0.0362
    5MOL   H907 5235   4.096   6.175   1.493  0.4165 -0.1047  0.3577
    5MOL   H908 5236   4.088   6.340   1.489 -1.5046  0.6860  0.7080
    5MOL   H909 5237   4.083   6.274   1.641 -1.2630 -3.7511  1.4859
    5MOL   H910 5238   3.943   6.028   1.357  2.0220  0.7617 -1.2845
    5MOL   H911 5239   3.923   6.014   1.113  0.1050 -1.7349  2.8466
    5MOL   H912 5240   3.715   6.389   1.110 -0.3533  0.1352 -1.1396
    5MOL   H913 5241   3.757   6.433   1.332 -2.3044  0.3619  0.2415
    5MOL   H914 5242   3.977   6.065   1.739 -0.7197 -0.0292  2.4855
    5MOL   H915 5243   3.862   5.898   1.835 -2.4910 -0.1772  1.6717
    5MOL   H916 5244   3.370   5.761   1.792  0.5521  2.0198 -1.9369
    5MOL   H917 5245   3.246   5.553   1.677  0.7794 -0.0050  1.6607
    5MOL   H918 5246   3.263   5.260   1.744 -1.3626 -0.8519  0.4241
    5MOL   H919 5247   3.313   5.040   1.866 -0.6807  0.3022  0.2772
    5MOL   C920 5248   3.711   6.137   0.891  0.2770 -0.7078 -0.3454
    5MOL   C921 5249   3.677   5.999   0.915 -0.4301 -0.1910 -0.0140
    5MOL   C922 5250   3.578   5.940   0.836  0.9508  0.0844  0.1998
    5MOL   C923 5251   3.535   6.004   0.715  0.3611 -0.7683 -0.3251
    5MOL   S924 5252   3.417   5.924   0.606  0.1112  0.1764  0.0532
    5MOL   O925 5253   3.382   6.008   0.490  0.0251  0.5750  0.3705
    5MOL   O926 5254   3.298   5.884   0.687 -0.4729 -0.4505 -0.1101
    5MOL   C927 5255   3.502   5.770   0.549  0.4463 -0.1445  0.2151
    5MOL   C928 5256   3.610   5.772   0.463 -0.1411 -0.8716  0.0844
    5MOL   C929 5257   3.667   5.647   0.427 -0.1489 -0.0114 -0.6170
    5MOL   C930 5258   3.632   5.527   0.489  0.1491  0.2880  0.6426
    5MOL   O931 5259   3.681   5.411   0.439  0.2724  0.8018 -0.1586
    5MOL   C932 5260   3.811   5.380   0.473 -0.4460  0.3306 -1.1464
    5MOL   C933 5261   3.838   5.241   0.502  0.1367  0.1902 -0.2323
    5MOL   C934 5262   3.971   5.195   0.530 -0.9034 -0.6652  0.3617
    5MOL   C935 5263   4.078   5.286   0.535 -0.1673  0.5924 -0.3120
    5MOL   C936 5264   4.217   5.237   0.572 -0.2142  0.8804  0.8217
    5MOL   C937 5265   4.223   5.095   0.629  0.2891  0.1177  0.4279
    5MOL   C938 5266   4.293   5.228   0.437 -0.0267  0.5614  0.4686
    5MOL   C939 5267   4.291   5.335   0.671 -0.1872  0.0054  0.1918
    5MOL   C940 5268   4.217   5.376   0.787 -0.5514  0.4176 -0.0688
    5MOL   C941 5269   4.273   5.463   0.884 -0.1133 -0.0471 -0.1317
    5MOL   C942 5270   4.412   5.487   0.875 -0.3178  0.2342  0.6808
    5MOL   O943 5271   4.464   5.570   0.971  0.0293  0.5877  0.1685
    5MOL   C944 5272   4.487   5.437   0.767  0.2918  0.8504 -0.5911
    5MOL   C945 5273   4.429   5.364   0.663 -0.6697  0.1498 -0.6042
    5MOL   C946 5274   4.048   5.426   0.510 -0.2204 -0.1244 -0.2156
    5MOL   C947 5275   3.916   5.474   0.486  0.4242  0.4963  0.9030
    5MOL   C948 5276   3.532   5.526   0.588  0.0994  0.1158  0.1883
    5MOL   C949 5277   3.467   5.648   0.612 -0.2233 -0.1617 -0.2147
    5MOL   C950 5278   3.576   6.132   0.681 -0.1821 -0.1471 -1.0092
    5MOL   C951 5279   3.665   6.200   0.770 -0.0564 -0.7648 -0.6982
    5MOL   H952 5280   3.711   5.959   1.009  2.2857  0.9203 -0.4736
    5MOL   H953 5281   3.530   5.847   0.863 -0.6301  0.9487  0.4511
    5MOL   H954 5282   3.649   5.866   0.426  1.9536 -1.8438 -0.2314
    5MOL   H955 5283   3.746   5.657   0.353 -0.2609  2.0099 -0.4824
    5MOL   H956 5284   3.760   5.166   0.503  0.0160  0.3069 -0.6568
    5MOL   H957 5285   3.996   5.090   0.539  3.8817  0.1684 -1.6567
    5MOL   H958 5286   4.324   5.079   0.666  0.3960 -1.2727 -0.4238
    5MOL   H959 5287   4.212   5.014   0.556 -0.7215 -1.8249  2.6886
    5MOL   H960 5288   4.144   5.077   0.701 -0.9005  0.6869 -0.7069
    5MOL   H961 5289   4.301   5.322   0.382 -0.4256 -0.6926 -1.7905
    5MOL   H962 5290   4.396   5.193   0.441  0.2991  1.4089 -0.2778
    5MOL   H963 5291   4.233   5.171   0.367 -1.4212  0.3524  1.8092
    5MOL   H964 5292   4.114   5.345   0.798 -0.3801 -0.8727 -1.9890
    5MOL   H965 5293   4.225   5.494   0.975  0.4978 -0.7078  0.4172
    5MOL   H966 5294   4.594   5.451   0.771  0.2792  0.8662 -0.2714
    5MOL   H967 5295   4.495   5.324   0.588  0.4203  0.8503 -0.0313
    5MOL   H968 5296   4.129   5.497   0.505  0.2276 -0.4683  1.7743
    5MOL   H969 5297   3.900   5.581   0.477 -1.2718  0.3862  2.2896
    5MOL   H970 5298   3.491   5.438   0.635 -2.3032  0.8771 -0.4522
    5MOL   H971 5299   3.379   5.651   0.675 -0.0728 -2.3992  0.1577
    5MOL   H972 5300   3.559   6.190   0.592  0.4824  2.7525  0.6690
    5MOL   H973 5301   3.714   6.290   0.738 -0.4678  0.0060  0.7703
    5MOL   C974 5302   4.554   5.668   0.937  0.4033  0.1675 -0.3295
    5MOL   C975 5303   4.678   5.672   0.997  0.8117 -0.0221  0.1602
    5MOL   C976 5304   4.762   5.778   0.970  0.1807  0.4467  0.2659
    5MOL   C977 5305   4.716   5.887   0.887 -0.0919  0.0450 -0.3079
    5MOL   S978 5306   4.818   6.028   0.864  0.0463  0.0291  0.1694
    5MOL   O979 5307   4.917   6.030   0.978 -0.1311 -0.3506 -0.3357
    5MOL   O980 5308   4.736   6.143   0.820  0.2015  0.1909  0.2891
    5MOL   C981 5309   4.916   5.982   0.726 -0.3208  0.2623 -0.0225
    5MOL   C982 5310   4.943   5.846   0.694 -0.2706 -0.0586 -0.1518
    5MOL   C983 5311   5.000   5.803   0.574 -0.8198 -0.1893  0.4992
    5MOL   C984 5312   5.042   5.901   0.481  0.3992  0.3186 -0.5807
    5MOL   O985 5313   5.086   5.864   0.359 -0.5001 -0.3992  0.6934
    5MOL   C986 5314   5.226   5.858   0.361  0.5612 -0.1997  0.2564
    5MOL   C987 5315   5.288   5.731   0.372  0.5109 -0.6423  0.1606
    5MOL   C988 5316   5.426   5.720   0.347 -0.1052 -0.1277 -0.2001
    5MOL   C989 5317   5.502   5.832   0.320  0.0363 -0.1098  0.7335
    5MOL   C990 5318   5.655   5.822   0.300 -0.2723  0.4347  0.4354
    5MOL   C991 5319   5.725   5.868   0.432  0.3173 -0.2700  0.3147
    5MOL   C992 5320   5.711   5.681   0.270  0.1432  0.0637  0.1737
    5MOL   C993 5321   5.710   5.893   0.174  0.4314 -0.0614 -0.3151
    5MOL   C994 5322   5.830   5.971   0.170 -0.2270  0.7554 -0.0203
    5MOL   C995 5323   5.870   6.029   0.049 -0.0836 -0.8935 -0.1694
    5MOL   C996 5324   5.794   6.011   8.185  0.5397 -0.3163 -0.1333
    5MOL   O997 5325   5.839   6.066   8.062 -0.5670  0.6477 -0.0119
    5MOL   C998 5326   5.669   5.950   8.193  0.0222 -0.8186 -0.0126
    5MOL   C999 5327   5.625   5.890   0.060 -0.4411  0.0606 -0.2434
    5MOL     C1 5328   5.443   5.957   0.309 -0.2434  0.3911  0.6846
    5MOL     C2 5329   5.303   5.974   0.331 -1.1063 -0.7124 -0.5607
    5MOL     C3 5330   5.020   6.039   0.510  0.4882 -0.2648  0.4258
    5MOL     C4 5331   4.963   6.084   0.636  0.5356 -0.3740 -1.2051
    5MOL     C5 5332   4.593   5.879   0.817  0.1631  0.7302  0.0889
    5MOL     C6 5333   4.511   5.770   0.844 -0.8417  0.2944 -0.2254
    5MOL     H7 5334   4.725   5.596   1.058  1.3605  0.9254  0.9376
    5MOL     H8 5335   4.858   5.781   1.019  0.0871 -1.1868  0.5622
    5MOL     H9 5336   4.911   5.768   0.762  0.4040  0.4020  0.6940
    5MOL    H10 5337   5.012   5.698   0.554  0.6276 -0.2056  1.3647
    5MOL    H11 5338   5.235   5.637   0.385  1.3835 -1.1101  0.3403
    5MOL    H12 5339   5.474   5.624   0.356 -0.7104 -0.3975  0.1648
    5MOL    H13 5340   5.829   5.837   0.449 -0.3352 -2.0454  1.1941
    5MOL    H14 5341   5.670   5.819   0.513  1.4662 -0.3248  1.0836
    5MOL    H15 5342   5.701   5.971   0.456 -2.7714 -0.6734 -0.9239
    5MOL    H16 5343   5.658   5.633   0.188 -0.0334  0.7663 -0.1359
    5MOL    H17 5344   5.818   5.676   0.250  0.2195 -0.2827  0.6651
    5MOL    H18 5345   5.696   5.609   0.350  1.1300  1.5570  1.7367
    5MOL    H19 5346   5.895   5.964   0.256 -2.0042 -2.1537  1.1346
    5MOL    H20 5347   5.963   6.081   0.035  0.5867 -1.9200  0.4279
    5MOL    H21 5348   5.604   5.947   8.107 -0.9914  2.3267  0.5709
    5MOL    H22 5349   5.532   5.838   0.046  0.3384 -1.8301  1.4650
    5MOL    H23 5350   5.496   6.049   0.288 -2.3111  0.7504 -3.5314
    5MOL    H24 5351   5.266   6.075   0.324  1.0928  0.3674  2.3928
    5MOL    H25 5352   5.040   6.118   0.439 -1.0988 -0.9533 -0.8083
    5MOL    H26 5353   4.947   6.190   0.645  1.4140 -0.3398  0.0333
    5MOL    H27 5354   4.561   5.960   0.753  0.9907 -0.5125 -1.9756
    5MOL    H28 5355   4.409   5.767   0.808 -1.0899 -0.8436  0.5517
    5MOL    C29 5356   5.971   6.036   8.020 -0.1070 -0.0767 -0.0546
    5MOL    C30 5357   6.046   5.931   8.068 -0.2328  0.5144  0.6940
    5MOL    C31 5358   6.183   5.918   8.034  0.4649 -0.2618  0.3626
    5MOL    C32 5359   6.239   6.009   7.943  0.2599 -0.2493 -1.1122
    5MOL    S33 5360   6.410   5.981   7.886 -0.2088  0.3636  0.1008
    5MOL    O34 5361   6.438   6.075   7.776 -0.4487  0.1035  0.3937
    5MOL    O35 5362   6.431   5.837   7.872 -0.5291  0.3669 -0.0418
    5MOL    C36 5363   6.504   6.044   8.025  1.0889 -0.7353  0.0117
    5MOL    C37 5364   6.550   5.958   8.119 -1.1192  0.4367  0.1395
    5MOL    C38 5365   6.628   6.005   8.224  0.1656 -0.0649  0.0004
    5MOL    C39 5366   6.664   6.141   8.234  0.5137  0.0603 -0.2598
    5MOL    O40 5367   6.738   6.192   0.084 -0.5265  0.1627 -0.2901
    5MOL    C41 5368   6.784   6.114   0.186  1.1428 -0.5609 -0.3912
    5MOL    C42 5369   6.908   6.059   0.171  0.0334  0.4228 -0.3919
    5MOL    C43 5370   6.967   5.978   0.272 -0.2255  0.2262 -0.2371
    5MOL    C44 5371   6.895   5.948   0.391 -0.2878  0.7205 -0.3377
    5MOL    C45 5372   6.946   5.844   0.494  0.1815  0.5786  0.2482
    5MOL    C46 5373   7.016   5.723   0.422  0.3615  0.3311  0.1879
    5MOL    C47 5374   7.051   5.915   0.574  0.0180 -0.2591  0.2999
    5MOL    C48 5375   6.830   5.791   0.584 -0.2637 -0.3839  0.5276
    5MOL    C49 5376   6.829   5.788   0.723  0.9083  0.3532 -0.2679
    5MOL    C50 5377   6.715   5.751   0.804  0.2544 -0.1319  0.8041
    5MOL    C51 5378   6.602   5.712   0.734  0.5793  0.1135  0.3158
    5MOL    O52 5379   6.495   5.695   0.818  1.1918 -0.1530 -0.1840
    5MOL    C53 5380   6.602   5.698   0.595  0.4111 -0.5755  0.0463
    5MOL    C54 5381   6.715   5.738   0.522  0.0719 -0.3842  0.0409
    5MOL    C55 5382   6.766   6.014   0.407  0.2007  0.1186  0.3636
    5MOL    C56 5383   6.718   6.103   0.305  0.2623  0.1141 -0.2701
    5MOL    C57 5384   6.621   6.225   8.126  0.2719 -0.4555  0.0308
    5MOL    C58 5385   6.536   6.178   8.026 -0.4734 -0.5355  0.3153
    5MOL    C59 5386   6.164   6.111   7.887  0.3751 -0.2260 -0.0539
    5MOL    C60 5387   6.028   6.127   7.929  0.2889 -0.2528 -0.0733
    5MOL    H61 5388   6.000   5.867   8.143 -0.5179 -0.8638 -0.6173
    5MOL    H62 5389   6.241   5.836   8.071 -0.2285 -0.5282  0.8649
    5MOL    H63 5390   6.521   5.855   8.106  0.0237 -0.2437  2.6476
    5MOL    H64 5391   6.662   5.939   0.049  1.2608  1.8399  1.1741
    5MOL    H65 5392   6.960   6.070   0.077  1.8070 -0.6727  0.4317
    5MOL    H66 5393   7.057   5.925   0.243 -0.9816 -0.3337 -1.6125
    5MOL    H67 5394   7.087   5.736   0.341  0.3120 -0.1720  0.0644
    5MOL    H68 5395   6.943   5.647   0.397  0.2515  0.3856  0.3456
    5MOL    H69 5396   7.076   5.666   0.493  0.7809  0.0065 -0.4239
    5MOL    H70 5397   7.092   5.860   0.659  0.7719  0.2933  0.3026
    5MOL    H71 5398   7.134   5.953   0.514 -0.4388 -0.7652 -0.6665
    5MOL    H72 5399   7.005   6.008   0.608  0.0427  0.4938 -1.6684
    5MOL    H73 5400   6.921   5.813   0.773  1.7201 -2.3364 -0.3682
    5MOL    H74 5401   6.705   5.759   0.912  1.4726  1.1916  0.8321
    5MOL    H75 5402   6.510   5.660   0.553  0.0157 -1.9840  2.1426
    5MOL    H76 5403   6.723   5.725   0.415  0.6710  0.4594 -0.0213
    5MOL    H77 5404   6.702   5.989   0.491 -0.5363 -2.8300 -1.0052
    5MOL    H78 5405   6.622   6.153   0.308  1.0897  1.7075 -0.0020
    5MOL    H79 5406   6.636   6.332   8.127 -1.6128 -0.1597  3.2883
    5MOL    H80 5407   6.505   6.240   7.943 -1.2222  0.6598  1.4814
    5MOL    H81 5408   6.212   6.180   7.819 -1.0184  1.5787  0.7737
    5MOL    H82 5409   5.968   6.212   7.901  0.0645 -0.2977  0.2765
    5MOL    H83 5410   6.504   5.733   0.904  2.6398 -2.0382  0.5565
    6MOL     C1 5411   1.048   6.769   3.574 -0.4025 -0.0152 -0.5048
    6MOL     C2 5412   1.021   6.697   3.459  0.5673  0.4738 -0.3979
    6MOL     C3 5413   0.950   6.757   3.356 -0.1825  0.2112 -0.1108
    6MOL     C4 5414   0.899   6.885   3.374  0.1868 -0.4121  0.0576
    6MOL     S5 5415   0.788   6.961   3.257  0.3895  0.2179  0.1007
    6MOL     O6 5416   0.787   6.892   3.128 -0.5981 -0.1118 -0.2629
    6MOL     O7 5417   0.818   7.105   3.264  0.2677 -0.3926  0.4983
    6MOL     C8 5418   0.624   6.942   3.316 -0.3363  0.2332  0.0443
    6MOL     C9 5419   0.538   7.053   3.322  0.2492 -0.6406 -0.3090
    6MOL    C10 5420   0.407   7.043   3.372 -0.4532  0.3301 -0.0353
    6MOL    C11 5421   0.365   6.921   3.418  0.7971 -0.0875 -0.4275
    6MOL    O12 5422   0.241   6.910   3.475  0.0020  0.6254  0.1700
    6MOL    C13 5423   0.124   6.900   3.399 -0.3122 -1.1842  0.7661
    6MOL    C14 5424   0.130   6.865   3.263  0.1880 -0.1035  0.3305
    6MOL    C15 5425   0.012   6.867   3.185 -0.2802  0.2562  0.3940
    6MOL    C16 5426   8.138   6.891   3.241  0.7606 -0.6128 -0.7108
    6MOL    C17 5427   8.008   6.881   3.159 -0.0958  0.0014  0.4369
    6MOL    C18 5428   7.882   6.898   3.251 -0.0598 -0.5380 -0.2622
    6MOL    C19 5429   7.990   6.987   3.052  0.3313 -0.4787 -0.2353
    6MOL    C20 5430   7.995   6.738   3.103 -0.2725  0.1106 -0.2788
    6MOL    C21 5431   7.983   6.719   2.962 -0.1544 -0.4329 -0.6180
    6MOL    C22 5432   7.980   6.590   2.913  0.1067 -0.2480 -0.2822
    6MOL    C23 5433   7.981   6.481   3.002 -0.0254  0.0248  0.0460
    6MOL    O24 5434   7.973   6.352   2.956 -0.1076 -0.3217 -0.2544
    6MOL    C25 5435   7.993   6.502   3.137  0.3027 -0.1111 -0.6506
    6MOL    C26 5436   7.996   6.628   3.193 -0.1933  0.3727  0.0722
    6MOL    C27 5437   8.133   6.912   3.379  0.1489  0.4695  0.1158
    6MOL    C28 5438   8.252   6.919   3.454 -0.7417  0.0318  0.1069
    6MOL    C29 5439   0.448   6.815   3.419  0.2012  1.0364 -0.5123
    6MOL    C30 5440   0.580   6.815   3.364 -1.2295 -0.2956  0.2649
    6MOL    C31 5441   0.920   6.957   3.491 -0.0661  0.1375  0.1776
    6MOL    C32 5442   0.995   6.901   3.590  0.1211 -0.0322 -0.6612
    6MOL    H33 5443   1.070   6.603   3.439  0.0089  0.1766 -0.3779
    6MOL    H34 5444   0.937   6.707   3.261  0.6916  1.7129 -1.0382
    6MOL    H35 5445   0.571   7.155   3.307 -0.0618 -0.3152  1.1691
    6MOL    H36 5446   0.343   7.128   3.390 -0.4317  0.4788 -0.6567
    6MOL    H37 5447   0.224   6.849   3.214  0.3935 -0.6546  0.9039
    6MOL    H38 5448   0.013   6.854   3.078  1.8220 -0.4804  0.4845
    6MOL    H39 5449   7.886   6.823   3.329  0.3919  0.1705  0.4058
    6MOL    H40 5450   7.789   6.890   3.196 -0.6374  2.2602  0.2143
    6MOL    H41 5451   7.884   6.997   3.297  0.2634 -0.8792  0.4666
    6MOL    H42 5452   7.993   7.091   3.085  2.5928 -0.7656  0.5253
    6MOL    H43 5453   8.070   6.975   2.979  3.0048 -0.2396  2.5459
    6MOL    H44 5454   7.891   6.974   3.007  1.6630  1.0609 -3.7660
    6MOL    H45 5455   7.979   6.798   2.888  0.5083 -0.1895 -0.3984
    6MOL    H46 5456   7.972   6.586   2.806 -0.9010 -1.2379 -0.1844
    6MOL    H47 5457   8.000   6.420   3.208 -0.4881  0.5775  0.2308
    6MOL    H48 5458   8.004   6.643   3.300 -1.4188  2.2166 -0.0830
    6MOL    H49 5459   8.041   6.929   3.432  0.2510  0.6156  0.2451
    6MOL    H50 5460   8.242   6.943   3.559 -2.8914  1.3065 -0.3669
    6MOL    H51 5461   0.413   6.718   3.454 -1.5258  1.3053 -1.4309
    6MOL    H52 5462   0.651   6.735   3.375 -0.1185  0.6460  0.1275
    6MOL    H53 5463   0.873   7.053   3.506 -0.0608  0.4412 -1.6316
    6MOL    H54 5464   1.009   6.960   3.680 -0.1121  1.5609 -1.6498
    6MOL    H55 5465   1.107   6.729   3.655  0.6971 -0.8766 -1.6871
    6MOL    C56 5466   7.866   6.317   2.871 -0.0052 -0.6807  0.9727
    6MOL    C57 5467   7.749   6.267   2.927 -0.9148 -0.2039 -0.0329
    6MOL    C58 5468   7.637   6.243   2.840  0.5902 -0.1928  0.6399
    6MOL    C59 5469   7.648   6.273   2.703 -0.0383  0.1433 -0.6530
    6MOL    S60 5470   7.504   6.253   2.589  0.0065  0.2033  0.0711
    6MOL    O61 5471   7.423   6.142   2.644 -0.0990  0.3579 -0.5140
    6MOL    O62 5472   7.565   6.240   2.455 -0.6177  0.4915 -0.1229
    6MOL    C63 5473   7.407   6.407   2.598  0.1018 -0.5564 -0.2319
    6MOL    C64 5474   7.266   6.392   2.599  0.7475  0.1187 -0.1989
    6MOL    C65 5475   7.180   6.497   2.625 -0.1554  0.4171  0.7318
    6MOL    C66 5476   7.242   6.622   2.638  0.1679  0.3166 -0.3566
    6MOL    O67 5477   7.159   6.733   2.660 -0.7360 -0.2752 -0.1572
    6MOL    C68 5478   7.150   6.842   2.578 -0.1710  0.6480 -0.3697
    6MOL    C69 5479   7.210   6.963   2.621  0.1737  0.4065  0.1773
    6MOL    C70 5480   7.187   7.080   2.545  0.4542 -0.6501  0.0564
    6MOL    C71 5481   7.125   7.072   2.414  0.3165  0.4144  0.0195
    6MOL    C72 5482   7.123   7.197   2.321  0.7146 -0.7950 -0.3042
    6MOL    C73 5483   6.997   7.281   2.356  0.1313 -0.0401 -0.8334
    6MOL    C74 5484   7.248   7.286   2.347 -0.3818 -0.3043  0.1518
    6MOL    C75 5485   7.114   7.140   2.174  0.1409  0.1769  0.3652
    6MOL    C76 5486   7.227   7.142   2.087  0.0801 -0.4425  0.1632
    6MOL    C77 5487   7.224   7.089   1.950 -0.6388 -0.4899  0.4717
    6MOL    C78 5488   7.102   7.030   1.905  0.1027  0.3748 -0.2452
    6MOL    O79 5489   7.088   6.967   1.781  0.1940  0.4271  0.0256
    6MOL    C80 5490   6.990   7.044   1.988  0.2314 -0.1528  0.8386
    6MOL    C81 5491   6.990   7.095   2.115  0.1370 -0.2142 -0.3917
    6MOL    C82 5492   7.061   6.948   2.379  0.2555 -0.2917  0.6474
    6MOL    C83 5493   7.073   6.836   2.460  0.1199 -0.9060 -0.1948
    6MOL    C84 5494   7.381   6.647   2.622 -0.2954  0.6038 -0.2724
    6MOL    C85 5495   7.468   6.534   2.609 -0.2659  0.2035  0.1275
    6MOL    C86 5496   7.772   6.315   2.647  0.3355 -1.0237 -0.2670
    6MOL    C87 5497   7.881   6.340   2.734  0.0675  0.1556 -0.4146
    6MOL    H88 5498   7.749   6.249   3.033 -1.9616  0.8260  0.1501
    6MOL    H89 5499   7.549   6.196   2.882  1.0983 -0.0910  1.8465
    6MOL    H90 5500   7.230   6.291   2.594 -2.6330  1.2247  0.3669
    6MOL    H91 5501   7.072   6.486   2.630 -0.2446  1.0826  0.2830
    6MOL    H92 5502   7.257   6.963   2.718  1.5090  0.5658 -0.4583
    6MOL    H93 5503   7.226   7.173   2.585 -0.6354  0.6757 -1.8751
    6MOL    H94 5504   6.909   7.218   2.347  1.2865 -1.6322 -1.2231
    6MOL    H95 5505   6.979   7.365   2.290 -3.2968  0.3994  0.5779
    6MOL    H96 5506   7.010   7.318   2.459 -0.7870 -0.5194 -0.5447
    6MOL    H97 5507   7.239   7.369   2.277 -0.5283  2.0769  2.8683
    6MOL    H98 5508   7.255   7.331   2.447 -1.2636  1.3089 -0.4947
    6MOL    H99 5509   7.345   7.240   2.330 -0.9845 -2.0020  1.2257
    6MOL   H100 5510   7.320   7.182   2.125  0.7049  0.4460 -2.2243
    6MOL   H101 5511   7.302   7.094   1.875 -0.7544  0.7708  0.4180
    6MOL   H102 5512   6.898   7.012   1.942  0.8799  0.5534 -1.0043
    6MOL   H103 5513   6.896   7.103   2.167 -1.0380 -2.8610 -2.0087
    6MOL   H104 5514   6.996   6.924   2.297 -1.7022 -0.5417  2.2319
    6MOL   H105 5515   7.023   6.749   2.421 -0.6328 -0.4454 -0.2665
    6MOL   H106 5516   7.413   6.744   2.656 -0.5632 -0.2299  2.4906
    6MOL   H107 5517   7.574   6.545   2.621 -0.0625  0.2888 -1.6082
    6MOL   H108 5518   7.776   6.342   2.542  3.1657  0.1123  0.1058
    6MOL   H109 5519   7.977   6.381   2.711  0.3796 -0.3837 -0.0917
    6MOL   C110 5520   7.132   7.032   1.670 -0.2853 -0.0377 -0.4669
    6MOL   C111 5521   7.084   7.162   1.635  0.0536  0.4291 -0.5700
    6MOL   C112 5522   7.132   7.226   1.519 -0.1177 -0.0252  0.3267
    6MOL   C113 5523   7.211   7.150   1.432  0.2702  0.1459  0.2611
    6MOL   S114 5524   7.259   7.221   1.269  0.2996  0.1871 -0.0970
    6MOL   O115 5525   7.129   7.227   1.189 -1.0259  0.2528  0.1229
    6MOL   O116 5526   7.366   7.137   1.206  0.0875 -0.3135  0.1963
    6MOL   C117 5527   7.315   7.390   1.297  0.3252  0.8660 -0.0698
    6MOL   C118 5528   7.247   7.493   1.233  0.6425 -0.0188 -0.2621
    6MOL   C119 5529   7.285   7.623   1.253 -0.2396 -0.1065 -0.0070
    6MOL   C120 5530   7.390   7.655   1.342  0.2100 -0.5075  0.0739
    6MOL   O121 5531   7.439   7.781   1.355  0.8099 -0.3617  0.2644
    6MOL   C122 5532   7.370   7.877   1.431 -0.0471 -0.2663  1.1694
    6MOL   C123 5533   7.322   7.998   1.377  0.0038 -0.6738 -0.2671
    6MOL   C124 5534   7.256   8.095   1.454 -0.0958 -0.2151 -0.0871
    6MOL   C125 5535   7.237   8.071   1.593 -0.2642  0.4133 -0.3288
    6MOL   C126 5536   7.155   8.170   1.680  0.2636  0.2921 -0.1903
    6MOL   C127 5537   7.116   0.041   1.600  0.3010  0.7356 -0.3055
    6MOL   C128 5538   7.017   8.099   1.707  0.5015 -0.6624 -0.4026
    6MOL   C129 5539   7.245   8.208   1.801  0.4885 -0.3999  0.0270
    6MOL   C130 5540   7.198   8.187   1.933  0.0868 -0.2484 -0.7532
    6MOL   C131 5541   7.282   8.219   2.040  0.3676 -0.2402  0.4889
    6MOL   C132 5542   7.408   0.028   2.026  0.0989 -0.2479  0.0454
    6MOL   O133 5543   7.486   0.060   2.134 -0.0188  0.6604  0.6267
    6MOL   C134 5544   7.441   0.065   1.894  0.1940  0.8059 -0.7236
    6MOL   C135 5545   7.372   0.011   1.781 -0.2019 -0.2470 -0.4672
    6MOL   C136 5546   7.276   7.950   1.645 -0.3642  0.1633  0.1922
    6MOL   C137 5547   7.343   7.853   1.565  0.4553  0.6570  0.0512
    6MOL   C138 5548   7.461   7.552   1.405 -0.2319  0.3544 -0.3158
    6MOL   C139 5549   7.423   7.418   1.389  0.9291 -0.1175 -0.5811
    6MOL   C140 5550   7.253   7.018   1.460 -0.1186 -0.1348  0.5262
    6MOL   C141 5551   7.218   6.957   1.582  0.0119 -0.2426  0.6518
    6MOL   H142 5552   7.021   7.222   1.699 -1.6072 -1.7752 -0.0746
    6MOL   H143 5553   7.096   7.324   1.494 -0.3078 -0.4469 -1.0657
    6MOL   H144 5554   7.165   7.466   1.168 -1.0430 -0.2354  1.8817
    6MOL   H145 5555   7.236   7.701   1.197 -1.9179 -0.6436  0.6927
    6MOL   H146 5556   7.335   8.016   1.271  0.0996  3.4618  0.3618
    6MOL   H147 5557   7.236   8.189   1.404  0.4222  0.6353  1.2858
    6MOL   H148 5558   7.061   0.114   1.659 -1.4995  1.1992 -2.4320
    6MOL   H149 5559   7.040   0.027   1.523 -2.4630 -2.3497  2.8130
    6MOL   H150 5560   7.206   0.087   1.561 -0.6814  0.1706 -3.4263
    6MOL   H151 5561   6.938   8.141   1.769  0.1599 -1.0278 -0.5897
    6MOL   H152 5562   6.976   8.079   1.609  1.0361  0.0190 -0.7750
    6MOL   H153 5563   7.039   8.016   1.774  2.0704 -0.4860 -0.6648
    6MOL   H154 5564   7.115   8.122   1.960 -1.3379  1.8727  0.0970
    6MOL   H155 5565   7.243   8.187   2.136 -4.7616 -0.5515 -1.5855
    6MOL   H156 5566   7.534   0.119   1.880 -0.8552  3.2151  1.2128
    6MOL   H157 5567   7.399   0.036   1.679 -1.4103  0.1995 -0.6842
    6MOL   H158 5568   7.254   7.921   1.746 -1.2275  0.2756  0.0433
    6MOL   H159 5569   7.376   7.760   1.609 -1.2696  1.1809  2.5746
    6MOL   H160 5570   7.552   7.569   1.461  0.2736 -3.5992  0.2415
    6MOL   H161 5571   7.485   7.337   1.426  2.7144  2.0937  1.4767
    6MOL   H162 5572   7.309   6.957   1.390  1.8398  0.4630  1.5463
    6MOL   H163 5573   7.247   6.857   1.609  0.6940 -0.7357 -1.7469
    6MOL   C164 5574   7.582   8.222   2.178  0.5786  0.4661  0.5444
    6MOL   C165 5575   7.557   8.082   2.188  0.1003  0.0501  0.3145
    6MOL   C166 5576   7.653   7.991   2.230 -0.7846 -0.5298  0.3231
    6MOL   C167 5577   7.779   8.042   2.274  0.2809  0.5645  0.1870
    6MOL   S168 5578   7.909   7.921   2.338  0.2078 -0.0008  0.2817
    6MOL   O169 5579   7.847   7.788   2.360  0.0257  0.5053 -0.7081
    6MOL   O170 5580   7.977   7.986   2.452  0.3516  0.6551 -0.3466
    6MOL   C171 5581   8.028   7.902   2.202  0.4350  0.5807 -0.1864
    6MOL   C172 5582   7.990   7.823   2.092 -0.0571 -0.2154  0.3612
    6MOL   C173 5583   8.074   7.808   1.976 -0.3244  0.1248 -0.5969
    6MOL   C174 5584   8.202   7.872   1.978 -0.3768 -1.3754 -0.0257
    6MOL   O175 5585   0.031   7.851   1.870 -0.1325  0.0973 -0.7003
    6MOL   C176 5586   0.047   7.725   1.821 -0.0764 -0.4001  0.2494
    6MOL   C177 5587   8.225   7.684   1.709 -0.4526  0.6518  0.0523
    6MOL   C178 5588   8.248   7.556   1.656 -0.1138  0.2778  0.3641
    6MOL   C179 5589   0.081   7.465   1.723  0.0630 -0.1261 -0.1187
    6MOL   C180 5590   0.103   7.319   1.676 -0.4532 -0.4449 -0.8076
    6MOL   C181 5591   0.023   7.219   1.768 -0.3047  0.0666  0.3288
    6MOL   C182 5592   0.054   7.287   1.531  0.1044  0.2908 -1.0501
    6MOL   C183 5593   0.253   7.300   1.677 -0.2419 -0.5426  0.2524
    6MOL   C184 5594   0.324   7.199   1.749 -0.3734 -0.3293 -0.6476
    6MOL   C185 5595   0.467   7.187   1.744  0.4314 -0.7194 -0.0461
    6MOL   C186 5596   0.540   7.270   1.658 -0.2330  0.3850 -0.4106
    6MOL   O187 5597   0.674   7.263   1.650 -0.4412  0.1110  0.0831
    6MOL   C188 5598   0.467   7.371   1.589 -0.3141  0.7135  0.1196
    6MOL   C189 5599   0.331   7.390   1.601 -0.5261 -0.1122  0.5564
    6MOL   C190 5600   0.144   7.503   1.844 -0.3385  0.4371 -0.2605
    6MOL   C191 5601   0.133   7.633   1.884 -0.4375 -0.3776  0.0264
    6MOL   C192 5602   8.240   7.944   2.091  0.1679  0.1813  0.3337
    6MOL   C193 5603   8.151   7.963   2.203 -0.2728 -0.2475  0.7775
    6MOL   C194 5604   7.804   8.181   2.268 -0.0073 -0.6056  0.4257
    6MOL   C195 5605   7.710   0.020   2.220  0.3429 -0.3389 -0.6723
    6MOL   H196 5606   7.465   8.032   2.162  0.7076 -2.2801  2.5380
    6MOL   H197 5607   7.631   7.886   2.239  0.0211 -0.8722 -1.4042
    6MOL   H198 5608   7.894   7.774   2.101 -0.6056  1.0180  1.3944
    6MOL   H199 5609   8.043   7.759   1.885  0.2540 -0.8442 -0.2760
    6MOL   H200 5610   8.161   7.748   1.651 -1.3842 -0.6940 -0.4310
    6MOL   H201 5611   8.209   7.516   1.563 -0.5947  1.1827  0.1746
    6MOL   H202 5612   0.032   7.119   1.727  1.6405  0.3951 -0.0822
    6MOL   H203 5613   8.173   7.253   1.761  0.0562  1.4358  1.4280
    6MOL   H204 5614   0.061   7.236   1.868  0.9997  0.9850 -0.3150
    6MOL   H205 5615   8.199   7.291   1.545  0.4336 -0.7462  2.5345
    6MOL   H206 5616   0.111   7.347   1.460  0.3551  0.2048 -0.9228
    6MOL   H207 5617   0.075   7.183   1.507 -2.2676 -0.2208 -0.9768
    6MOL   H208 5618   0.262   7.137   1.812 -1.4497 -0.0838 -1.4403
    6MOL   H209 5619   0.502   7.104   1.805  0.6818 -1.1792 -0.8144
    6MOL   H210 5620   0.522   7.439   1.525  2.6527 -0.8165  0.9401
    6MOL   H211 5621   0.284   7.471   1.546 -0.7635 -1.0017 -0.5707
    6MOL   H212 5622   0.199   7.433   1.906 -1.7560  2.6625  3.6940
    6MOL   H213 5623   0.180   7.671   1.974 -0.7959 -0.4202  0.2355
    6MOL   H214 5624   0.086   7.983   2.106 -0.2603  0.9951  1.0551
    6MOL   H215 5625   8.168   8.021   2.293 -0.6177  0.8193  0.1626
    6MOL   H216 5626   7.888   8.236   2.308 -0.3996  1.7702 -1.9244
    6MOL   H217 5627   7.725   0.126   2.211  2.0534 -0.7163 -2.6723
    6MOL   C218 5628   0.751   7.295   1.764 -0.3776 -0.0477  0.2064
    6MOL   C219 5629   0.805   7.189   1.838  0.3691 -0.9784  0.2327
    6MOL   C220 5630   0.905   7.217   1.927 -0.0870 -0.0496  0.1750
    6MOL   C221 5631   0.919   7.347   1.979  0.2450  0.6840 -0.7402
    6MOL   S222 5632   1.029   7.381   2.118 -0.0074  0.1273 -0.1602
    6MOL   O223 5633   1.045   7.256   2.193  0.2573  0.3245 -0.2543
    6MOL   O224 5634   0.987   7.505   2.188 -0.1370  0.0778 -0.2210
    6MOL   C225 5635   1.196   7.401   2.055 -0.3202  0.0056 -0.7496
    6MOL   C226 5636   1.300   7.440   2.140  0.0291 -0.2925  0.1453
    6MOL   C227 5637   1.430   7.455   2.087  0.5716 -0.7602  0.5654
    6MOL   C228 5638   1.453   7.432   1.950  0.3897  0.4385 -0.3778
    6MOL   O229 5639   1.578   7.454   1.898 -0.4577 -0.6249 -0.2217
    6MOL   C230 5640   1.642   7.338   1.855 -0.1732 -1.0982  0.4922
    6MOL   C231 5641   1.694   7.333   1.723 -0.2467  0.3245 -0.0149
    6MOL   C232 5642   1.776   7.228   1.678  0.2561 -0.7345  0.2091
    6MOL   C233 5643   1.824   7.125   1.766  0.3778  1.0438 -0.7806
    6MOL   C234 5644   1.933   7.019   1.732 -0.5389  0.6668  0.0397
    6MOL   C235 5645   1.859   6.889   1.679  0.5844  0.0864 -0.3248
    6MOL   C236 5646   2.035   7.058   1.620 -0.0193 -0.4507 -0.3667
    6MOL   C237 5647   2.023   6.989   1.862 -0.3397 -0.1380  0.8271
    6MOL   C238 5648   2.069   7.102   1.936 -0.3982  0.5623 -0.1197
    6MOL   C239 5649   2.148   7.088   2.047 -0.2202 -0.1080 -0.4236
    6MOL   C240 5650   2.190   6.959   2.088  0.2353  0.7864  0.1210
    6MOL   O241 5651   2.276   6.939   2.196  0.0500  0.2592  0.1175
    6MOL   C242 5652   2.137   6.846   2.014 -0.4022  0.9846 -0.4624
    6MOL   C243 5653   2.056   6.857   1.902 -0.0393  0.2367 -0.1633
    6MOL   C244 5654   1.745   7.112   1.887 -0.9374 -0.2285  0.2683
    6MOL   C245 5655   1.658   7.217   1.927 -0.2986  0.1881 -0.2277
    6MOL   C246 5656   1.344   7.397   1.862  0.6350 -0.1663  0.7343
    6MOL   C247 5657   1.213   7.382   1.918  0.4554  0.2366  0.4486
    6MOL   C248 5658   0.852   7.455   1.915 -0.1966 -0.0304  0.0701
    6MOL   C249 5659   0.772   7.432   1.803  0.4448 -0.0797 -0.2421
    6MOL   H250 5660   0.809   7.091   1.793  1.9776  0.1021 -2.0364
    6MOL   H251 5661   0.973   7.140   1.961  0.8456  0.8114  0.2691
    6MOL   H252 5662   1.273   7.468   2.241 -0.4160  0.7029 -0.2463
    6MOL   H253 5663   1.510   7.486   2.153 -2.4107 -0.2183  4.0441
    6MOL   H254 5664   1.662   7.410   1.654  0.3766  2.7610  2.3105
    6MOL   H255 5665   1.808   7.224   1.575 -4.2397  1.0786 -1.4269
    6MOL   H256 5666   1.796   6.839   1.753 -0.2249 -1.2789 -1.8857
    6MOL   H257 5667   1.931   6.821   1.633  3.0047  2.5044 -0.1979
    6MOL   H258 5668   1.799   6.920   1.593  0.9842 -1.5156 -1.2042
    6MOL   H259 5669   2.106   7.133   1.657 -1.8623  1.0619  0.2288
    6MOL   H260 5670   2.109   6.979   1.613  0.0643 -0.4824  0.7189
    6MOL   H261 5671   1.991   7.084   1.523 -0.8448 -1.0133 -0.1512
    6MOL   H262 5672   2.036   7.199   1.904 -0.7635  0.4809  0.0113
    6MOL   H263 5673   2.177   7.178   2.097 -0.0618  0.4347 -1.4733
    6MOL   H264 5674   2.173   6.747   2.034 -0.1803  0.4347 -3.4377
    6MOL   H265 5675   2.026   6.771   1.844  0.8819 -0.5275  0.4958
    6MOL   H266 5676   1.761   7.020   1.942  1.7945 -0.3253 -0.6089
    6MOL   H267 5677   1.608   7.198   2.021 -1.0776 -0.0312 -0.6872
    6MOL   H268 5678   1.357   7.386   1.755  0.1646 -1.1094  0.7671
    6MOL   H269 5679   1.136   7.340   1.855 -0.2054 -0.0238  1.4087
    6MOL   H270 5680   0.866   7.552   1.961 -0.9572 -1.0115  2.4708
    6MOL   H271 5681   0.722   7.517   1.758 -0.4999 -0.2683  0.4344
    6MOL   C272 5682   2.377   7.033   2.221  0.9615  0.1868 -0.7118
    6MOL   C273 5683   2.498   7.042   2.149  0.1302 -0.2422 -0.3682
    6MOL   C274 5684   2.598   7.137   2.188  0.1284  0.2514 -0.0502
    6MOL   C275 5685   2.574   7.229   2.285  0.1230 -0.4671 -0.0315
    6MOL   S276 5686   2.700   7.355   2.327  0.2964  0.0362 -0.3346
    6MOL   O277 5687   2.627   7.469   2.379  0.4602 -0.1694 -0.1754
    6MOL   O278 5688   2.788   7.373   2.214 -0.5458  0.2129 -0.2973
    6MOL   C279 5689   2.790   7.283   2.459  0.1999  0.8467 -0.1386
    6MOL   C280 5690   2.731   7.200   2.565 -0.6757 -0.1219  0.1735
    6MOL   C281 5691   2.809   7.131   2.661  1.0229 -0.4339  0.4439
    6MOL   C282 5692   2.947   7.156   2.657 -0.1817 -0.3667 -1.1738
    6MOL   O283 5693   3.024   7.087   2.738 -0.5260  0.0757 -0.3175
    6MOL   C284 5694   3.100   6.992   2.680 -0.2212 -0.0990 -0.1388
    6MOL   C285 5695   3.225   6.959   2.728  0.7170  0.0169  0.5335
    6MOL   C286 5696   3.303   6.854   2.678 -1.0219  0.3657  1.0163
    6MOL   C287 5697   3.266   6.779   2.565  0.0605 -0.1747 -0.4135
    6MOL   C288 5698   3.355   6.668   2.508 -0.0626 -0.3833  0.6122
    6MOL   C289 5699   3.379   6.695   2.355  0.1786 -0.5544  0.4578
    6MOL   C290 5700   3.491   6.670   2.575 -0.1637 -0.2918  0.1072
    6MOL   C291 5701   3.294   6.527   2.532  0.6850 -0.4458  0.5464
    6MOL   C292 5702   3.316   6.425   2.438  0.1757 -0.4986  0.6114
    6MOL   C293 5703   3.271   6.296   2.462  0.3029  0.0438  0.5289
    6MOL   C294 5704   3.195   6.267   2.580 -0.4312  0.8912 -0.2639
    6MOL   O295 5705   3.145   6.140   2.607  0.7102 -0.3143  0.1122
    6MOL   C296 5706   3.180   6.367   2.680 -0.0701  1.7260 -0.0934
    6MOL   C297 5707   3.217   6.499   2.652  0.4429  0.1902  0.2207
    6MOL   C298 5708   3.143   6.811   2.510  1.1117  0.3012  0.6506
    6MOL   C299 5709   3.059   6.914   2.566  0.7254  0.0096  0.3040
    6MOL   C300 5710   3.010   7.239   2.561  0.0665  0.6126 -0.1904
    6MOL   C301 5711   2.928   7.300   2.466 -0.6920 -0.3888  0.4194
    6MOL   C302 5712   2.449   7.237   2.341  0.6125 -0.6702  0.2460
    6MOL   C303 5713   2.360   7.133   2.321  0.6234 -0.1731 -0.3124
    6MOL   H304 5714   2.522   6.965   2.077  0.2900 -1.0234  0.5009
    6MOL   H305 5715   2.696   7.118   2.146  0.0218  2.4849 -1.3827
    6MOL   H306 5716   2.623   7.196   2.563 -0.8137  1.4069  2.3503
    6MOL   H307 5717   2.772   7.066   2.739  1.2709 -0.7569  0.2914
    6MOL   H308 5718   3.258   7.009   2.818 -1.1161  2.1126  0.0860
    6MOL   H309 5719   3.398   6.842   2.730 -0.8427 -2.7524  0.0693
    6MOL   H310 5720   3.402   6.800   2.336 -1.3480  0.2729  2.9486
    6MOL   H311 5721   3.299   6.678   2.282  0.0729 -1.2700  0.7314
    6MOL   H312 5722   3.468   6.651   2.310 -0.8140 -0.8185 -1.3284
    6MOL   H313 5723   3.562   6.599   2.534  2.2691  1.2171  1.6343
    6MOL   H314 5724   3.554   6.758   2.566  2.7747 -2.5779 -2.9468
    6MOL   H315 5725   3.488   6.659   2.683 -0.2256  4.0063  0.6335
    6MOL   H316 5726   3.366   6.439   2.343 -3.8572  2.9135 -1.1520
    6MOL   H317 5727   3.300   6.214   2.398 -2.0444 -0.9267  0.6886
    6MOL   H318 5728   3.125   6.329   2.764 -0.0279 -1.0818 -1.2781
    6MOL   H319 5729   3.190   6.577   2.721  0.7766 -1.1230  1.8748
    6MOL   H320 5730   3.092   6.761   2.429  1.4522 -0.2207  0.7538
    6MOL   H321 5731   2.958   6.929   2.530  0.4802 -0.7429  0.6721
    6MOL   H322 5732   3.117   7.253   2.560 -0.1509  2.8076  1.9851
    6MOL   H323 5733   2.977   7.368   2.398  0.8142  0.0797  1.9055
    6MOL   H324 5734   2.426   7.302   2.424 -3.3389 -1.1400 -0.3824
    6MOL   H325 5735   2.261   7.128   2.364  1.5691  0.6479  2.0456
    6MOL   C326 5736   3.042   6.094   2.528  0.4745 -1.1787  0.5741
    6MOL   C327 5737   2.935   6.182   2.492 -0.5878  0.0181  0.9732
    6MOL   C328 5738   2.826   6.132   2.413 -0.0684 -0.2258 -0.0295
    6MOL   C329 5739   2.819   5.992   2.382  0.3187  0.1800 -0.6450
    6MOL   S330 5740   2.682   5.926   2.295 -0.1086  0.0270 -0.5329
    6MOL   O331 5741   2.554   5.987   2.347 -0.3305  0.5156  0.1381
    6MOL   O332 5742   2.699   5.780   2.297  0.6755  0.1744 -0.5618
    6MOL   C333 5743   2.707   5.986   2.128  0.2920  0.0497 -0.1091
    6MOL   C334 5744   2.759   5.902   2.023 -0.2561 -0.1362  0.1950
    6MOL   C335 5745   2.787   5.955   1.898 -0.1443 -0.5525  0.7175
    6MOL   C336 5746   2.758   6.094   1.869 -0.4738  0.0956 -0.4151
    6MOL   O337 5747   2.782   6.141   1.742  0.3242  0.3103  0.4965
    6MOL   C338 5748   2.908   6.196   1.716  0.2964  0.1405  0.1685
    6MOL   C339 5749   3.026   6.111   1.738 -0.0543  0.3112  0.5983
    6MOL   C340 5750   3.153   6.157   1.695  0.2394  0.2787 -0.3292
    6MOL   C341 5751   3.169   6.287   1.647  0.0303 -0.0495  0.9725
    6MOL   C342 5752   3.306   6.343   1.596 -0.0287  0.6496 -0.0335
    6MOL   C343 5753   3.323   6.504   1.614 -0.4975 -0.1144 -0.0205
    6MOL   C344 5754   3.425   6.276   1.674  0.1506  0.6476 -0.3896
    6MOL   C345 5755   3.322   6.307   1.442  0.2346  0.3675 -1.0551
    6MOL   C346 5756   3.264   6.188   1.389  0.5081  0.3734  0.2001
    6MOL   C347 5757   3.288   6.153   1.256 -0.1470 -0.7413 -1.0187
    6MOL   C348 5758   3.372   6.227   1.169  0.3056 -0.3175  0.3676
    6MOL   O349 5759   3.379   6.187   1.037  0.0061 -0.2125  0.6173
    6MOL   C350 5760   3.439   6.344   1.224  0.8766  0.3639  0.2497
    6MOL   C351 5761   3.405   6.386   1.354 -0.5271  0.4380  0.3373
    6MOL   C352 5762   3.052   6.367   1.624  0.2793 -0.4136 -0.0981
    6MOL   C353 5763   2.921   6.320   1.652  0.0719  0.4345  0.4084
    6MOL   C354 5764   2.695   6.171   1.968  0.1058 -0.3743 -0.6745
    6MOL   C355 5765   2.671   6.120   2.098  0.7245  0.2455  0.6675
    6MOL   C356 5766   2.918   5.900   2.425 -0.6444 -0.7363 -0.0734
    6MOL   C357 5767   3.030   5.951   2.494 -0.0169 -0.1032  0.5095
    6MOL   H358 5768   2.935   6.284   2.525 -0.8167 -0.4234  2.3603
    6MOL   H359 5769   2.746   6.204   2.402  1.6117  1.7921  0.6176
    6MOL   H360 5770   2.776   5.797   2.039 -0.6411 -0.0440  1.2539
    6MOL   H361 5771   2.822   5.893   1.817 -0.9670  2.4131 -2.0094
    6MOL   H362 5772   3.022   6.017   1.791  0.8822  0.3707  0.7911
    6MOL   H363 5773   3.239   6.093   1.709  0.4977  0.8633  0.8350
    6MOL   H364 5774   3.296   6.515   1.720 -1.6081 -3.5843  0.1179
    6MOL   H365 5775   3.254   6.565   1.556  1.6021  1.7008 -0.6885
    6MOL   H366 5776   3.423   6.541   1.592  0.2793 -2.0835  0.1237
    6MOL   H367 5777   3.420   6.168   1.665  1.2984  0.5037  0.5324
    6MOL   H368 5778   3.526   6.302   1.641  0.9718 -2.4426 -0.4024
    6MOL   H369 5779   3.422   6.308   1.778  2.2136  1.3339 -0.5162
    6MOL   H370 5780   3.191   6.130   1.442  0.4314 -0.8436 -1.2071
    6MOL   H371 5781   3.242   6.062   1.220  0.8087 -2.3475  1.6479
    6MOL   H372 5782   3.507   6.417   1.184  1.1885  0.1940  0.4702
    6MOL   H373 5783   3.452   6.476   1.391 -0.2953 -0.1812  1.6002
    6MOL   H374 5784   3.062   6.459   1.568  0.5684  0.9636  2.1797
    6MOL   H375 5785   2.825   6.363   1.625  0.0757  0.8910  1.1165
    6MOL   H376 5786   2.671   6.272   1.941 -1.1300 -1.1532 -2.5312
    6MOL   H377 5787   2.621   6.180   2.173 -2.0528 -0.9027 -0.2000
    6MOL   H378 5788   2.920   5.801   2.383 -1.4641 -0.7753 -0.0410
    6MOL   H379 5789   3.120   5.894   2.513  0.2259  0.4374  0.9969
    6MOL   C380 5790   3.262   6.198   0.967 -0.1066  0.1243  0.3087
    6MOL   C381 5791   3.195   6.083   0.921  0.0139 -0.0378 -0.1071
    6MOL   C382 5792   3.074   6.098   0.858 -0.1855  0.2656  0.4861
    6MOL   C383 5793   3.010   6.220   0.842 -0.0961 -0.3863  0.4901
    6MOL   S384 5794   2.853   6.230   0.758 -0.1447  0.0715  0.0156
    6MOL   O385 5795   2.816   6.375   0.755  0.3831  0.7564 -0.0377
    6MOL   O386 5796   2.755   6.129   0.807  0.5196  0.1637  0.5838
    6MOL   C387 5797   2.897   6.185   0.593 -0.3898 -0.2850  0.1083
    6MOL   C388 5798   2.813   6.095   0.527  0.4654 -0.2345 -0.0912
    6MOL   C389 5799   2.837   6.064   0.390 -0.2077 -0.1233 -0.3724
    6MOL   C390 5800   2.957   6.106   0.326  0.2187  0.0575  0.3018
    6MOL   O391 5801   2.990   6.058   0.196  0.5295  0.1278 -0.2632
    6MOL   C392 5802   3.041   5.934   0.192 -0.3029 -0.0154  0.1179
    6MOL   C393 5803   2.974   5.825   0.130  0.3248 -0.6170  0.4222
    6MOL   C394 5804   3.024   5.697   0.150  0.2390 -0.2361  0.0621
    6MOL   C395 5805   3.134   5.665   0.234 -0.7592  0.4627 -0.6311
    6MOL   C396 5806   3.158   5.519   0.271  0.2777 -0.1870 -0.5244
    6MOL   C397 5807   3.178   5.439   0.142  0.3688 -0.1852  0.3233
    6MOL   C398 5808   3.286   5.494   0.342 -0.7063 -0.1052  0.2583
    6MOL   C399 5809   3.035   5.474   0.354  0.2759  0.1228 -0.1624
    6MOL   C400 5810   2.995   5.550   0.464  0.4873  0.3780  0.2549
    6MOL   C401 5811   2.879   5.523   0.536 -0.0732 -0.3332 -0.1685
    6MOL   C402 5812   2.807   5.404   0.516  0.1858  0.6770  0.5361
    6MOL   O403 5813   2.715   5.367   0.603 -0.2803 -0.2490 -0.4819
    6MOL   C404 5814   2.843   5.321   0.409 -0.4473  0.1839  0.0935
    6MOL   C405 5815   2.954   5.360   0.328 -0.5059 -0.4642  0.4031
    6MOL   C406 5816   3.201   5.775   0.296  1.0708  0.1805 -0.3318
    6MOL   C407 5817   3.157   5.910   0.273 -0.5757 -0.5468  0.1418
    6MOL   C408 5818   3.048   6.189   0.398 -0.9088  0.6100 -0.2154
    6MOL   C409 5819   3.014   6.227   0.529  0.4839 -0.0321 -0.2502
    6MOL   C410 5820   3.071   6.341   0.889  0.6189  0.3288 -0.4543
    6MOL   C411 5821   3.199   6.332   0.943  0.0252  0.0234  0.5577
    6MOL   H412 5822   3.239   5.985   0.928 -0.1792 -0.1261 -0.1384
    6MOL   H413 5823   3.027   6.009   0.819  0.9234  0.8033 -2.2410
    6MOL   H414 5824   2.730   6.055   0.583 -0.8294  1.6266 -0.6285
    6MOL   H415 5825   2.775   5.989   0.343 -0.9980  0.8275 -0.8907
    6MOL   H416 5826   2.890   5.856   0.070  0.3967 -2.7889 -0.8638
    6MOL   H417 5827   2.960   5.620   0.111 -1.4476  1.6799 -1.0738
    6MOL   H418 5828   3.247   5.503   0.087 -0.4570 -0.4004 -1.0019
    6MOL   H419 5829   3.085   5.432   0.084  0.9713 -0.1640 -0.6670
    6MOL   H420 5830   3.215   5.337   0.151 -0.1772 -0.3328  0.9577
    6MOL   H421 5831   3.376   5.530   0.292  0.2634  0.5536  2.4413
    6MOL   H422 5832   3.267   5.541   0.438 -0.2544 -0.3870  0.4890
    6MOL   H423 5833   3.299   5.387   0.359 -0.2185  0.1541  1.5715
    6MOL   H424 5834   3.047   5.642   0.486 -0.9893  0.8275  2.0850
    6MOL   H425 5835   2.850   5.599   0.607  1.3273  1.2670 -1.2843
    6MOL   H426 5836   2.794   5.226   0.396  1.3626 -0.2990 -4.1319
    6MOL   H427 5837   2.998   5.291   0.257  0.9787  1.8718 -1.0138
    6MOL   H428 5838   3.279   5.756   0.368 -0.4827 -1.1432  1.0354
    6MOL   H429 5839   3.205   5.999   0.310 -0.0856 -0.8278  0.1924
    6MOL   H430 5840   3.146   6.215   0.360 -0.4687 -0.9389 -0.1610
    6MOL   H431 5841   3.080   6.297   0.579  2.5831 -2.8449  1.0243
    6MOL   H432 5842   3.017   6.433   0.873  2.5364  1.1409 -2.6339
    6MOL   H433 5843   3.262   6.415   0.971 -1.4275  1.6929 -1.0181
    6MOL   C434 5844   2.761   5.288   0.704 -0.1387 -0.4686  0.2388
    6MOL   C435 5845   2.852   5.335   0.796 -0.0980 -0.0973  0.0215
    6MOL   C436 5846   2.905   5.246   0.896 -0.5991  0.2285  0.1425
    6MOL   C437 5847   2.873   5.106   0.900 -0.2240  0.4701 -0.2448
    6MOL   S438 5848   2.944   5.009   1.024 -0.0192  0.3515 -0.1212
    6MOL   O439 5849   3.026   5.098   1.111  0.3050  0.0173  0.0098
    6MOL   O440 5850   3.002   4.894   0.958 -0.2539 -0.0456 -0.3366
    6MOL   C441 5851   2.815   4.949   1.119  0.6631 -0.1830  0.2586
    6MOL   C442 5852   2.828   4.818   1.164  1.0305  0.1057 -0.3777
    6MOL   C443 5853   2.723   4.758   1.240 -0.8069  0.0892 -0.6679
    6MOL   C444 5854   2.606   4.828   1.258 -0.1483 -0.5431 -0.6995
    6MOL   O445 5855   2.507   4.776   1.337  0.1744 -0.3445 -0.0640
    6MOL   C446 5856   2.422   4.688   1.273  0.0213  1.0298  0.2029
    6MOL   C447 5857   2.321   4.737   1.185 -0.0539 -0.4430 -0.1645
    6MOL   C448 5858   2.245   4.649   1.115  0.2021  0.0225  0.5004
    6MOL   C449 5859   2.241   4.512   1.158 -1.1154  0.1164  0.2247
    6MOL   C450 5860   2.135   4.408   1.110  0.2968  0.5683 -0.0655
    6MOL   C451 5861   2.045   4.388   1.225  0.6998  0.1546  0.2636
    6MOL   C452 5862   2.052   4.462   0.991  0.1774  0.8970 -0.2200
    6MOL   C453 5863   2.205   4.279   1.061 -0.1957 -0.4059 -0.1624
    6MOL   C454 5864   2.310   4.294   0.964 -0.1176  0.1458 -0.8499
    6MOL   C455 5865   2.374   4.186   0.903  0.2457 -0.0293 -0.3607
    6MOL   C456 5866   2.336   4.057   0.943 -0.6808 -0.0753  0.3643
    6MOL   O457 5867   2.391   3.944   0.887 -1.1063  0.1475 -0.1446
    6MOL   C458 5868   2.239   4.043   1.044  0.3265  0.3390  0.6661
    6MOL   C459 5869   2.172   4.150   1.102 -0.4782  0.1857  0.8532
    6MOL   C460 5870   2.335   4.467   1.256  0.1279  0.4818 -0.5202
    6MOL   C461 5871   2.431   4.549   1.301 -0.3795 -0.5313 -0.0060
    6MOL   C462 5872   2.603   4.961   1.224 -0.0691 -0.0596  0.5232
    6MOL   C463 5873   2.711   5.026   1.157  0.0524  0.8500 -0.2087
    6MOL   C464 5874   2.790   5.059   0.802 -0.1426  0.4266  0.2118
    6MOL   C465 5875   2.730   5.150   0.707  0.6872 -0.0548  0.6932
    6MOL   H466 5876   2.886   5.437   0.799 -0.2122 -0.0225 -1.2312
    6MOL   H467 5877   2.980   5.288   0.963 -1.2619  1.9381 -0.1481
    6MOL   H468 5878   2.916   4.759   1.146  2.2712  1.3852  1.2674
    6MOL   H469 5879   2.725   4.654   1.270 -2.5688 -0.2165 -1.5644
    6MOL   H470 5880   2.312   4.843   1.164  0.3664  0.1670  2.5488
    6MOL   H471 5881   2.179   4.701   1.047  0.5577  2.3579  1.9217
    6MOL   H472 5882   1.982   4.473   1.253 -0.5331 -0.7184  0.1722
    6MOL   H473 5883   2.091   4.354   1.318  1.6111 -2.0165 -0.9454
    6MOL   H474 5884   1.965   4.317   1.204  0.6349 -0.5152  2.6022
    6MOL   H475 5885   2.115   4.477   0.903 -1.6204 -0.4511 -1.7732
    6MOL   H476 5886   1.979   4.392   0.951  0.2943  1.6795 -1.8598
    6MOL   H477 5887   2.012   4.562   1.011  1.8848  1.7209 -0.7713
    6MOL   H478 5888   2.352   4.385   0.923 -0.3188  0.5065 -0.2614
    6MOL   H479 5889   2.455   4.210   0.837  1.7552 -0.6609  1.2208
    6MOL   H480 5890   2.214   3.945   1.083  0.3533 -1.4453 -3.5132
    6MOL   H481 5891   2.085   4.140   1.166 -2.3430  1.6576 -1.3557
    6MOL   H482 5892   2.333   4.361   1.279 -2.2703  0.7653  0.7152
    6MOL   H483 5893   2.509   4.517   1.369 -0.9047 -1.2733  0.2512
    6MOL   H484 5894   2.515   5.022   1.241 -1.2697 -1.0023 -2.0987
    6MOL   H485 5895   2.708   5.133   1.143 -0.5097  0.9408  0.5588
    6MOL   H486 5896   2.757   4.957   0.805 -0.3776  0.5220  0.9658
    6MOL   H487 5897   2.653   5.105   0.646  0.7128  0.3575  0.3522
    6MOL   C488 5898   2.515   3.946   0.834 -0.5789  0.1397  0.6813
    6MOL   C489 5899   2.532   3.885   0.705  0.2566 -0.1362 -0.0175
    6MOL   C490 5900   2.661   3.871   0.649 -0.7996  0.2262 -0.4728
    6MOL   C491 5901   2.764   3.936   0.714  0.2643 -0.3777  0.4004
    6MOL   S492 5902   2.917   3.943   0.627  0.3840  0.2096  0.0287
    6MOL   O493 5903   3.008   4.021   0.708 -0.0318  0.2024 -0.0032
    6MOL   O494 5904   2.890   3.985   0.489  0.3358 -0.0944 -0.1978
    6MOL   C495 5905   2.975   3.778   0.620  0.1212  0.2357  0.2945
    6MOL   C496 5906   3.063   3.726   0.722  0.5618 -0.4223 -0.2399
    6MOL   C497 5907   3.109   3.594   0.698  0.2878 -0.0395  0.1969
    6MOL   C498 5908   3.088   3.531   0.576  0.4033  0.5566  0.2656
    6MOL   O499 5909   3.158   3.415   0.549 -0.4076 -0.4550 -0.4955
    6MOL   C500 5910   3.252   3.405   0.447 -0.3794  0.2323  0.2874
    6MOL   C501 5911   3.301   3.514   0.375  0.3377  0.2915  0.0241
    6MOL   C502 5912   3.394   3.495   0.268 -0.0016 -0.3633 -0.1530
    6MOL   C503 5913   3.440   3.368   0.232  0.0852  0.3178  0.3331
    6MOL   C504 5914   3.559   3.355   0.136 -0.7122 -0.4927  0.5120
    6MOL   C505 5915   3.568   3.213   0.080 -0.7257 -0.6990  0.0344
    6MOL   C506 5916   3.540   3.445   0.010  0.1742 -0.2177 -0.0074
    6MOL   C507 5917   3.682   3.390   0.214 -0.0759  0.3026 -0.1137
    6MOL   C508 5918   3.771   3.497   0.179  0.2727  0.0473  0.7249
    6MOL   C509 5919   3.890   3.531   0.250 -1.2642 -0.4281  0.7558
    6MOL   C510 5920   3.919   3.457   0.366  0.2979 -0.8357  0.0208
    6MOL   O511 5921   4.021   3.517   0.434 -0.3768  0.3766  0.4639
    6MOL   C512 5922   3.837   3.352   0.405  0.1063  0.2091 -0.1206
    6MOL   C513 5923   3.718   3.319   0.332 -0.4385 -0.2653  0.4190
    6MOL   C514 5924   3.387   3.257   0.302  0.3223 -0.0242 -0.3497
    6MOL   C515 5925   3.284   3.275   0.400 -0.0962  0.2919  0.2414
    6MOL   C516 5926   2.998   3.587   0.482  1.0648  0.6213  0.1374
    6MOL   C517 5927   2.928   3.703   0.509  0.3168  0.3287 -0.5975
    6MOL   C518 5928   2.748   4.008   0.830 -0.0173 -0.1790  0.4786
    6MOL   C519 5929   2.628   4.008   0.899  0.6834 -0.7470 -0.1393
    6MOL   H520 5930   2.450   3.836   0.655  1.7504 -2.3305 -0.4278
    6MOL   H521 5931   2.658   3.820   0.555 -1.0270 -0.1782 -0.2478
    6MOL   H522 5932   3.085   3.785   0.809 -1.8650  0.3534 -0.0959
    6MOL   H523 5933   3.172   3.543   0.769  2.2742 -0.0613 -1.5368
    6MOL   H524 5934   3.272   3.614   0.404 -2.1109 -0.4658  0.2474
    6MOL   H525 5935   3.436   3.585   0.226 -1.5142  0.2496 -0.3826
    6MOL   H526 5936   3.595   3.150   0.165 -1.1862  1.9577  2.1997
    6MOL   H527 5937   3.643   3.209   0.000  0.7734  0.2224  1.3688
    6MOL   H528 5938   3.467   3.190   0.045 -1.1312 -0.6626  1.1755
    6MOL   H529 5939   3.455   3.414   8.203  1.0430 -1.5585 -0.5632
    6MOL   H530 5940   3.519   3.551   0.028 -0.0154 -0.2457 -0.0612
    6MOL   H531 5941   3.624   3.443   8.194 -0.3497 -0.1509 -0.6438
    6MOL   H532 5942   3.758   3.562   0.093 -0.1954 -0.5944  0.3137
    6MOL   H533 5943   3.953   3.606   0.206 -2.8373  0.1164 -0.6410
    6MOL   H534 5944   3.858   3.302   0.498 -1.5776  1.0801  0.7457
    6MOL   H535 5945   3.649   3.247   0.374 -0.9826  0.9458  1.6763
    6MOL   H536 5946   3.410   3.157   0.270  1.1698 -0.6224  2.0220
    6MOL   H537 5947   3.241   3.189   0.450 -1.3785  0.9030  0.2303
    6MOL   H538 5948   2.992   3.553   0.379 -1.8800  0.3426  0.3590
    6MOL   H539 5949   2.873   3.755   0.432 -0.7951 -3.0913 -2.2077
    6MOL   H540 5950   2.834   4.048   0.881  1.9195 -4.5755  0.8585
    6MOL   H541 5951   2.627   4.051   0.998 -5.1951 -0.4270 -0.1455
    6MOL   C542 5952   4.031   3.481   0.571 -0.1797 -0.5155  0.2722
    6MOL   C543 5953   3.968   3.571   0.665  0.6444 -0.5492 -0.1060
    6MOL   C544 5954   3.996   3.559   0.806  0.4370 -0.4869  1.1098
    6MOL   C545 5955   4.069   3.445   0.852 -0.8801 -0.3402  0.5208
    6MOL   S546 5956   4.110   3.419   1.023 -0.1860  0.2991  0.2802
    6MOL   O547 5957   4.129   3.275   1.037 -0.8934 -0.2002 -0.5839
    6MOL   O548 5958   4.018   3.490   1.111 -0.2354 -0.4609  0.2560
    6MOL   C549 5959   4.268   3.496   1.045  0.0024  0.8965 -0.0865
    6MOL   C550 5960   4.347   3.547   0.946 -0.3963 -0.2669 -0.7446
    6MOL   C551 5961   4.465   3.613   0.981  0.2720  0.2475 -0.2535
    6MOL   C552 5962   4.514   3.618   1.115  0.4213 -0.3773 -0.0200
    6MOL   O553 5963   4.629   3.678   1.142 -0.7012 -0.0905  0.6658
    6MOL   C554 5964   4.615   3.813   1.174  0.0764 -0.0860  0.1446
    6MOL   C555 5965   4.603   3.857   1.306 -0.1229 -0.4517  0.1884
    6MOL   C556 5966   4.579   3.994   1.341  0.0778  0.3641 -1.2752
    6MOL   C557 5967   4.580   4.088   1.236  0.3126  0.3017 -0.2540
    6MOL   C558 5968   4.539   4.231   1.272  0.1142  0.1715  0.2111
    6MOL   C559 5969   4.511   4.306   1.135  0.7417 -0.2899  0.5885
    6MOL   C560 5970   4.398   4.225   1.347  0.6396 -0.5584 -0.0807
    6MOL   C561 5971   4.641   4.309   1.354 -0.6287 -0.4822 -0.2662
    6MOL   C562 5972   4.771   4.253   1.376 -0.4421 -0.0181 -0.5397
    6MOL   C563 5973   4.868   4.328   1.443 -0.2966  0.2534  0.1740
    6MOL   C564 5974   4.837   4.452   1.494 -0.7107 -0.2695  0.6020
    6MOL   O565 5975   4.926   4.518   1.571  0.2585 -0.1063  0.2287
    6MOL   C566 5976   4.709   4.504   1.478 -0.0000  0.4197  0.0708
    6MOL   C567 5977   4.609   4.437   1.405 -0.3847  0.0091  0.7116
    6MOL   C568 5978   4.615   4.045   1.105  0.4201  0.6214 -0.0096
    6MOL   C569 5979   4.626   3.909   1.072  0.0104 -0.5519 -0.6619
    6MOL   C570 5980   4.437   3.566   1.215  0.4851 -0.2608 -0.2086
    6MOL   C571 5981   4.314   3.511   1.184  0.0360 -0.3151 -0.2382
    6MOL   C572 5982   4.113   3.350   0.759 -0.2437 -0.7064  0.1002
    6MOL   C573 5983   4.096   3.368   0.622  0.1704  0.1619  0.5287
    6MOL   H574 5984   3.908   3.656   0.640  0.5231 -0.5357  0.2267
    6MOL   H575 5985   3.963   3.639   0.871 -0.7071  0.4919 -0.6438
    6MOL   H576 5986   4.321   3.541   0.841 -0.0323 -0.2429 -0.8340
    6MOL   H577 5987   4.527   3.660   0.905  0.3695  1.2418  0.4296
    6MOL   H578 5988   4.604   3.783   1.384 -0.2488  0.7033  1.3031
    6MOL   H579 5989   4.547   4.010   1.443  0.1750 -0.2605 -1.1484
    6MOL   H580 5990   4.433   4.260   1.075  1.3747  0.9683 -1.2718
    6MOL   H581 5991   4.604   4.317   1.079  0.4134  0.3388  0.1563
    6MOL   H582 5992   4.476   4.407   1.157 -1.5533 -0.9997  0.2806
    6MOL   H583 5993   4.339   4.317   1.342 -0.0137 -0.8706  1.4905
    6MOL   H584 5994   4.339   4.141   1.311  0.4675 -0.0225 -1.0727
    6MOL   H585 5995   4.407   4.208   1.454  2.9858 -0.0086 -0.1648
    6MOL   H586 5996   4.799   4.158   1.334 -1.6466 -1.0305  0.8838
    6MOL   H587 5997   4.965   4.282   1.451  0.5371  2.2504  2.2995
    6MOL   H588 5998   4.682   4.603   1.512 -1.1123  0.8792 -2.0117
    6MOL   H589 5999   4.517   4.489   1.382 -0.2358 -0.6503 -1.3968
    6MOL   H590 6000   4.624   4.105   1.015 -0.1868 -1.1620 -1.2760
    6MOL   H591 6001   4.652   3.883   0.971 -1.2561 -1.6670 -0.7168
    6MOL   H592 6002   4.474   3.572   1.316  1.2076 -0.6408 -0.4512
    6MOL   H593 6003   4.250   3.478   1.263 -0.0202 -1.8549 -0.9069
    6MOL   H594 6004   4.175   3.269   0.795 -1.0479 -1.0864  0.6629
    6MOL   H595 6005   4.152   3.310   0.550 -0.4097  1.3305 -0.8699
    6MOL   C596 6006   4.928   4.656   1.578 -0.7842  0.8580 -0.0235
    6MOL   C597 6007   4.901   4.716   1.701  0.5853 -0.4656 -0.0157
    6MOL   C598 6008   4.919   4.850   1.724  0.6427  0.2255 -0.2062
    6MOL   C599 6009   4.957   4.936   1.621 -0.6662  0.3579 -0.1369
    6MOL   S600 6010   4.987   5.108   1.642 -0.0507 -0.4082 -0.0516
    6MOL   O601 6011   4.870   5.168   1.700 -0.4904  0.3237  0.1808
    6MOL   O602 6012   5.041   5.159   1.520 -0.3197  0.5544  0.2960
    6MOL   C603 6013   5.119   5.116   1.766 -0.8909  0.8479  0.1738
    6MOL   C604 6014   5.254   5.122   1.732 -0.1638 -0.6407 -0.1191
    6MOL   C605 6015   5.350   5.116   1.837  0.1422  0.2364 -0.0230
    6MOL   C606 6016   5.303   5.111   1.973  0.1416 -0.4111 -0.7603
    6MOL   O607 6017   5.394   5.116   2.081 -0.5552 -0.3732 -0.5725
    6MOL   C608 6018   5.431   5.243   2.124  0.0646 -0.6547 -0.5876
    6MOL   C609 6019   5.569   5.287   2.128  0.1754 -0.1453 -0.2226
    6MOL   C610 6020   5.606   5.416   2.180 -0.3881 -0.4051 -1.3861
    6MOL   C611 6021   5.508   5.504   2.225 -0.1110  0.6109 -0.3361
    6MOL   C612 6022   5.532   5.642   2.281 -0.2562 -0.0317 -0.2613
    6MOL   C613 6023   5.491   5.630   2.431  0.5822  0.4175 -0.5359
    6MOL   C614 6024   5.687   5.687   2.281 -0.1776 -0.0636 -0.2593
    6MOL   C615 6025   5.462   5.752   2.199  0.0370  0.8801  0.0532
    6MOL   C616 6026   5.376   5.846   2.250 -0.2081  0.0911  0.7329
    6MOL   C617 6027   5.330   5.949   2.166  0.4656 -0.2032  0.0450
    6MOL   C618 6028   5.367   5.965   2.033 -0.6125 -0.0848 -0.2068
    6MOL   O619 6029   5.312   6.064   1.955  0.1912 -0.0337  0.3522
    6MOL   C620 6030   5.445   5.864   1.979 -0.0084 -0.1307 -0.2183
    6MOL   C621 6031   5.491   5.759   2.060 -0.2176 -0.1246  0.5545
    6MOL   C622 6032   5.376   5.471   2.209 -0.1149  0.4213 -1.0172
    6MOL   C623 6033   5.337   5.338   2.166 -0.2998  0.4075 -0.4238
    6MOL   C624 6034   5.163   5.109   1.994  0.5515  0.5019 -0.3297
    6MOL   C625 6035   5.070   5.109   1.892  0.7073  0.8806 -0.2342
    6MOL   C626 6036   4.979   4.883   1.490 -0.1452  0.2406  0.1826
    6MOL   C627 6037   4.967   4.744   1.472  0.2360 -0.0126 -0.7097
    6MOL   H628 6038   4.871   4.663   1.790  1.9882  1.1318  1.4491
    6MOL   H629 6039   4.887   4.888   1.820  0.4252 -0.5782  0.0410
    6MOL   H630 6040   5.286   5.138   1.630 -0.5056 -0.0552 -0.1379
    6MOL   H631 6041   5.456   5.125   1.818  0.2301  0.3548  0.5271
    6MOL   H632 6042   5.640   5.215   2.089 -0.4718 -0.2151 -1.2889
    6MOL   H633 6043   5.710   5.427   2.206 -0.7486 -0.1568 -0.0128
    6MOL   H634 6044   5.555   5.561   2.487  0.2328 -1.1993 -2.0790
    6MOL   H635 6045   5.392   5.586   2.440  1.1660 -0.8325  0.0004
    6MOL   H636 6046   5.499   5.727   2.480  0.4572  0.2599 -0.2005
    6MOL   H637 6047   5.708   5.785   2.324 -0.3884 -1.0009  2.0889
    6MOL   H638 6048   5.747   5.607   2.324  0.1518 -0.1845 -0.9407
    6MOL   H639 6049   5.712   5.694   2.175  0.5054  0.6064 -0.0596
    6MOL   H640 6050   5.352   5.854   2.355  1.7209 -0.0768  1.1983
    6MOL   H641 6051   5.267   6.031   2.199 -1.3622 -1.4953 -0.1381
    6MOL   H642 6052   5.466   5.848   1.874 -1.6905  0.0724 -0.5941
    6MOL   H643 6053   5.555   5.683   2.016 -2.0087 -1.3123 -0.0388
    6MOL   H644 6054   5.297   5.538   2.239  1.4100  1.6093  0.4114
    6MOL   H645 6055   5.234   5.308   2.174 -0.4886  1.9746  4.0806
    6MOL   H646 6056   5.124   5.112   2.095 -3.4488 -0.7015 -1.7421
    6MOL   H647 6057   4.963   5.107   1.910  0.2647 -0.2006 -2.8265
    6MOL   H648 6058   5.006   4.938   1.401 -3.3794 -1.1565 -1.7578
    6MOL   H649 6059   4.989   4.712   1.370  0.3765 -0.5539 -0.5143
    6MOL   C650 6060   5.193   6.050   1.891  0.5688  0.1161  0.8860
    6MOL   C651 6061   5.125   6.165   1.846  0.1374 -0.3374 -0.0009
    6MOL   C652 6062   5.003   6.147   1.774  0.5677  0.5522  0.1761
    6MOL   C653 6063   4.948   6.014   1.749 -0.1835  0.3988 -0.8087
    6MOL   S654 6064   4.788   6.004   1.670 -0.1924 -0.1537  0.2809
    6MOL   O655 6065   4.701   6.079   1.760 -0.4321  0.4370 -1.1412
    6MOL   O656 6066   4.758   5.867   1.643  0.1478  0.2924  0.3341
    6MOL   C657 6067   4.802   6.092   1.517  0.0929  0.0520  0.2819
    6MOL   C658 6068   4.877   6.037   1.414 -0.0626 -0.2274  0.3433
    6MOL   C659 6069   4.903   6.115   1.299  0.1798 -0.5282 -0.6067
    6MOL   C660 6070   4.863   6.252   1.291 -0.0533 -0.3654 -0.1270
    6MOL   O661 6071   4.902   6.325   1.181 -0.3600  0.3613  0.1527
    6MOL   C662 6072   4.919   6.453   1.209  0.2441  0.1239 -0.1801
    6MOL   C663 6073   4.813   6.538   1.186 -0.9033 -0.3200  0.1268
    6MOL   C664 6074   4.826   6.677   1.211  0.2538 -0.0928 -0.0373
    6MOL   C665 6075   4.949   6.725   1.272 -0.2319 -0.1084  0.1585
    6MOL   C666 6076   4.971   6.881   1.281  0.8452 -0.5866  0.9872
    6MOL   C667 6077   4.831   6.952   1.306  0.0436  0.0474 -0.2419
    6MOL   C668 6078   5.053   6.908   1.409 -0.1299  0.1419 -0.6619
    6MOL   C669 6079   5.032   6.943   1.152  0.0334 -0.3046 -0.9652
    6MOL   C670 6080   5.043   7.083   1.138  0.0416 -0.4498 -0.0097
    6MOL   C671 6081   5.080   7.145   1.015 -0.2320  0.2090 -0.1881
    6MOL   C672 6082   5.145   7.064   0.921 -0.1620  0.1325 -0.5455
    6MOL   O673 6083   5.211   7.119   0.817 -0.5765  0.4073 -0.2314
    6MOL   C674 6084   5.152   6.924   0.947  0.1973 -0.1096 -0.1799
    6MOL   C675 6085   5.089   6.864   1.053  0.6649 -0.6346 -0.2917
    6MOL   C676 6086   5.056   6.634   1.308  0.2538  0.3367  0.3612
    6MOL   C677 6087   5.032   6.498   1.282 -0.4362  0.5453  0.4297
    6MOL   C678 6088   4.783   6.305   1.397 -0.3323  0.2038  0.0114
    6MOL   C679 6089   4.755   6.223   1.510  0.0608  0.2409  0.1636
    6MOL   C680 6090   5.008   5.904   1.816 -0.2141 -0.2021  0.0435
    6MOL   C681 6091   5.134   5.922   1.882  0.2280  0.5278  0.4916
    6MOL   H682 6092   5.176   6.260   1.845 -0.2566 -0.1373 -0.7890
    6MOL   H683 6093   4.945   6.234   1.747 -0.3362 -0.0787  0.0428
    6MOL   H684 6094   4.915   5.938   1.433  2.3975 -0.1213 -3.5536
    6MOL   H685 6095   4.961   6.073   1.218  1.2025 -2.3709  1.0572
    6MOL   H686 6096   4.728   6.485   1.146 -1.2070  1.6922 -1.9817
    6MOL   H687 6097   4.744   6.743   1.189  0.8976  1.0908  1.0411
    6MOL   H688 6098   4.840   7.058   1.331 -0.4130 -0.0613  0.4122
    6MOL   H689 6099   4.781   6.907   1.392 -0.3897 -0.1012 -0.5656
    6MOL   H690 6100   4.763   6.952   1.220  1.1643 -0.6740 -1.1526
    6MOL   H691 6101   5.020   6.848   1.493 -1.6312  0.9372 -0.6685
    6MOL   H692 6102   5.156   6.871   1.404 -0.3365 -0.8169  1.7836
    6MOL   H693 6103   5.047   7.015   1.427 -4.3125 -0.0740 -0.1928
    6MOL   H694 6104   5.017   7.146   1.222  0.7466 -2.9362  2.1309
    6MOL   H695 6105   5.087   7.252   1.003  0.4634  0.0027 -1.7755
    6MOL   H696 6106   5.195   6.857   0.875  0.7308  0.8261 -0.7347
    6MOL   H697 6107   5.079   6.757   1.059 -0.8965 -0.7014 -3.3383
    6MOL   H698 6108   5.141   6.666   1.367  0.3674 -0.4697  0.6459
    6MOL   H699 6109   5.103   6.424   1.316 -0.5582  0.0280 -0.4048
    6MOL   H700 6110   4.764   6.411   1.404 -4.1267 -0.2955 -1.5094
    6MOL   H701 6111   4.708   6.267   1.597  0.1944  0.2868  0.2135
    6MOL   H702 6112   4.964   5.807   1.800 -0.6470  0.0338 -0.1897
    6MOL   H703 6113   5.185   5.831   1.909 -2.7187 -1.4987 -0.4665
    6MOL   C704 6114   5.274   7.048   0.721  0.1510 -0.3353  0.1262
    6MOL   C705 6115   5.207   7.013   0.602 -1.0218  0.3797  0.2605
    6MOL   C706 6116   5.282   6.954   0.491  0.1579 -0.4480  0.6181
    6MOL   C707 6117   5.416   6.919   0.510  0.2204 -1.0272 -0.2480
    6MOL   S708 6118   5.517   6.842   0.384 -0.1066 -0.0452  0.0823
    6MOL   O709 6119   5.643   6.913   0.378 -0.0637  0.0512 -0.6259
    6MOL   O710 6120   5.437   6.838   0.259 -0.1530 -0.5002 -0.3369
    6MOL   C711 6121   5.549   6.674   0.443  0.8624 -0.1305 -0.5996
    6MOL   C712 6122   5.662   6.646   0.514 -0.5226  0.0084 -0.0206
    6MOL   C713 6123   5.692   6.517   0.559 -0.1005  0.1302 -0.4742
    6MOL   C714 6124   5.612   6.417   0.526  0.5388  0.2558  0.4535
    6MOL   O715 6125   5.638   6.287   0.560  0.1439  0.4843 -0.0966
    6MOL   C716 6126   5.767   6.250   0.536  0.1012 -0.7409  0.1233
    6MOL   C717 6127   5.823   6.255   0.407 -0.2854  0.2231 -0.0738
    6MOL   C718 6128   5.958   6.235   0.387  0.2951  0.0273  0.1970
    6MOL   C719 6129   6.047   6.210   0.491  0.7424 -0.3974 -0.0243
    6MOL   C720 6130   6.196   6.203   0.460  0.0702 -0.1834  0.1182
    6MOL   C721 6131   6.228   6.344   0.399 -0.1430  0.0831  1.3340
    6MOL   C722 6132   6.282   6.177   0.584 -0.1281 -0.0103 -0.2290
    6MOL   C723 6133   6.222   6.089   0.361 -0.7537 -0.1609  0.2031
    6MOL   C724 6134   6.293   6.101   0.240 -0.2438 -0.1964 -0.6652
    6MOL   C725 6135   6.324   5.994   0.153 -0.0161 -0.7394 -0.3505
    6MOL   C726 6136   6.256   5.870   0.168  0.8260 -0.6584  0.3138
    6MOL   O727 6137   6.264   5.775   0.071 -0.6375  0.2848 -0.0592
    6MOL   C728 6138   6.187   5.852   0.286 -0.0626  0.2497  0.0446
    6MOL   C729 6139   6.171   5.958   0.379  0.7684 -0.3878 -1.1665
    6MOL   C730 6140   5.987   6.197   0.624  0.0416 -0.0732  0.2919
    6MOL   C731 6141   5.852   6.217   0.644  0.7401  1.1007  0.5579
    6MOL   C732 6142   5.497   6.439   0.446  0.7533 -0.2525 -0.0390
    6MOL   C733 6143   5.463   6.569   0.404  0.2172 -0.0685 -0.7238
    6MOL   C734 6144   5.478   6.947   0.630 -0.2742 -0.0434  0.2139
    6MOL   C735 6145   5.413   7.016   0.738 -0.2214 -0.9513 -0.2105
    6MOL   H736 6146   5.106   7.046   0.579 -0.6674  0.6154 -1.0098
    6MOL   H737 6147   5.235   6.957   0.395 -0.2038  2.9999  0.8560
    6MOL   H738 6148   5.729   6.730   0.526  0.1629 -0.2568 -1.8185
    6MOL   H739 6149   5.786   6.506   0.611 -0.9247  0.7112  1.1886
    6MOL   H740 6150   5.759   6.282   0.325 -1.3499 -1.6597  0.1146
    6MOL   H741 6151   5.997   6.248   0.287 -0.3406  1.8575  0.1718
    6MOL   H742 6152   6.188   6.427   0.458 -0.5301  0.0818  1.0685
    6MOL   H743 6153   6.192   6.366   0.299 -2.0004 -2.2679  1.4339
    6MOL   H744 6154   6.334   6.364   0.412  0.0039  0.6365 -0.6209
    6MOL   H745 6155   6.251   6.245   0.663 -1.9880  1.1710 -1.9168
    6MOL   H746 6156   6.257   6.078   0.624 -2.5165  0.4180 -0.6047
    6MOL   H747 6157   6.390   6.182   0.566 -0.0588  2.3763  0.7567
    6MOL   H748 6158   6.340   6.197   0.221  1.1744 -0.8639 -0.6219
    6MOL   H749 6159   6.383   6.012   0.064 -0.2308 -1.7176 -0.7001
    6MOL   H750 6160   6.138   5.759   0.310  4.3724 -2.3378 -0.2770
    6MOL   H751 6161   6.107   5.950   0.465  2.3079 -4.2858 -0.2903
    6MOL   H752 6162   6.041   6.162   0.711 -2.3757 -2.4891  0.8900
    6MOL   H753 6163   5.818   6.216   0.747  0.8381 -0.1533  0.5853
    6MOL   H754 6164   5.441   6.352   0.416  1.7319 -1.1408  0.6324
    6MOL   H755 6165   5.385   6.590   0.333 -0.3104  0.2889 -0.0518
    6MOL   H756 6166   5.581   6.920   0.644 -0.3582  0.3652  1.6680
    6MOL   H757 6167   5.476   7.048   0.819  0.0075  2.0672 -1.5087
    6MOL   C758 6168   6.330   5.660   0.113 -0.5947  0.2427 -0.3059
    6MOL   C759 6169   6.439   5.659   0.200  0.1958 -0.1433  0.2789
    6MOL   C760 6170   6.504   5.540   0.231 -0.2713 -0.1937  0.1506
    6MOL   C761 6171   6.450   5.413   0.190  1.1875 -0.3245 -0.3018
    6MOL   S762 6172   6.544   5.274   0.241  0.0748 -0.0045  0.0498
    6MOL   O763 6173   6.655   5.259   0.149  0.0640  0.2605  0.5597
    6MOL   O764 6174   6.449   5.160   0.254 -0.1400 -0.3516 -0.0296
    6MOL   C765 6175   6.610   5.305   0.404  0.6549 -0.1959  0.1530
    6MOL   C766 6176   6.526   5.317   0.518 -0.6111 -0.4887  0.2600
    6MOL   C767 6177   6.576   5.339   0.646  0.2159  0.0257 -0.0419
    6MOL   C768 6178   6.713   5.362   0.667  0.2926 -0.8433 -0.4885
    6MOL   O769 6179   6.757   5.404   0.784  0.3502  0.3797 -0.3605
    6MOL   C770 6180   6.768   5.302   0.881  0.4814 -0.1784  0.6555
    6MOL   C771 6181   6.874   5.208   0.872  0.0171  0.6030  0.5657
    6MOL   C772 6182   6.894   5.117   0.975 -0.1832  0.5911 -0.0739
    6MOL   C773 6183   6.800   5.110   1.085 -0.4973 -0.0774  0.7038
    6MOL   C774 6184   6.820   5.015   1.201 -0.1367  1.1283 -0.0668
    6MOL   C775 6185   6.966   5.009   1.246  1.2273 -0.8485 -0.4795
    6MOL   C776 6186   6.743   5.041   1.335 -0.2990  0.2084 -0.5734
    6MOL   C777 6187   6.778   4.879   1.148  0.0811 -0.3940 -0.2232
    6MOL   C778 6188   6.873   4.770   1.131  0.2597 -0.2244 -0.1029
    6MOL   C779 6189   6.837   4.644   1.071  0.4161  0.5070  0.0034
    6MOL   C780 6190   6.708   4.626   1.026 -0.6984  0.4571 -0.3979
    6MOL   O781 6191   6.687   4.515   0.949 -0.3347 -0.3073 -0.0445
    6MOL   C782 6192   6.610   4.732   1.044  0.3699  0.0758 -0.0771
    6MOL   C783 6193   6.647   4.854   1.102  0.1765 -0.1326 -0.7823
    6MOL   C784 6194   6.690   5.193   1.081  0.0385  0.2337  0.5322
    6MOL   C785 6195   6.681   5.295   0.984  0.0055 -0.3834  0.4152
    6MOL   C786 6196   6.801   5.342   0.555  0.1314 -0.3308 -0.2819
    6MOL   C787 6197   6.746   5.317   0.425 -0.2129 -0.5092 -0.5716
    6MOL   C788 6198   6.339   5.410   0.101  0.1500  0.2382  0.0720
    6MOL   C789 6199   6.283   5.532   0.063 -0.6952 -0.4564 -0.2111
    6MOL   H790 6200   6.482   5.749   0.240  1.3388 -1.1120  1.3028
    6MOL   H791 6201   6.590   5.552   0.295 -1.4877 -0.7230  1.9114
    6MOL   H792 6202   6.422   5.290   0.505 -0.8149  1.6241 -3.2381
    6MOL   H793 6203   6.516   5.344   0.736  1.0721  2.5998  0.4231
    6MOL   H794 6204   6.951   5.218   0.796  0.4706  1.0838  1.0847
    6MOL   H795 6205   6.981   5.053   0.973 -1.1219 -0.7775  1.5642
    6MOL   H796 6206   6.997   5.108   1.281 -1.1676  0.4852 -1.9936
    6MOL   H797 6207   7.047   4.980   1.180 -0.3430 -0.7745 -2.4970
    6MOL   H798 6208   6.974   4.935   1.325  0.5225 -1.6680 -1.1671
    6MOL   H799 6209   6.636   5.056   1.328 -0.2298  0.9013 -0.1667
    6MOL   H800 6210   6.748   4.952   1.398 -1.7965  0.8198  0.4170
    6MOL   H801 6211   6.785   5.127   1.387  0.1407 -1.0940  1.3249
    6MOL   H802 6212   6.973   4.770   1.171  0.4919  2.7798 -0.6049
    6MOL   H803 6213   6.911   4.567   1.056 -0.7093 -0.6389  0.2267
    6MOL   H804 6214   6.509   4.715   1.009  0.1894 -1.8866  1.2968
    6MOL   H805 6215   6.568   4.926   1.117  0.4151 -0.0123 -0.1024
    6MOL   H806 6216   6.612   5.192   1.156 -0.1788  1.1403  0.3291
    6MOL   H807 6217   6.599   5.365   0.986  1.3748  1.2036  1.5336
    6MOL   H808 6218   6.908   5.344   0.566  0.1359 -0.6851 -0.2657
    6MOL   H809 6219   6.811   5.295   0.341  1.6687 -1.4000  1.0840
    6MOL   H810 6220   6.312   5.314   0.060  2.8567 -1.2434  1.5678
    6MOL   H811 6221   6.210   5.518   8.238  2.6998 -2.3518 -3.2686
    6MOL   C812 6222   6.666   4.403   1.014 -0.1010  0.0434 -0.3321
    6MOL   C813 6223   6.535   4.348   1.028 -0.3730 -0.7263  0.0999
    6MOL   C814 6224   6.512   4.223   1.095  0.0694  0.6733 -0.9280
    6MOL   C815 6225   6.618   4.146   1.139 -0.2207 -0.3776 -0.2103
    6MOL   S816 6226   6.600   3.995   1.223  0.0971 -0.2152  0.2093
    6MOL   O817 6227   6.719   3.962   1.300 -0.0357 -0.2997 -0.5023
    6MOL   O818 6228   6.550   3.886   1.139  0.3007  0.3907 -0.4538
    6MOL   C819 6229   6.474   4.031   1.348  0.6139 -0.1735  0.1511
    6MOL   C820 6230   6.497   4.133   1.446  0.4357  0.0418 -0.1686
    6MOL   C821 6231   6.398   4.168   1.545  0.4423  0.1491  0.1892
    6MOL   C822 6232   6.267   4.103   1.534 -0.2865  0.5304  0.6772
    6MOL   O823 6233   6.161   4.139   1.617  0.3130 -0.2775 -0.1863
    6MOL   C824 6234   6.191   4.230   1.709  0.4146  0.4738  0.5226
    6MOL   C825 6235   6.160   4.363   1.690 -0.1555  0.4817 -0.0802
    6MOL   C826 6236   6.176   4.463   1.794  1.0830 -0.4487  0.4217
    6MOL   C827 6237   6.238   4.425   1.915  0.1971  0.2747  0.1225
    6MOL   C828 6238   6.247   4.527   2.039 -0.1919 -0.3148 -0.3933
    6MOL   C829 6239   6.320   4.466   2.159 -0.2433  0.0982  0.6891
    6MOL   C830 6240   6.323   4.659   1.993  0.1375  0.3613  0.6699
    6MOL   C831 6241   6.106   4.564   2.095  0.8486  0.0211  0.5875
    6MOL   C832 6242   5.995   4.484   2.068 -0.6089 -0.6777  0.1035
    6MOL   C833 6243   5.869   4.511   2.132 -0.8178 -0.6013 -0.0140
    6MOL   C834 6244   5.858   4.621   2.221  0.0724  0.4081  0.6374
    6MOL   O835 6245   5.738   4.639   2.285  0.4214  0.7596 -0.3826
    6MOL   C836 6246   5.972   4.706   2.240  0.1809  0.3239  0.4584
    6MOL   C837 6247   6.090   4.678   2.180  0.1852 -0.9753  0.3580
    6MOL   C838 6248   6.286   4.292   1.927 -0.6020  0.4741 -0.0399
    6MOL   C839 6249   6.252   4.191   1.835  0.0247 -0.5196  0.2200
    6MOL   C840 6250   6.250   4.005   1.435 -0.2377 -0.8214 -0.3237
    6MOL   C841 6251   6.344   3.974   1.341 -0.8353 -0.0220  1.0611
    6MOL   C842 6252   6.746   4.199   1.121  0.2809 -0.2540  0.1650
    6MOL   C843 6253   6.773   4.327   1.068 -0.0898  0.5873  0.3361
    6MOL   H844 6254   6.455   4.405   0.982 -0.3546 -0.5300  0.3091
    6MOL   H845 6255   6.412   4.183   1.096 -0.1671  1.2831  0.1548
    6MOL   H846 6256   6.589   4.189   1.445 -0.5111  1.6789  0.7594
    6MOL   H847 6257   6.421   4.243   1.620  1.1299  0.5378 -0.4054
    6MOL   H848 6258   6.119   4.405   1.599 -2.4309  0.8351  1.0785
    6MOL   H849 6259   6.142   4.565   1.784  1.3335 -0.2886  1.1282
    6MOL   H850 6260   6.417   4.430   2.126 -0.2870 -1.1930  1.8862
    6MOL   H851 6261   6.258   4.379   2.185 -2.3017  0.3204 -3.0876
    6MOL   H852 6262   6.323   4.532   2.246 -1.3733  1.2160 -0.1101
    6MOL   H853 6263   6.356   4.721   2.077 -0.4926  0.4703  0.8360
    6MOL   H854 6264   6.418   4.622   1.953 -1.1445 -0.3546 -1.7858
    6MOL   H855 6265   6.273   4.725   1.923 -0.1845 -0.3275  0.2483
    6MOL   H856 6266   6.007   4.396   2.006  0.4710 -0.5271  0.0900
    6MOL   H857 6267   5.791   4.441   2.104 -1.2183 -1.2731  2.6969
    6MOL   H858 6268   5.968   4.794   2.302  2.2195  0.9382 -0.2608
    6MOL   H859 6269   6.172   4.745   2.199 -1.1296  1.3330 -1.8050
    6MOL   H860 6270   6.343   4.263   2.015 -1.9926  2.5945  1.6139
    6MOL   H861 6271   6.279   4.088   1.853 -0.4261 -0.4996  1.0665
    6MOL   H862 6272   6.150   3.964   1.438 -0.8200  0.6589  2.0219
    6MOL   H863 6273   6.320   3.902   1.264 -0.9413 -2.3545  3.2263
    6MOL   H864 6274   6.824   4.140   1.166  1.2650 -0.6025 -1.9375
    6MOL   H865 6275   6.874   4.362   1.058 -0.0316  0.8724  1.7749
    6MOL   C866 6276   5.634   4.658   2.198  0.7115 -0.1298 -0.3633
    6MOL   C867 6277   5.550   4.550   2.168  0.5872  0.0540  1.1561
    6MOL   C868 6278   5.455   4.564   2.066 -1.1410 -0.3067  0.4529
    6MOL   C869 6279   5.435   4.684   2.005  0.4366  0.6088  0.0287
    6MOL   S870 6280   5.318   4.686   1.867  0.0030  0.3215  0.0204
    6MOL   O871 6281   5.230   4.800   1.888 -0.1892  0.2126  0.7226
    6MOL   O872 6282   5.259   4.557   1.850  0.5571 -0.0506  0.2783
    6MOL   C873 6283   5.414   4.728   1.724  0.3992  0.2806 -0.0783
    6MOL   C874 6284   5.556   4.712   1.722 -0.3136  0.1717  0.2465
    6MOL   C875 6285   5.636   4.739   1.604  0.0712  0.2009  0.4046
    6MOL   C876 6286   5.573   4.805   1.497 -0.1628  0.6021  0.0832
    6MOL   O877 6287   5.642   4.844   1.392  0.0512 -0.1473 -0.4679
    6MOL   C878 6288   5.734   4.762   1.337  0.1549 -0.5673  0.1026
    6MOL   C879 6289   5.712   4.622   1.331 -0.1225 -0.0685 -0.1199
    6MOL   C880 6290   5.809   4.533   1.287 -0.1121  0.4201  0.6164
    6MOL   C881 6291   5.936   4.582   1.247 -0.5913 -0.1742 -0.1846
    6MOL   C882 6292   6.043   4.484   1.185  0.5379  0.6540  0.5659
    6MOL   C883 6293   6.190   4.527   1.223  0.1347  0.7812 -0.1550
    6MOL   C884 6294   6.017   4.341   1.217  0.1337  0.4824  0.2427
    6MOL   C885 6295   6.031   4.491   1.032 -0.4353  0.3172  0.2853
    6MOL   C886 6296   6.126   4.421   0.947  0.8139  0.3784 -0.1927
    6MOL   C887 6297   6.121   4.424   0.805 -0.3375 -0.3250  0.3358
    6MOL   C888 6298   6.039   4.521   0.750 -0.1370 -0.0200 -0.2084
    6MOL   O889 6299   6.032   4.533   0.613 -0.2313 -0.3219  0.5040
    6MOL   C890 6300   5.940   4.585   0.827  0.1967 -0.2232  0.7784
    6MOL   C891 6301   5.931   4.561   0.970  0.3350 -0.0339  1.2465
    6MOL   C892 6302   5.958   4.722   1.265 -0.1924 -0.2609 -0.3876
    6MOL   C893 6303   5.859   4.809   1.308  0.0222  0.1773 -0.4360
    6MOL   C894 6304   5.430   4.814   1.497 -0.9388 -0.0298  0.0318
    6MOL   C895 6305   5.352   4.778   1.610  0.1070  0.1340  0.2749
    6MOL   C896 6306   5.515   4.795   2.036  0.2016  0.4465 -0.4362
    6MOL   C897 6307   5.617   4.782   2.134  0.4380 -0.9818 -0.7941
    6MOL   H898 6308   5.560   4.455   2.217  3.2674  0.3032  1.2074
    6MOL   H899 6309   5.400   4.477   2.034 -0.9494 -0.7736  1.3681
    6MOL   H900 6310   5.613   4.681   1.808  0.1319  1.8428  0.5605
    6MOL   H901 6311   5.740   4.709   1.608  0.0604  0.2552  1.1679
    6MOL   H902 6312   5.612   4.585   1.352 -0.2308  1.0424  1.3475
    6MOL   H903 6313   5.788   4.427   1.290 -1.1889  0.5413 -1.6306
    6MOL   H904 6314   6.257   4.450   1.183  0.7157  0.7110  0.9269
    6MOL   H905 6315   6.215   4.518   1.329 -1.2786  0.3860  0.1570
    6MOL   H906 6316   6.222   4.626   1.191 -1.2822  0.7681 -1.7174
    6MOL   H907 6317   5.920   4.313   1.177  0.9263 -0.6371 -0.9277
    6MOL   H908 6318   6.090   4.275   1.170 -1.7251  0.4033 -2.6120
    6MOL   H909 6319   6.013   4.326   1.325 -1.2172  1.2647  0.3187
    6MOL   H910 6320   6.188   4.346   0.994 -0.6522 -0.1086  1.0096
    6MOL   H911 6321   6.186   4.365   0.743  1.8205  0.8962  1.3713
    6MOL   H912 6322   5.868   4.649   0.780 -0.0557 -0.9613  0.1421
    6MOL   H913 6323   5.859   4.617   1.028 -3.0759 -2.2927 -0.6261
    6MOL   H914 6324   6.060   4.755   1.251 -0.0777 -0.2238  0.5384
    6MOL   H915 6325   5.890   4.911   1.326  1.6315  0.2301 -3.2983
    6MOL   H916 6326   5.376   4.860   1.415  0.3409 -0.0901 -0.8520
    6MOL   H917 6327   5.247   4.799   1.626  0.8174  3.9281  0.5295
    6MOL   H918 6328   5.508   4.891   1.986  2.3692  1.4118  1.0059
    6MOL   H919 6329   5.673   4.864   2.175 -0.6223 -1.8856  2.6564
    6MOL   C920 6330   5.932   4.463   0.546 -0.1656  0.4201  0.3055
    6MOL   C921 6331   5.899   4.499   0.411 -0.1011  0.3686 -0.3346
    6MOL   C922 6332   5.789   4.441   0.347 -0.1082 -0.0826 -0.3820
    6MOL   C923 6333   5.710   4.346   0.412 -1.0150  0.0326 -0.2423
    6MOL   S924 6334   5.568   4.278   0.334 -0.3100 -0.1322  0.0646
    6MOL   O925 6335   5.597   4.263   0.192 -0.5028  0.4511 -0.1028
    6MOL   O926 6336   5.453   4.354   0.383 -0.4837 -0.3487  0.6850
    6MOL   C927 6337   5.562   4.111   0.415  0.2017 -0.3326  0.5334
    6MOL   C928 6338   5.466   4.086   0.519 -0.1499 -0.1899  0.0275
    6MOL   C929 6339   5.453   3.957   0.575  0.5492 -0.7468  0.9968
    6MOL   C930 6340   5.542   3.863   0.541 -0.0259  0.4141 -0.4292
    6MOL   O931 6341   5.533   3.737   0.603  0.1497 -0.1934 -0.3462
    6MOL   C932 6342   5.602   3.631   0.559  0.7897  0.1200 -0.6556
    6MOL   C933 6343   5.563   3.555   0.453 -0.3111 -0.2092 -0.4259
    6MOL   C934 6344   5.636   3.442   0.410 -0.3999  0.1797  0.0448
    6MOL   C935 6345   5.759   3.407   0.473 -0.9726 -0.4474  0.2540
    6MOL   C936 6346   5.854   3.291   0.431 -0.4458 -0.5727  0.1168
    6MOL   C937 6347   5.834   3.256   0.282  0.4397 -0.5296 -0.0274
    6MOL   C938 6348   6.006   3.322   0.442  0.3642 -0.0693  0.2979
    6MOL   C939 6349   5.813   3.160   0.507  0.2092  0.7506  0.0266
    6MOL   C940 6350   5.907   3.080   0.572  0.1883 -0.3567  0.2716
    6MOL   C941 6351   5.855   2.966   0.634  0.1162  0.0016 -0.5261
    6MOL   C942 6352   5.722   2.929   0.635 -0.5142  0.2557  0.1991
    6MOL   O943 6353   5.688   2.811   0.691  0.5062  0.4609 -0.2321
    6MOL   C944 6354   5.625   3.007   0.571 -0.3237  0.0874  0.2122
    6MOL   C945 6355   5.668   3.132   0.517  0.3874 -0.6057 -0.3693
    6MOL   C946 6356   5.797   3.490   0.587 -0.4538 -0.7674  0.2671
    6MOL   C947 6357   5.725   3.601   0.626  0.2630 -0.0855 -0.0244
    6MOL   C948 6358   5.648   3.888   0.454 -0.8109  0.0723  0.0418
    6MOL   C949 6359   5.656   4.013   0.382  0.3046 -0.2631 -0.3102
    6MOL   C950 6360   5.740   4.313   0.548 -0.3158 -0.6185  1.0965
    6MOL   C951 6361   5.848   4.369   0.611  0.0417  0.8029  0.2415
    6MOL   H952 6362   5.949   4.578   0.357  0.2653  0.5704  0.2888
    6MOL   H953 6363   5.765   4.474   0.246  4.9379 -0.3249 -1.7954
    6MOL   H954 6364   5.407   4.173   0.545  1.8904  1.0387  0.6967
    6MOL   H955 6365   5.371   3.938   0.643  0.5729  3.1454  2.2342
    6MOL   H956 6366   5.466   3.563   0.406 -2.3477 -1.1262  3.4334
    6MOL   H957 6367   5.591   3.378   0.335 -1.8929  0.7224  0.4697
    6MOL   H958 6368   5.899   3.174   0.250  0.2846  0.1010 -2.0373
    6MOL   H959 6369   5.871   3.341   0.226  0.9447 -0.5360  0.2936
    6MOL   H960 6370   5.733   3.243   0.245  0.2115  2.1632 -0.3889
    6MOL   H961 6371   6.031   3.417   0.395  2.8991 -0.8529  0.0100
    6MOL   H962 6372   6.029   3.325   0.548  1.6095 -1.9811  0.0919
    6MOL   H963 6373   6.062   3.246   0.387 -1.0152 -0.4764 -0.5853
    6MOL   H964 6374   6.012   3.105   0.576  0.0335  0.4260 -0.4345
    6MOL   H965 6375   5.924   2.902   0.688 -1.1265 -0.9581 -0.0716
    6MOL   H966 6376   5.522   2.978   0.562 -0.0239 -0.2979 -2.2632
    6MOL   H967 6377   5.599   3.191   0.458 -0.6220 -0.6475  0.7666
    6MOL   H968 6378   5.901   3.488   0.617 -0.8500 -2.0144  1.6239
    6MOL   H969 6379   5.772   3.659   0.704  0.8321 -0.8951  0.2438
    6MOL   H970 6380   5.728   3.817   0.441 -1.0249 -0.2327  0.4034
    6MOL   H971 6381   5.731   4.029   0.306 -0.0298 -0.2405 -0.6364
    6MOL   H972 6382   5.673   4.254   0.609 -1.6807  0.0125  0.2514
    6MOL   H973 6383   5.875   4.335   0.710 -0.4175 -0.4171 -0.0497
    6MOL   C974 6384   5.645   2.805   0.822  0.9553  0.1868  0.1064
    6MOL   C975 6385   5.748   2.779   0.909 -0.2047  0.0161  0.2311
    6MOL   C976 6386   5.731   2.765   1.047 -0.4751 -0.0161 -0.0465
    6MOL   C977 6387   5.596   2.785   1.093  0.6396 -0.3033 -0.0451
    6MOL   S978 6388   5.556   2.766   1.264  0.0857 -0.1447  0.0556
    6MOL   O979 6389   5.683   2.719   1.332  0.3326  0.3970  0.5950
    6MOL   O980 6390   5.436   2.687   1.276  0.6358  0.4651 -0.1371
    6MOL   C981 6391   5.523   2.935   1.329  0.8941 -0.6483  0.2069
    6MOL   C982 6392   5.449   2.946   1.452  0.5347 -0.0131 -0.4094
    6MOL   C983 6393   5.413   3.073   1.506  0.1707 -0.2502  1.0005
    6MOL   C984 6394   5.460   3.192   1.440 -0.2423 -0.6240 -0.1421
    6MOL   O985 6395   5.437   3.313   1.491 -0.2084  0.1081 -0.5139
    6MOL   C986 6396   5.360   3.399   1.417  0.3444  0.1290 -0.0267
    6MOL   C987 6397   5.236   3.361   1.360 -1.0042 -0.2252 -0.5602
    6MOL   C988 6398   5.154   3.462   1.304 -0.2543  0.1265  0.5375
    6MOL   C989 6399   5.191   3.602   1.295 -0.1845 -0.0002 -0.2218
    6MOL   C990 6400   5.107   3.697   1.207  0.0685  0.6179 -0.8107
    6MOL   C991 6401   5.156   3.676   1.063  0.7079 -0.2431  0.0119
    6MOL   C992 6402   4.955   3.671   1.202 -0.0044  0.2577  0.1860
    6MOL   C993 6403   5.129   3.844   1.264 -0.0156  0.0112 -0.2814
    6MOL   C994 6404   5.082   3.869   1.393  0.0993  1.1293  0.5442
    6MOL   C995 6405   5.101   3.996   1.452 -0.3306  0.4555  1.0312
    6MOL   C996 6406   5.175   4.089   1.382  0.1397  0.2575 -0.5886
    6MOL   O997 6407   5.198   4.209   1.438  0.1429  0.6600  0.0838
    6MOL   C998 6408   5.207   4.070   1.244 -0.0541  0.7511 -0.0376
    6MOL   C999 6409   5.187   3.943   1.182 -0.1072 -0.0743 -0.0142
    6MOL     C1 6410   5.313   3.637   1.359  0.2213  0.6067 -0.2274
    6MOL     C2 6411   5.395   3.537   1.414 -0.6633 -0.2281 -0.5257
    6MOL     C3 6412   5.538   3.178   1.325  0.0739 -0.4424  0.0491
    6MOL     C4 6413   5.563   3.050   1.266  0.1917 -0.1502  0.2142
    6MOL     C5 6414   5.494   2.814   0.999 -0.6296 -0.6748  0.4259
    6MOL     C6 6415   5.515   2.832   0.866 -0.2905 -0.3314  0.5577
    6MOL     H7 6416   5.847   2.762   0.869  0.6744  0.9879  1.9103
    6MOL     H8 6417   5.814   2.750   1.114  0.9737  1.3241 -1.4650
    6MOL     H9 6418   5.414   2.853   1.496  2.2860 -0.5501 -0.0988
    6MOL    H10 6419   5.360   3.082   1.599 -3.6113 -0.6011 -1.0499
    6MOL    H11 6420   5.194   3.262   1.361  1.8075 -1.4683 -1.2092
    6MOL    H12 6421   5.066   3.420   1.256 -0.2071  0.4958  0.1257
    6MOL    H13 6422   5.151   3.578   1.015 -0.3248  1.6852 -4.0243
    6MOL    H14 6423   5.263   3.695   1.056  0.6208  0.6015  0.7744
    6MOL    H15 6424   5.110   3.744   0.992 -0.0870  0.2322  0.9721
    6MOL    H16 6425   4.943   3.579   1.145  0.1984  1.0421 -1.1358
    6MOL    H17 6426   4.902   3.647   1.295 -1.4723 -0.7895 -0.8899
    6MOL    H18 6427   4.901   3.748   1.147 -0.8079  0.0523  0.6659
    6MOL    H19 6428   5.024   3.796   1.447  2.0755 -1.8694 -1.2184
    6MOL    H20 6429   5.080   4.004   1.557  1.8823  1.3965  1.4421
    6MOL    H21 6430   5.248   4.151   1.185  0.8262 -0.0573 -0.5464
    6MOL    H22 6431   5.205   3.929   1.076 -0.7007  2.2412 -0.4377
    6MOL    H23 6432   5.339   3.742   1.356 -1.3221  1.0350  0.8070
    6MOL    H24 6433   5.481   3.583   1.461 -1.6526  1.3559 -0.2391
    6MOL    H25 6434   5.583   3.261   1.275  0.2563  0.2746  1.3798
    6MOL    H26 6435   5.634   3.040   1.185 -0.7971 -1.7006 -0.4878
    6MOL    H27 6436   5.393   2.824   1.037 -1.1414  0.3689 -1.1612
    6MOL    H28 6437   5.442   2.860   0.792  0.1930 -1.0612 -0.1918
    6MOL    C29 6438   5.312   4.226   1.507 -0.7732 -0.5736  0.1822
    6MOL    C30 6439   5.312   4.296   1.635  0.4854 -0.4233  0.1104
    6MOL    C31 6440   5.431   4.328   1.696 -0.5952  0.8645  0.6773
    6MOL    C32 6441   5.551   4.291   1.639  0.3474  0.0012 -0.3074
    6MOL    S33 6442   5.708   4.311   1.722 -0.4086 -0.2705 -0.2780
    6MOL    O34 6443   5.687   4.396   1.838 -0.0451 -0.2983 -0.3216
    6MOL    O35 6444   5.811   4.360   1.626  0.4209 -0.7134 -0.1356
    6MOL    C36 6445   5.760   4.147   1.778  0.4791 -0.7481  0.0118
    6MOL    C37 6446   5.681   4.031   1.755 -0.0772 -0.9607 -0.2435
    6MOL    C38 6447   5.726   3.907   1.807 -0.2524 -0.3241  0.1560
    6MOL    C39 6448   5.834   3.895   1.893  0.0843 -0.3943  0.1102
    6MOL    O40 6449   5.864   3.778   1.949  0.5299  0.3894  0.2261
    6MOL    C41 6450   5.844   3.767   2.088 -0.2404  0.1736 -0.0182
    6MOL    C42 6451   5.940   3.803   2.187 -0.5916  0.7890 -0.1102
    6MOL    C43 6452   5.917   3.775   2.321  0.1895 -0.1626 -0.2586
    6MOL    C44 6453   5.789   3.724   2.360 -1.0091 -0.6326  0.3631
    6MOL    C45 6454   5.773   3.683   2.507  0.0880 -0.2208  0.0493
    6MOL    C46 6455   5.628   3.674   2.547  0.2893 -0.3438  0.1578
    6MOL    C47 6456   5.821   3.536   2.521  0.2984  0.6083 -0.6895
    6MOL    C48 6457   5.846   3.772   2.607 -0.3770  0.6742  0.6158
    6MOL    C49 6458   5.950   3.732   2.691 -0.2638  0.1833 -0.6189
    6MOL    C50 6459   6.024   3.823   2.765 -0.2608  0.0950  0.3868
    6MOL    C51 6460   5.988   3.958   2.755 -0.1028  0.3260  0.0529
    6MOL    O52 6461   6.063   4.053   2.824  0.6049  0.1712  0.1729
    6MOL    C53 6462   5.869   3.997   2.687 -0.2776  0.7483  0.4698
    6MOL    C54 6463   5.807   3.906   2.606  0.3927 -0.1398  0.4179
    6MOL    C55 6464   5.685   3.707   2.262 -0.9705  0.3654  0.6659
    6MOL    C56 6465   5.713   3.738   2.128 -0.0917  0.6786 -0.1523
    6MOL    C57 6466   5.913   4.007   1.916 -0.5534 -0.1692 -0.3063
    6MOL    C58 6467   5.875   4.134   1.860 -0.8624  0.3914  0.5060
    6MOL    C59 6468   5.555   4.239   1.510 -0.7597 -0.2789 -0.0802
    6MOL    C60 6469   5.437   4.202   1.446 -0.9360  0.2145 -0.0515
    6MOL    H61 6470   5.216   4.333   1.669 -0.2125 -1.8306 -0.2633
    6MOL    H62 6471   5.439   4.372   1.794  0.2195  1.7416  0.2337
    6MOL    H63 6472   5.593   4.038   1.694 -1.4246 -1.9107  1.5709
    6MOL    H64 6473   5.677   3.815   1.778 -1.6196  0.3222  0.4058
    6MOL    H65 6474   6.031   3.858   2.167  0.2183  0.1859  1.7709
    6MOL    H66 6475   5.991   3.812   2.390  1.1198 -0.9809 -0.8089
    6MOL    H67 6476   5.576   3.590   2.501 -3.2444  1.1431  1.2768
    6MOL    H68 6477   5.567   3.762   2.528 -2.2220 -2.1776 -0.5005
    6MOL    H69 6478   5.633   3.667   2.656 -0.0513  2.6504  0.3886
    6MOL    H70 6479   5.928   3.529   2.501  0.3565  0.1823 -0.2611
    6MOL    H71 6480   5.790   3.506   2.621  2.3220  0.5061 -0.0674
    6MOL    H72 6481   5.779   3.471   2.444 -1.4426  0.9973 -0.0825
    6MOL    H73 6482   5.978   3.628   2.696 -0.0451  0.1970 -1.5051
    6MOL    H74 6483   6.100   3.784   2.830 -0.3694 -0.9277 -0.0880
    6MOL    H75 6484   5.841   4.100   2.675  1.2771  1.0830 -0.4409
    6MOL    H76 6485   5.721   3.938   2.550 -1.4628 -2.1789  2.0128
    6MOL    H77 6486   5.590   3.662   2.286 -1.6566  0.4345 -1.7786
    6MOL    H78 6487   5.640   3.730   2.048 -1.2090 -1.1017  1.0226
    6MOL    H79 6488   5.997   3.991   1.982 -1.6378 -2.4224  0.5778
    6MOL    H80 6489   5.930   4.224   1.885 -0.7166  0.3174  0.4573
    6MOL    H81 6490   5.654   4.222   1.471  0.4592  0.6951  2.4813
    6MOL    H82 6491   5.447   4.161   1.347 -0.2757  1.5090 -0.5302
    6MOL    H83 6492   6.050   4.143   2.800 -1.5965  0.1272  1.1219
    7MOL     C1 6493   8.042   7.828   7.508 -0.0093 -0.9126  0.0127
    7MOL     C2 6494   8.077   7.931   7.420  0.3389 -1.0535 -0.0527
    7MOL     C3 6495   7.982   8.036   7.404 -0.4456  0.3451  0.0216
    7MOL     C4 6496   7.859   8.039   7.476 -0.0151 -0.0486 -0.0765
    7MOL     S5 6497   7.754   8.184   7.465  0.2735 -0.0633 -0.5442
    7MOL     O6 6498   7.613   8.151   7.496 -0.0361  0.5846  0.5818
    7MOL     O7 6499   7.782   8.240   7.329 -0.0668 -0.2837  0.2801
    7MOL     C8 6500   7.804   0.045   7.597  0.4720 -0.5673  0.3649
    7MOL     C9 6501   7.865   0.000   7.719 -0.3281  0.0753 -0.0385
    7MOL    C10 6502   7.901   0.097   7.816  0.3731 -0.2323  0.1831
    7MOL    C11 6503   7.879   0.239   7.791  0.9583 -0.3506 -0.6114
    7MOL    O12 6504   7.926   0.330   7.884 -0.3544 -0.2760 -0.6225
    7MOL    C13 6505   8.038   0.414   7.857  0.6210  0.5799  0.6052
    7MOL    C14 6506   8.157   0.354   7.809 -0.2928 -0.5207  0.5006
    7MOL    C15 6507   0.009   0.436   7.769  0.8581 -0.4927  0.0147
    7MOL    C16 6508   8.252   0.578   7.771 -0.3473  0.3789  0.2081
    7MOL    C17 6509   0.111   0.665   7.731 -0.2069 -0.1048 -0.1348
    7MOL    C18 6510   0.245   0.593   7.747 -0.3712  0.0468  0.2628
    7MOL    C19 6511   0.095   0.695   7.577 -0.4835  0.1672 -0.0052
    7MOL    C20 6512   0.112   0.793   7.814  0.1683  0.4527 -0.1644
    7MOL    C21 6513   0.152   0.919   7.763  0.4007  0.4000  0.4893
    7MOL    C22 6514   0.168   1.033   7.847 -0.0251 -0.5436  0.1433
    7MOL    C23 6515   0.143   1.025   7.985  0.1747 -0.1301  0.5793
    7MOL    O24 6516   0.160   1.138   8.070  0.8003 -0.4245 -0.3501
    7MOL    C25 6517   0.106   0.903   8.037 -0.1602 -0.1945  1.1470
    7MOL    C26 6518   0.098   0.783   7.957 -0.0232 -0.0757  0.2591
    7MOL    C27 6519   8.130   0.639   7.811  0.0922 -0.2567 -0.0060
    7MOL    C28 6520   8.025   0.556   7.849 -1.6383 -0.7123  0.0413
    7MOL    C29 6521   7.811   0.281   7.675  0.3837 -0.1065 -0.2756
    7MOL    C30 6522   7.780   0.180   7.579  0.4068  0.8944  1.0079
    7MOL    C31 6523   7.831   7.935   7.565 -0.3176  0.1543  0.2514
    7MOL    C32 6524   7.921   7.830   7.588 -0.5081 -0.5775 -0.2572
    7MOL    H33 6525   8.166   7.931   7.360 -1.1007  0.1088 -2.2818
    7MOL    H34 6526   8.001   8.112   7.330  1.3847  0.8542  0.9823
    7MOL    H35 6527   7.886   8.148   7.734 -1.5473 -0.3953 -1.5103
    7MOL    H36 6528   7.955   0.068   7.905  2.1337 -0.6563 -0.9942
    7MOL    H37 6529   8.160   0.248   7.791  0.0433 -0.4517  0.1461
    7MOL    H38 6530   0.094   0.380   7.732  1.2717 -0.8831  1.5020
    7MOL    H39 6531   0.331   0.656   7.725  1.0553 -0.7684  3.2385
    7MOL    H40 6532   0.263   0.506   7.684  0.2603 -0.7266  1.4986
    7MOL    H41 6533   0.264   0.570   7.852 -2.9626  3.2243  1.5262
    7MOL    H42 6534   0.106   0.600   7.525  0.1038  1.2518 -1.8785
    7MOL    H43 6535   0.000   0.744   7.553  0.3160  1.9124  0.3478
    7MOL    H44 6536   0.179   0.762   7.559 -1.4538  2.3007  2.9019
    7MOL    H45 6537   0.167   0.925   7.656 -0.4595  0.4574  0.3715
    7MOL    H46 6538   0.208   1.123   7.804 -0.7729 -1.4117 -2.5049
    7MOL    H47 6539   0.083   0.892   8.142 -1.8077  0.5379  0.8817
    7MOL    H48 6540   0.082   0.692   8.014  0.2194  0.0286  0.4957
    7MOL    H49 6541   8.114   0.745   7.806  3.3480  0.4385  2.5875
    7MOL    H50 6542   7.932   0.596   7.885 -1.4234  0.7259 -0.9376
    7MOL    H51 6543   7.788   0.383   7.648 -0.9173 -0.5159 -0.7751
    7MOL    H52 6544   7.728   0.204   7.488 -1.2365 -1.5629  1.2445
    7MOL    H53 6545   7.739   7.947   7.621 -1.8740 -1.2943 -1.9200
    7MOL    H54 6546   7.899   7.763   7.669 -3.3104 -0.0860 -0.5639
    7MOL    H55 6547   8.117   7.754   7.531 -0.6827 -2.1381 -1.6588
    7MOL    C56 6548   0.085   1.249   8.035 -0.3911  0.2443 -0.8410
    7MOL    C57 6549   0.143   1.356   7.959  0.6884 -0.0585  1.0966
    7MOL    C58 6550   0.074   1.479   7.935  0.1124  0.3574 -0.6803
    7MOL    C59 6551   8.195   1.490   7.988  0.2572  0.4859 -0.9108
    7MOL    S60 6552   8.091   1.634   7.971 -0.2966 -0.3444 -0.6729
    7MOL    O61 6553   8.019   1.620   7.844  0.1689 -0.2342 -0.4401
    7MOL    O62 6554   8.188   1.743   7.990 -0.4939  0.1187  0.3847
    7MOL    C63 6555   7.978   1.645   8.099  0.2247  0.4545  0.1005
    7MOL    C64 6556   8.015   1.693   8.229 -0.6564  0.7373 -0.2193
    7MOL    C65 6557   7.914   1.703   0.075 -0.3692 -0.7326  0.6369
    7MOL    C66 6558   7.778   1.664   0.047  0.1848  0.2663  0.6507
    7MOL    O67 6559   7.681   1.697   0.140  0.1513 -0.1216  0.2957
    7MOL    C68 6560   7.555   1.638   0.146 -0.0092 -0.1053  0.4612
    7MOL    C69 6561   7.463   1.645   0.035  0.6192  1.3777  0.5456
    7MOL    C70 6562   7.330   1.597   0.050 -0.0177 -0.3680  0.2863
    7MOL    C71 6563   7.292   1.528   0.164  0.5469 -0.7854 -0.2895
    7MOL    C72 6564   7.149   1.468   0.179 -0.5153 -0.0332 -0.1960
    7MOL    C73 6565   7.149   1.340   0.269  0.0153  0.0549  0.3664
    7MOL    C74 6566   7.063   1.577   0.250  0.6263 -0.2290 -0.2605
    7MOL    C75 6567   7.092   1.425   0.038 -0.8461  0.5458  0.4787
    7MOL    C76 6568   6.954   1.444   0.001 -0.4769 -0.1473 -0.7113
    7MOL    C77 6569   6.904   1.387   8.136  0.1926 -0.4445 -0.3706
    7MOL    C78 6570   6.987   1.333   8.043 -0.2031  0.2251 -0.1960
    7MOL    O79 6571   6.926   1.291   7.923  0.1195 -0.0422  0.1334
    7MOL    C80 6572   7.124   1.315   8.073  0.3641  0.5000 -0.0274
    7MOL    C81 6573   7.171   1.357   8.196  1.0777  0.5216 -0.6491
    7MOL    C82 6574   7.376   1.523   0.277 -0.2657  0.0427 -0.4860
    7MOL    C83 6575   7.510   1.576   0.263 -0.3225  0.5167  0.2394
    7MOL    C84 6576   7.751   1.594   8.181 -0.2360  0.0327 -0.3602
    7MOL    C85 6577   7.853   1.587   8.086 -0.0248  0.2102 -0.4729
    7MOL    C86 6578   8.141   1.381   8.061  0.1193 -0.0994 -0.2058
    7MOL    C87 6579   8.214   1.266   8.094  0.1184  0.3595 -0.1366
    7MOL    H88 6580   0.240   1.331   7.920  2.3355  2.8812  3.0859
    7MOL    H89 6581   0.130   1.553   7.881  0.7116  1.2520  1.1047
    7MOL    H90 6582   8.115   1.731   8.243 -0.1668 -0.2061 -1.0617
    7MOL    H91 6583   7.937   1.748   0.171  0.8964 -0.2407  0.1188
    7MOL    H92 6584   7.493   1.686   8.193 -0.6952  0.5310 -0.2516
    7MOL    H93 6585   7.253   1.609   8.228  0.0384 -0.9569  0.1260
    7MOL    H94 6586   7.044   1.311   0.264  0.0820  0.1960 -3.1152
    7MOL    H95 6587   7.170   1.350   0.375  0.3270 -0.4409  0.3540
    7MOL    H96 6588   7.214   1.267   0.221 -0.5714 -0.0564 -0.2619
    7MOL    H97 6589   6.963   1.535   0.264  0.5927 -0.2724 -0.6154
    7MOL    H98 6590   7.097   1.593   0.352  0.4706  0.6432 -0.3467
    7MOL    H99 6591   7.055   1.675   0.203 -1.3036 -0.5356 -0.6124
    7MOL   H100 6592   6.886   1.495   0.068  0.7999  0.8389 -0.1430
    7MOL   H101 6593   6.799   1.410   8.127 -0.0794 -0.6652  1.9921
    7MOL   H102 6594   7.190   1.272   7.999  0.2815  0.0873  0.1384
    7MOL   H103 6595   7.275   1.341   8.217  0.6348 -2.6800 -0.5334
    7MOL   H104 6596   7.342   1.475   0.368  2.5816 -0.8010  0.2033
    7MOL   H105 6597   7.573   1.551   0.347 -0.5324 -1.2850 -0.1065
    7MOL   H106 6598   7.668   1.531   8.154  0.4931 -2.0512  1.9887
    7MOL   H107 6599   7.830   1.538   7.992  1.4602 -0.9778 -0.2271
    7MOL   H108 6600   8.043   1.383   8.105  0.5325  1.5274  0.6719
    7MOL   H109 6601   8.170   1.189   8.156 -1.5582  1.1419 -0.3387
    7MOL   C110 6602   6.861   1.377   7.836 -0.1646 -0.0897  0.0819
    7MOL   C111 6603   6.884   1.512   7.830  0.4840  0.3329  0.2715
    7MOL   C112 6604   6.824   1.592   7.736  0.9850  0.0800 -0.3324
    7MOL   C113 6605   6.730   1.534   7.646 -0.4396 -0.3813  0.0134
    7MOL   S114 6606   6.633   1.648   7.550 -0.0226  0.1661  0.1068
    7MOL   O115 6607   6.584   1.748   7.645 -0.5047 -0.4373  0.0768
    7MOL   O116 6608   6.543   1.562   7.470  0.3318  0.3136  0.7500
    7MOL   C117 6609   6.751   1.724   7.436 -0.3208  0.0629  0.5296
    7MOL   C118 6610   6.772   1.861   7.444  0.2840  0.1729  0.7937
    7MOL   C119 6611   6.845   1.926   7.347 -0.2885  0.1785  0.1666
    7MOL   C120 6612   6.918   1.856   7.249  0.3045 -0.4824 -0.5074
    7MOL   O121 6613   7.009   1.923   7.168 -0.2442  0.3373 -0.4268
    7MOL   C122 6614   6.977   2.023   7.089 -0.3978  0.4724 -0.7295
    7MOL   C123 6615   7.075   2.107   7.044 -0.4714  0.0436  0.2167
    7MOL   C124 6616   7.046   2.214   6.954 -0.7965 -0.0606 -0.2343
    7MOL   C125 6617   6.915   2.220   6.901 -0.5553 -0.0960 -0.8886
    7MOL   C126 6618   6.868   2.326   6.801  0.4560  0.1836 -0.2279
    7MOL   C127 6619   6.779   2.430   6.879  0.5503 -0.6069  0.0114
    7MOL   C128 6620   6.993   2.400   6.740  0.6459 -0.2195 -0.4875
    7MOL   C129 6621   6.796   2.251   6.686  0.0088 -0.3769 -0.4013
    7MOL   C130 6622   6.863   2.163   6.603 -0.2117  0.6035  0.4085
    7MOL   C131 6623   6.808   2.100   6.492 -0.8857  0.1521 -0.4217
    7MOL   C132 6624   6.671   2.117   6.468 -0.1372 -0.3128  0.1666
    7MOL   O133 6625   6.617   2.054   6.356  0.4759 -0.2183 -0.0286
    7MOL   C134 6626   6.592   2.203   6.555  0.0186  0.3536  0.0760
    7MOL   C135 6627   6.654   2.265   6.663  0.1135 -0.3579  0.4017
    7MOL   C136 6628   6.812   2.135   6.954  0.7054 -0.1171 -1.0120
    7MOL   C137 6629   6.840   2.040   7.052 -0.4306  0.5916  0.3567
    7MOL   C138 6630   6.896   1.718   7.245 -0.5024  0.7112  0.7403
    7MOL   C139 6631   6.822   1.647   7.341 -0.0122  0.2881  0.4571
    7MOL   C140 6632   6.696   1.396   7.662 -1.0536 -0.1636  0.1226
    7MOL   C141 6633   6.767   1.315   7.753  0.0745  0.4919 -0.1808
    7MOL   H142 6634   6.949   1.551   7.907  0.0832  1.2771  0.1358
    7MOL   H143 6635   6.848   1.697   7.727  1.3493  0.1981  1.7368
    7MOL   H144 6636   6.701   1.910   7.509 -1.2265 -2.9569  1.5869
    7MOL   H145 6637   6.867   2.032   7.350 -1.7763  0.4650  2.0415
    7MOL   H146 6638   7.177   2.089   7.072 -0.6337 -0.0208  0.7620
    7MOL   H147 6639   7.128   2.280   6.930 -0.1258 -0.9911 -0.5333
    7MOL   H148 6640   6.738   2.514   6.823 -1.3687 -0.5166  1.5085
    7MOL   H149 6641   6.832   2.464   6.968 -0.4680  0.5351  0.2007
    7MOL   H150 6642   6.688   2.382   6.916  0.4287 -0.2789  0.1462
    7MOL   H151 6643   6.960   2.449   6.648  0.2876  1.2925  0.4234
    7MOL   H152 6644   7.040   2.476   6.802  1.5892 -2.2672  1.3626
    7MOL   H153 6645   7.068   2.328   6.709  2.2497  1.4694 -0.6369
    7MOL   H154 6646   6.967   2.144   6.625 -0.2745  2.9401  3.1099
    7MOL   H155 6647   6.871   2.043   6.427  0.8010  0.1339  1.1770
    7MOL   H156 6648   6.485   2.214   6.542 -0.1095  1.7884  2.1492
    7MOL   H157 6649   6.587   2.323   6.724 -2.7874 -2.1813 -0.9187
    7MOL   H158 6650   6.710   2.155   6.925  1.1684  2.1334 -1.1836
    7MOL   H159 6651   6.756   1.984   7.090  0.9499  0.2402  3.0138
    7MOL   H160 6652   6.951   1.659   7.174  2.2717  0.7503  2.7977
    7MOL   H161 6653   6.812   1.542   7.318  0.3641  0.2539  0.4519
    7MOL   H162 6654   6.619   1.355   7.598 -1.7931  0.1368  0.8050
    7MOL   H163 6655   6.756   1.208   7.761  0.5012  0.3299 -1.6169
    7MOL   C164 6656   6.544   2.127   6.262 -0.0340 -0.8707 -0.7954
    7MOL   C165 6657   6.454   2.058   6.177 -0.5006  0.4415 -0.6900
    7MOL   C166 6658   6.381   2.130   6.081 -0.6761 -0.1353  0.0494
    7MOL   C167 6659   6.392   2.267   6.067  0.7274  0.0254  0.5851
    7MOL   S168 6660   6.273   2.358   5.965 -0.1803  0.2959  0.1020
    7MOL   O169 6661   6.256   2.492   6.024  0.1181  0.4905  0.3604
    7MOL   O170 6662   6.157   2.273   5.937  0.3347  0.2530  0.0502
    7MOL   C171 6663   6.361   2.387   5.807  0.4460  0.1767 -0.4940
    7MOL   C172 6664   6.297   2.366   5.675  0.4520 -0.0201  0.5694
    7MOL   C173 6665   6.365   2.398   5.562  0.0805  0.5971  0.1847
    7MOL   C174 6666   6.498   2.445   5.561  0.6700 -0.1050  0.0236
    7MOL   O175 6667   6.571   2.477   5.446 -0.3342  0.3307 -0.6261
    7MOL   C176 6668   6.515   2.537   5.338  0.4133 -0.7245  0.2205
    7MOL   C177 6669   6.464   2.666   5.362  0.2078  0.0840 -0.5914
    7MOL   C178 6670   6.409   2.739   5.257 -0.2273 -0.0527 -0.2235
    7MOL   C179 6671   6.398   2.691   5.126  0.9196 -0.2624 -0.1476
    7MOL   C180 6672   6.322   2.774   5.023 -0.2382  0.2371  0.3836
    7MOL   C181 6673   6.303   2.693   4.889  0.0741 -0.2249 -0.4611
    7MOL   C182 6674   6.172   2.783   5.079 -0.1158 -0.2184 -0.5224
    7MOL   C183 6675   6.389   2.909   4.998 -0.0753 -0.4526  0.0952
    7MOL   C184 6676   6.311   3.016   4.944 -0.2708  0.3378  0.8178
    7MOL   C185 6677   6.369   3.133   4.898 -0.0850  0.1229 -0.4322
    7MOL   C186 6678   6.510   3.149   4.914  0.4213 -0.0621 -0.0387
    7MOL   O187 6679   6.571   3.259   4.860  0.0754  0.3466 -0.6028
    7MOL   C188 6680   6.589   3.044   4.964  0.6485 -0.1195  0.3119
    7MOL   C189 6681   6.531   2.922   5.009  0.2709 -0.1341  0.0695
    7MOL   C190 6682   6.447   2.559   5.105 -0.6271 -0.0858  0.1670
    7MOL   C191 6683   6.513   2.483   5.208 -0.1195 -0.0956  0.4034
    7MOL   C192 6684   6.562   2.468   5.684 -0.0657  0.5422  0.3970
    7MOL   C193 6685   6.494   2.442   5.805  0.5677 -0.4099 -0.5263
    7MOL   C194 6686   6.481   2.338   6.155  0.0048  0.3197 -0.0215
    7MOL   C195 6687   6.561   2.268   6.248  0.3546 -0.5936 -0.3246
    7MOL   H196 6688   6.443   1.951   6.187 -1.1389  0.7386  1.9433
    7MOL   H197 6689   6.314   2.075   6.016 -0.9437 -2.1714  1.9499
    7MOL   H198 6690   6.196   2.330   5.683  1.3771 -2.3702  2.1076
    7MOL   H199 6691   6.326   2.402   5.461  0.1299 -1.4551  0.0537
    7MOL   H200 6692   6.464   2.691   5.467  2.2237 -2.9139  0.1998
    7MOL   H201 6693   6.374   2.840   5.275  0.7011  0.2614 -0.1611
    7MOL   H202 6694   6.397   2.658   4.848  2.0393  0.4790  3.2810
    7MOL   H203 6695   6.243   2.745   4.814  1.3647  0.4495 -1.0455
    7MOL   H204 6696   6.242   2.608   4.918 -0.7192  0.1411 -1.0267
    7MOL   H205 6697   6.167   2.854   5.161 -0.0473  1.5046 -1.9763
    7MOL   H206 6698   6.100   2.814   5.004 -2.0720 -2.4574  0.3731
    7MOL   H207 6699   6.139   2.687   5.120 -1.3202  0.8585  1.0483
    7MOL   H208 6700   6.206   2.995   4.936 -0.0204 -0.9696  0.8522
    7MOL   H209 6701   6.309   3.202   4.841  0.1267  1.7570  1.2523
    7MOL   H210 6702   6.695   3.060   4.963  0.5862  0.2915  0.1293
    7MOL   H211 6703   6.598   2.844   5.044 -0.6005  0.0259  2.2072
    7MOL   H212 6704   6.458   2.525   5.003  2.3546 -0.2351  0.5123
    7MOL   H213 6705   6.554   2.384   5.196 -0.4982 -0.2898  0.6679
    7MOL   H214 6706   6.658   2.517   5.685  0.9060 -1.3063 -0.5743
    7MOL   H215 6707   6.547   2.465   5.896 -0.7956  1.1859 -0.1217
    7MOL   H216 6708   6.477   2.446   6.156  0.0406  0.3178  0.6630
    7MOL   H217 6709   6.623   2.332   6.309  0.9976 -2.3421  0.8928
    7MOL   C218 6710   6.539   3.381   4.909 -0.4279  0.3881 -0.3138
    7MOL   C219 6711   6.479   3.398   5.041 -0.4625  0.3771  0.9731
    7MOL   C220 6712   6.435   3.521   5.084  0.3701  0.2087  0.6406
    7MOL   C221 6713   6.459   3.633   4.996  0.1621  0.5924  0.8679
    7MOL   S222 6714   6.404   3.789   5.041 -0.0995  0.0638 -0.3162
    7MOL   O223 6715   6.274   3.772   5.107  0.1725  0.5923 -0.0541
    7MOL   O224 6716   6.411   3.877   4.926 -0.3986 -0.1787 -0.1753
    7MOL   C225 6717   6.532   3.839   5.156 -0.1754 -0.0661  0.3820
    7MOL   C226 6718   6.487   3.855   5.286 -0.4144  0.0329  0.5399
    7MOL   C227 6719   6.583   3.901   5.385 -0.4330 -0.3023 -0.7182
    7MOL   C228 6720   6.723   3.912   5.357  0.5511  0.4056 -0.6392
    7MOL   O229 6721   6.813   3.956   5.445  0.1704 -0.6699  0.1105
    7MOL   C230 6722   6.901   4.054   5.406  0.3967 -0.4664  0.1758
    7MOL   C231 6723   7.038   4.031   5.435  0.1242  0.5802  0.3589
    7MOL   C232 6724   7.132   4.127   5.414 -0.2517 -0.4367  0.1492
    7MOL   C233 6725   7.102   4.253   5.360 -0.7493 -0.1116  0.4690
    7MOL   C234 6726   7.207   4.359   5.345 -0.3157 -0.6617 -0.1526
    7MOL   C235 6727   7.246   4.360   5.196  0.3815 -0.3876 -0.4929
    7MOL   C236 6728   7.157   4.501   5.366 -0.5206 -0.5700  0.5529
    7MOL   C237 6729   7.325   4.334   5.440 -0.1751 -0.1681  0.2539
    7MOL   C238 6730   7.300   4.322   5.578  0.1954  0.0721  0.2497
    7MOL   C239 6731   7.398   4.275   5.665 -0.3898  0.7975 -0.3919
    7MOL   C240 6732   7.524   4.235   5.612  0.6308  0.3009  0.6717
    7MOL   O241 6733   7.610   4.172   5.700  0.1637 -0.8242  0.6957
    7MOL   C242 6734   7.558   4.261   5.480 -0.2086 -0.4819  0.2335
    7MOL   C243 6735   7.457   4.304   5.387  0.2658 -0.1343 -0.1702
    7MOL   C244 6736   6.964   4.281   5.337  0.3982 -0.4750 -0.3746
    7MOL   C245 6737   6.864   4.182   5.352 -0.0794  0.0010 -0.1878
    7MOL   C246 6738   6.758   3.881   5.227 -0.2721  0.8794  0.2282
    7MOL   C247 6739   6.666   3.851   5.128  1.2029 -0.6050  0.8853
    7MOL   C248 6740   6.515   3.617   4.875  0.3040  0.0076 -0.1551
    7MOL   C249 6741   6.566   3.492   4.829  0.0932 -0.2506  0.0652
    7MOL   H250 6742   6.437   3.309   5.085  2.4509 -1.0599  0.9187
    7MOL   H251 6743   6.378   3.531   5.175  0.7704 -0.1707  0.9320
    7MOL   H252 6744   6.383   3.849   5.315 -0.7403  1.8529 -0.2310
    7MOL   H253 6745   6.547   3.918   5.486 -3.1054  0.4232 -1.7430
    7MOL   H254 6746   7.063   3.931   5.467  0.4331  0.1642 -1.1757
    7MOL   H255 6747   7.234   4.107   5.446 -0.7409 -1.3878  1.1643
    7MOL   H256 6748   7.335   4.419   5.172  0.0559  1.2343  2.0476
    7MOL   H257 6749   7.162   4.377   5.129 -0.5167 -1.5125  0.3352
    7MOL   H258 6750   7.278   4.261   5.163  1.8890 -0.6697  1.6917
    7MOL   H259 6751   7.086   4.517   5.448 -0.0894  0.3330  0.7585
    7MOL   H260 6752   7.233   4.579   5.375 -2.4920  1.6762 -1.5696
    7MOL   H261 6753   7.104   4.541   5.280  0.4755  3.8480  1.8545
    7MOL   H262 6754   7.205   4.351   5.621  0.2129  0.4482  0.0431
    7MOL   H263 6755   7.380   4.266   5.771 -1.6885  1.3565 -0.5525
    7MOL   H264 6756   7.654   4.227   5.445 -0.9032  0.9249 -3.2460
    7MOL   H265 6757   7.486   4.299   5.283  1.8150 -0.4522  0.2654
    7MOL   H266 6758   6.930   4.371   5.288  0.2571  0.5709  1.5866
    7MOL   H267 6759   6.768   4.224   5.326 -0.4535 -1.0644 -0.5382
    7MOL   H268 6760   6.860   3.894   5.196  0.4160 -2.5675  0.8386
    7MOL   H269 6761   6.698   3.836   5.026  1.4488  2.6786  0.4329
    7MOL   H270 6762   6.527   3.701   4.809 -0.3861  0.5250  0.3622
    7MOL   H271 6763   6.604   3.483   4.728  0.9853 -0.5717  0.4262
    7MOL   C272 6764   7.562   4.058   5.760  0.6352  0.1454 -0.1642
    7MOL   C273 6765   7.581   3.934   5.686  0.1452  1.1579 -0.5723
    7MOL   C274 6766   7.528   3.817   5.746 -0.2261 -0.3445 -0.3279
    7MOL   C275 6767   7.468   3.828   5.874 -0.2216  0.5094  1.1192
    7MOL   S276 6768   7.403   3.680   5.943  0.1500 -0.5273 -0.6862
    7MOL   O277 6769   7.295   3.705   6.032  0.2313  0.1373 -0.7290
    7MOL   O278 6770   7.518   3.603   5.994  0.3815 -0.1977 -0.4201
    7MOL   C279 6771   7.330   3.593   5.798  0.4531  0.4358  0.2671
    7MOL   C280 6772   7.409   3.496   5.732 -0.6807 -0.0984 -0.8829
    7MOL   C281 6773   7.355   3.435   5.616 -0.4466 -0.9711  0.6594
    7MOL   C282 6774   7.227   3.469   5.568  0.3793  0.9054  0.6901
    7MOL   O283 6775   7.185   3.394   5.466  0.0613 -1.2821 -0.0844
    7MOL   C284 6776   7.086   3.307   5.490 -0.1476  0.5052 -0.8692
    7MOL   C285 6777   7.109   3.167   5.501  0.2301  0.5343 -0.3637
    7MOL   C286 6778   7.008   3.077   5.545 -0.3176 -0.1412  0.3043
    7MOL   C287 6779   6.879   3.122   5.568  0.8821  0.3869  0.3587
    7MOL   C288 6780   6.763   3.024   5.607 -0.4509  1.1334  0.5137
    7MOL   C289 6781   6.624   3.095   5.614 -0.2151  0.0587 -0.5685
    7MOL   C290 6782   6.740   2.919   5.491 -1.0165 -0.3940  0.1331
    7MOL   C291 6783   6.783   2.954   5.744 -0.6443  0.1034 -0.4066
    7MOL   C292 6784   6.711   2.837   5.776 -0.1667  0.4530  0.0096
    7MOL   C293 6785   6.737   2.772   5.896 -0.1234  0.2029  0.4952
    7MOL   C294 6786   6.816   2.825   5.999 -0.4000 -0.2864  0.1692
    7MOL   O295 6787   6.846   2.763   6.121 -0.4097 -0.2861 -0.2059
    7MOL   C296 6788   6.882   2.949   5.969 -0.1439  0.0586  0.3276
    7MOL   C297 6789   6.862   3.014   5.843  0.2069  0.8305 -0.7233
    7MOL   C298 6790   6.853   3.263   5.551 -0.0777  0.2242 -0.9022
    7MOL   C299 6791   6.954   3.352   5.511 -0.2855  1.0876 -0.0093
    7MOL   C300 6792   7.158   3.567   5.634 -0.0405  0.1779  0.5763
    7MOL   C301 6793   7.203   3.632   5.747  0.2321 -0.1910  0.0836
    7MOL   C302 6794   7.466   3.946   5.947 -0.4662 -0.2337 -0.6522
    7MOL   C303 6795   7.514   4.062   5.889 -0.2758 -0.0178 -0.1950
    7MOL   H304 6796   7.644   3.933   5.598  1.2214 -2.5066  0.1428
    7MOL   H305 6797   7.555   3.724   5.698  2.9469  1.3685 -2.1147
    7MOL   H306 6798   7.505   3.478   5.777 -1.7666 -0.7673  1.2606
    7MOL   H307 6799   7.415   3.364   5.560 -0.8524  0.8920 -2.2547
    7MOL   H308 6800   7.210   3.130   5.488 -0.0556 -0.5055  0.3652
    7MOL   H309 6801   7.029   2.972   5.561 -0.0234 -0.2718 -0.8959
    7MOL   H310 6802   6.629   3.174   5.688 -2.3075 -2.0704  1.9455
    7MOL   H311 6803   6.548   3.022   5.642 -0.8324  2.0532  3.1878
    7MOL   H312 6804   6.588   3.133   5.518 -0.7525  1.1231  0.0466
    7MOL   H313 6805   6.707   2.977   5.404 -2.1305  1.1034  1.5367
    7MOL   H314 6806   6.837   2.873   5.469 -1.6489 -1.9677  0.5448
    7MOL   H315 6807   6.678   2.831   5.507  1.0784 -2.2557 -1.6426
    7MOL   H316 6808   6.638   2.791   5.711 -0.1149  0.7972 -0.2999
    7MOL   H317 6809   6.688   2.676   5.911 -0.6747  0.5148  0.7277
    7MOL   H318 6810   6.945   2.989   6.047  1.1208 -1.5637  0.1748
    7MOL   H319 6811   6.918   3.102   5.815  0.6559  1.0066  0.6814
    7MOL   H320 6812   6.751   3.299   5.552 -0.8264 -1.6179  3.4719
    7MOL   H321 6813   6.931   3.458   5.503 -0.6972  1.0482  0.6598
    7MOL   H322 6814   7.059   3.592   5.598 -0.1944 -0.7913  0.3170
    7MOL   H323 6815   7.150   3.710   5.799  0.6250  0.0711  0.0939
    7MOL   H324 6816   7.434   3.944   6.050  0.6328 -0.9697 -0.3126
    7MOL   H325 6817   7.523   4.156   5.941 -1.0569  0.5276 -1.0493
    7MOL   C326 6818   6.749   2.747   6.220  0.4042  0.1011  0.2704
    7MOL   C327 6819   6.775   2.640   6.311  0.4122  0.5090  0.8464
    7MOL   C328 6820   6.694   2.631   6.423 -0.0686  0.3905  0.0088
    7MOL   C329 6821   6.579   2.712   6.440  0.4008 -0.4029  0.1060
    7MOL   S330 6822   6.487   2.708   6.586  0.4547  0.0408 -0.4979
    7MOL   O331 6823   6.536   2.590   6.661 -0.5700 -0.2336 -0.2451
    7MOL   O332 6824   6.349   2.712   6.541 -0.1261 -0.1056  0.0446
    7MOL   C333 6825   6.519   2.857   6.679  0.1282 -0.9143 -0.2470
    7MOL   C334 6826   6.451   2.864   6.799  0.3992 -0.4830  0.8963
    7MOL   C335 6827   6.458   2.985   6.877 -0.3792 -0.0441  0.3836
    7MOL   C336 6828   6.544   3.095   6.831 -0.2094  0.4211 -0.1425
    7MOL   O337 6829   6.556   3.212   6.901  0.1074 -0.4655 -0.5655
    7MOL   C338 6830   6.466   3.317   6.879  0.5800  0.2832 -0.7457
    7MOL   C339 6831   6.403   3.375   6.993  0.5388  0.1317 -0.2757
    7MOL   C340 6832   6.312   3.479   6.970 -0.0326  0.8145  0.3414
    7MOL   C341 6833   6.269   3.520   6.842 -0.5195 -0.0489 -0.2870
    7MOL   C342 6834   6.152   3.620   6.835  0.1269  0.2134 -0.1503
    7MOL   C343 6835   6.121   3.673   6.691 -0.0518 -0.3538 -0.7955
    7MOL   C344 6836   6.026   3.542   6.887  0.7309 -0.0133  0.4296
    7MOL   C345 6837   6.195   3.739   6.919 -0.6720 -0.2204 -0.0084
    7MOL   C346 6838   6.103   3.816   7.001 -0.1031  0.3142 -0.4846
    7MOL   C347 6839   6.147   3.941   7.057  0.2786  0.2133 -0.4409
    7MOL   C348 6840   6.281   3.980   7.060  0.3515 -0.6901  0.6152
    7MOL   O349 6841   6.319   4.103   7.103  0.4535 -0.5239 -0.5266
    7MOL   C350 6842   6.371   3.902   6.985 -0.5641  0.4925 -0.1305
    7MOL   C351 6843   6.329   3.785   6.915 -0.1560 -0.4125 -0.6558
    7MOL   C352 6844   6.332   3.458   6.734 -0.1334  0.4938  0.1666
    7MOL   C353 6845   6.435   3.363   6.747 -0.2924 -0.6170  0.5437
    7MOL   C354 6846   6.614   3.076   6.713 -0.3662  0.3926 -0.6878
    7MOL   C355 6847   6.598   2.960   6.639  0.5056 -0.2293  0.1491
    7MOL   C356 6848   6.552   2.812   6.345 -0.2626  1.2206  0.0849
    7MOL   C357 6849   6.640   2.833   6.236  0.5270  0.4476 -0.1514
    7MOL   H358 6850   6.860   2.574   6.309  2.0031  2.5528 -0.8141
    7MOL   H359 6851   6.730   2.567   6.502 -0.0918  1.7652  1.1465
    7MOL   H360 6852   6.388   2.781   6.829 -0.0163 -0.0082  1.3514
    7MOL   H361 6853   6.392   2.988   6.962 -0.9629  0.8391 -0.0879
    7MOL   H362 6854   6.433   3.352   7.095 -1.4144  2.8772  0.9852
    7MOL   H363 6855   6.276   3.533   7.056 -0.8876  1.0979 -0.1839
    7MOL   H364 6856   6.040   3.746   6.691  0.6455  0.4291 -2.1267
    7MOL   H365 6857   6.101   3.595   6.618  2.3634 -1.8042  0.0487
    7MOL   H366 6858   6.216   3.709   6.652 -0.7523  1.4735 -0.8425
    7MOL   H367 6859   6.037   3.496   6.985  1.3341  1.3358  0.9996
    7MOL   H368 6860   5.938   3.607   6.879 -0.2325 -1.0618  2.1172
    7MOL   H369 6861   6.012   3.466   6.810  0.5143 -0.4387  0.8893
    7MOL   H370 6862   6.001   3.788   7.022  0.1321  2.0860  3.3844
    7MOL   H371 6863   6.069   4.006   7.095  1.4261  0.9924  0.6436
    7MOL   H372 6864   6.472   3.933   6.964 -1.2042  0.1435 -3.9330
    7MOL   H373 6865   6.410   3.736   6.862 -0.9035 -0.1012 -2.1063
    7MOL   H374 6866   6.293   3.483   6.637 -3.0889  2.4518  1.7608
    7MOL   H375 6867   6.486   3.325   6.660 -0.8099  2.0437 -0.9852
    7MOL   H376 6868   6.679   3.155   6.678 -2.4218  2.7592  0.5960
    7MOL   H377 6869   6.643   2.956   6.541 -0.3701 -0.0913 -0.2624
    7MOL   H378 6870   6.467   2.878   6.354 -1.8583 -0.8556  0.4875
    7MOL   H379 6871   6.606   2.903   6.161  1.8615 -0.4671 -1.6253
    7MOL   C380 6872   6.349   4.110   7.237 -0.6234  0.1988  0.0211
    7MOL   C381 6873   6.269   4.191   7.321 -0.0497  0.1681  0.2427
    7MOL   C382 6874   6.304   4.203   7.453  0.6259 -0.1084 -0.9563
    7MOL   C383 6875   6.411   4.133   7.514 -0.2925  0.6959  0.1065
    7MOL   S384 6876   6.472   4.167   7.677 -0.1539 -0.1562  0.1827
    7MOL   O385 6877   6.542   4.048   7.727 -0.4682  0.1689 -0.0216
    7MOL   O386 6878   6.370   4.235   7.756  0.6895 -0.3365 -0.4890
    7MOL   C387 6879   6.601   4.289   7.641  0.0909 -0.3934 -0.2646
    7MOL   C388 6880   6.734   4.257   7.670  0.6220  0.0657 -0.1963
    7MOL   C389 6881   6.826   4.358   7.629  0.1362 -0.0523 -0.2772
    7MOL   C390 6882   6.788   4.484   7.574 -0.2187  0.4257 -0.0165
    7MOL   O391 6883   6.870   4.579   7.526  0.0850 -0.3242  0.2159
    7MOL   C392 6884   6.959   4.528   7.437 -0.4483  0.2808  0.1523
    7MOL   C393 6885   6.914   4.501   7.309  0.5475  0.3264 -0.4390
    7MOL   C394 6886   7.008   4.482   7.203 -0.2008 -0.5211  0.7711
    7MOL   C395 6887   7.149   4.489   7.229  0.0591 -0.7020 -0.4113
    7MOL   C396 6888   7.250   4.470   7.110 -0.2775 -0.9678  0.5976
    7MOL   C397 6889   7.393   4.513   7.145  0.1472  0.7603  0.4872
    7MOL   C398 6890   7.240   4.326   7.080 -0.4011 -0.4704  0.3879
    7MOL   C399 6891   7.212   4.550   6.987  0.5841  0.3325 -0.5391
    7MOL   C400 6892   7.173   4.490   6.858  0.3971  0.3203 -0.3910
    7MOL   C401 6893   7.099   4.563   6.762 -0.3524  0.1130  0.0275
    7MOL   C402 6894   7.074   4.697   6.781 -0.5374  0.3538 -0.4281
    7MOL   O403 6895   6.999   4.763   6.692  0.1066  0.2599  0.9544
    7MOL   C404 6896   7.121   4.764   6.897  0.1597 -0.0283 -0.1427
    7MOL   C405 6897   7.190   4.686   6.999  0.2255 -0.7860  0.2959
    7MOL   C406 6898   7.193   4.508   7.361  0.5778 -0.1917  0.1692
    7MOL   C407 6899   7.098   4.535   7.464 -0.0373 -0.6185 -0.4775
    7MOL   C408 6900   6.649   4.511   7.570  0.5132 -0.0911 -0.7813
    7MOL   C409 6901   6.553   4.415   7.599  0.7043 -0.2475 -0.3935
    7MOL   C410 6902   6.494   4.061   7.432 -0.4176  0.0947  0.0898
    7MOL   C411 6903   6.461   4.045   7.298  0.0308 -0.2571  0.5940
    7MOL   H412 6904   6.183   4.245   7.285 -0.5194 -2.4013 -2.6822
    7MOL   H413 6905   6.239   4.258   7.520  1.6142 -0.9498  0.7160
    7MOL   H414 6906   6.754   4.158   7.708  2.2854  0.4671  0.0365
    7MOL   H415 6907   6.931   4.343   7.648  0.8188  2.3197 -1.9294
    7MOL   H416 6908   6.811   4.522   7.285  0.2239 -0.3733  0.3030
    7MOL   H417 6909   6.967   4.488   7.103  1.2485  1.0321  0.2337
    7MOL   H418 6910   7.460   4.509   7.059  0.0662  0.0275  0.4509
    7MOL   H419 6911   7.433   4.440   7.216  1.3082  1.5829  0.6883
    7MOL   H420 6912   7.399   4.613   7.187  0.8949  0.7187  0.4802
    7MOL   H421 6913   7.142   4.301   7.042 -1.1816  2.7742  0.0764
    7MOL   H422 6914   7.314   4.302   7.003 -1.1794 -0.8214 -0.2470
    7MOL   H423 6915   7.253   4.271   7.174 -1.0318 -2.8527 -0.8900
    7MOL   H424 6916   7.185   4.386   6.831 -1.3406  0.1368 -0.4671
    7MOL   H425 6917   7.066   4.519   6.669 -1.0848 -1.0747  0.8350
    7MOL   H426 6918   7.101   4.866   6.925 -0.9518  0.0041 -1.0052
    7MOL   H427 6919   7.207   4.722   7.100 -1.2703 -0.8443  0.5863
    7MOL   H428 6920   7.297   4.510   7.389  0.1143  2.6538  1.9104
    7MOL   H429 6921   7.132   4.563   7.562 -1.6836  0.3638 -0.1794
    7MOL   H430 6922   6.618   4.606   7.529  0.1754 -0.5898 -1.6986
    7MOL   H431 6923   6.447   4.437   7.591  0.2468 -2.2020 -0.0041
    7MOL   H432 6924   6.587   4.023   7.470 -0.4179 -1.8453 -1.7747
    7MOL   H433 6925   6.538   3.994   7.243 -0.1482 -0.6053  0.6662
    7MOL   C434 6926   7.052   4.778   6.562 -0.4404 -0.6152  0.5615
    7MOL   C435 6927   6.986   4.718   6.449 -0.0349 -0.2577 -0.5946
    7MOL   C436 6928   7.033   4.745   6.320  0.5682 -0.3071 -0.2881
    7MOL   C437 6929   7.144   4.832   6.301 -0.0174  0.1545 -0.7555
    7MOL   S438 6930   7.231   4.853   6.142 -0.4244 -0.7060  0.0333
    7MOL   O439 6931   7.192   4.989   6.088 -1.2518  0.2314 -0.1155
    7MOL   O440 6932   7.191   4.731   6.070  0.2682 -0.6308 -0.2711
    7MOL   C441 6933   7.412   4.863   6.182  0.4575 -0.2666 -0.5876
    7MOL   C442 6934   7.492   4.980   6.158  0.5295  0.2767 -0.1390
    7MOL   C443 6935   7.628   4.975   6.196 -0.3467 -0.4310  0.8190
    7MOL   C444 6936   7.687   4.852   6.248  0.7148 -1.0536  0.2696
    7MOL   O445 6937   7.823   4.844   6.280  0.7468 -0.4349 -0.4375
    7MOL   C446 6938   7.870   4.900   6.394 -0.2864  0.5395 -0.8854
    7MOL   C447 6939   8.008   4.932   6.405  0.2821  0.3972  0.7115
    7MOL   C448 6940   8.062   4.974   6.526 -0.2323  0.3100  0.5673
    7MOL   C449 6941   7.980   4.993   6.643  0.4101 -0.3080 -0.3401
    7MOL   C450 6942   8.038   5.049   6.772 -0.1922 -0.2087 -0.3386
    7MOL   C451 6943   8.023   4.945   6.887 -0.2398 -0.2948  0.4040
    7MOL   C452 6944   8.187   5.073   6.767 -0.2351  0.0851  0.7354
    7MOL   C453 6945   7.963   5.183   6.814 -0.6821  0.4228  0.0913
    7MOL   C454 6946   7.937   5.217   6.947  0.6898 -0.0032  0.4550
    7MOL   C455 6947   7.873   5.343   6.981  0.2300 -0.2243  0.0610
    7MOL   C456 6948   7.828   5.430   6.876  0.2990 -0.2363 -0.0776
    7MOL   O457 6949   7.777   5.551   6.914  0.2766 -0.8120  0.3024
    7MOL   C458 6950   7.851   5.390   6.737 -0.3887 -0.0207  0.7778
    7MOL   C459 6951   7.918   5.267   6.711 -0.5594  0.3999 -0.1865
    7MOL   C460 6952   7.844   4.965   6.630 -0.0653  0.1906 -0.1304
    7MOL   C461 6953   7.789   4.910   6.511  0.1315  0.7522 -0.5437
    7MOL   C462 6954   7.605   4.738   6.256 -0.0698 -0.2010 -0.4257
    7MOL   C463 6955   7.469   4.743   6.223  0.5193 -0.0719  0.8020
    7MOL   C464 6956   7.208   4.898   6.411 -0.2312  0.0680 -0.3038
    7MOL   C465 6957   7.158   4.870   6.544  0.5321 -0.3021 -0.1169
    7MOL   H466 6958   6.890   4.671   6.465 -0.4862  0.6327 -0.6480
    7MOL   H467 6959   6.977   4.702   6.237  1.0351 -3.9071  1.1688
    7MOL   H468 6960   7.450   5.073   6.122  1.7791  1.1463  0.6173
    7MOL   H469 6961   7.680   5.069   6.194 -0.5562 -0.3385 -0.5342
    7MOL   H470 6962   8.075   4.928   6.320  0.0809  1.7069  0.4676
    7MOL   H471 6963   8.168   4.993   6.526  0.1019 -1.4558  0.1786
    7MOL   H472 6964   8.088   4.969   6.972 -0.8044  2.4396  0.1271
    7MOL   H473 6965   8.055   4.849   6.846 -0.0996  0.8207 -2.2020
    7MOL   H474 6966   7.920   4.938   6.922 -0.3041  2.4563  0.9260
    7MOL   H475 6967   8.214   5.114   6.865 -2.0164 -2.0586  2.1672
    7MOL   H476 6968   8.245   4.984   6.746  1.5924  0.9048  2.1384
    7MOL   H477 6969   8.205   5.157   6.700  0.7846  0.1085  1.0276
    7MOL   H478 6970   7.976   5.149   7.021 -2.8018 -2.5793  0.0674
    7MOL   H479 6971   7.866   5.367   7.086 -2.1665 -1.7963  0.2837
    7MOL   H480 6972   7.848   5.450   6.647 -0.0123  1.1726  1.5433
    7MOL   H481 6973   7.935   5.237   6.608 -0.5061  0.5560 -0.2234
    7MOL   H482 6974   7.785   4.992   6.717 -0.0402 -0.0200 -0.0459
    7MOL   H483 6975   7.689   4.870   6.515  0.5898 -0.4070 -0.5198
    7MOL   H484 6976   7.646   4.642   6.285  2.1247  1.0572  0.7398
    7MOL   H485 6977   7.405   4.655   6.223 -2.9048  2.3203 -0.6442
    7MOL   H486 6978   7.286   4.972   6.407  0.1787 -0.4359 -2.6024
    7MOL   H487 6979   7.204   4.922   6.627 -0.1017  0.5718 -0.2974
    7MOL   C488 6980   7.653   5.584   6.889  0.6596  0.4921  0.1655
    7MOL   C489 6981   7.546   5.503   6.914 -0.1359  0.3379 -0.5636
    7MOL   C490 6982   7.412   5.552   6.892 -0.3109 -0.1381 -0.1749
    7MOL   C491 6983   7.394   5.676   6.841  0.1605  0.2112  0.7225
    7MOL   S492 6984   7.224   5.728   6.801 -0.1731  0.1862  0.1401
    7MOL   O493 6985   7.191   5.835   6.895  0.2891  0.1703 -0.2025
    7MOL   O494 6986   7.132   5.613   6.788  0.5196  0.1450  0.3350
    7MOL   C495 6987   7.234   5.805   6.637 -0.6090  0.0440  0.4792
    7MOL   C496 6988   7.357   5.795   6.561 -0.0420  0.0934 -0.7827
    7MOL   C497 6989   7.372   5.870   6.441  0.3357  0.3965  0.6429
    7MOL   C498 6990   7.271   5.954   6.399  0.6495 -0.0281 -0.0418
    7MOL   O499 6991   7.291   6.040   6.296 -0.4427 -0.1280 -0.7594
    7MOL   C500 6992   7.280   5.989   6.165  0.4994  0.6768 -0.0762
    7MOL   C501 6993   7.165   5.923   6.125  0.4840 -0.1189  0.2140
    7MOL   C502 6994   7.166   5.854   6.008 -0.6846 -0.0199 -0.1078
    7MOL   C503 6995   7.280   5.841   5.923  0.5766 -0.1262 -0.2844
    7MOL   C504 6996   7.280   5.757   5.795  0.5110  1.2292 -0.9581
    7MOL   C505 6997   7.402   5.655   5.788 -0.2440 -0.0838  0.2875
    7MOL   C506 6998   7.151   5.670   5.787 -0.2956 -0.0456 -0.1371
    7MOL   C507 6999   7.278   5.860   5.685 -0.0347  0.3300 -0.7353
    7MOL   C508 7000   7.160   5.938   5.657  0.0578 -0.3303 -0.2922
    7MOL   C509 7001   7.160   6.034   5.553  0.3179  0.3272  0.1141
    7MOL   C510 7002   7.276   6.062   5.478 -0.1144  0.0017 -0.2700
    7MOL   O511 7003   7.274   6.163   5.382  0.1276 -0.3901  0.4126
    7MOL   C512 7004   7.393   5.994   5.505 -0.1487 -0.6881  0.0590
    7MOL   C513 7005   7.391   5.893   5.606 -0.1627 -0.2348  0.4552
    7MOL   C514 7006   7.400   5.889   5.973  0.0882 -0.5635  0.0002
    7MOL   C515 7007   7.399   5.970   6.091 -0.7933 -0.4461  0.7653
    7MOL   C516 7008   7.153   5.971   6.468  0.0155 -0.1213 -0.3067
    7MOL   C517 7009   7.129   5.887   6.582  0.0381 -0.5644 -0.5299
    7MOL   C518 7010   7.503   5.760   6.821 -0.0488 -0.1651 -0.1082
    7MOL   C519 7011   7.629   5.712   6.841  0.7384  0.2463  0.6238
    7MOL   H520 7012   7.545   5.401   6.949 -2.4579  0.5747  0.1994
    7MOL   H521 7013   7.325   5.488   6.902 -0.0008 -1.2360 -3.7375
    7MOL   H522 7014   7.439   5.730   6.585 -0.5878  0.1718  1.4021
    7MOL   H523 7015   7.462   5.856   6.382  1.0288  0.3899  1.6699
    7MOL   H524 7016   7.074   5.922   6.183 -0.7980  1.9070 -1.6890
    7MOL   H525 7017   7.071   5.808   5.983 -0.2724 -1.3770  0.7426
    7MOL   H526 7018   7.496   5.709   5.780 -1.0936  1.3451 -0.2485
    7MOL   H527 7019   7.403   5.578   5.712  1.0281  0.9521 -0.7733
    7MOL   H528 7020   7.395   5.597   5.880  0.8225  1.2125  1.2135
    7MOL   H529 7021   7.057   5.725   5.777 -0.0271  0.7150  1.4234
    7MOL   H530 7022   7.168   5.603   5.703 -0.4627  1.4965 -1.4365
    7MOL   H531 7023   7.144   5.606   5.875 -1.5552  0.4647  0.1450
    7MOL   H532 7024   7.069   5.935   5.715  0.6408  2.8890  0.9045
    7MOL   H533 7025   7.069   6.084   5.527 -0.7494 -2.4441 -1.6688
    7MOL   H534 7026   7.480   6.020   5.447  0.0595  0.1917  0.7348
    7MOL   H535 7027   7.482   5.835   5.614  0.2106  0.4369  1.1038
    7MOL   H536 7028   7.493   5.881   5.919  0.1598  2.4848 -0.4009
    7MOL   H537 7029   7.488   6.024   6.118 -0.7696 -0.4706  0.7367
    7MOL   H538 7030   7.077   6.032   6.422  0.4058  0.2433 -0.4593
    7MOL   H539 7031   7.034   5.885   6.634 -0.2245  0.3839 -0.9448
    7MOL   H540 7032   7.492   5.862   6.787  0.8157  0.8257  2.4032
    7MOL   H541 7033   7.713   5.779   6.836  0.3912  0.7772  1.8538
    7MOL   C542 7034   7.270   6.129   5.249  0.6316  0.1477  0.3813
    7MOL   C543 7035   7.241   5.998   5.200  0.4966 -0.7873  0.2254
    7MOL   C544 7036   7.239   5.973   5.059 -0.8357 -0.7845  0.8017
    7MOL   C545 7037   7.272   6.079   4.973  0.3558  0.2417 -0.4773
    7MOL   S546 7038   7.259   6.053   4.795 -0.1114 -0.2564 -0.4199
    7MOL   O547 7039   7.343   5.939   4.751  0.1826 -0.1531 -0.3410
    7MOL   O548 7040   7.278   6.184   4.730  0.2295  0.4500 -0.1380
    7MOL   C549 7041   7.093   6.001   4.769 -0.6757 -0.1870 -0.3430
    7MOL   C550 7042   6.996   6.003   4.875 -0.1863 -0.1159  0.1002
    7MOL   C551 7043   6.871   5.945   4.856  0.7800  0.5626  0.0698
    7MOL   C552 7044   6.833   5.883   4.730  0.2676 -0.2316 -0.8871
    7MOL   O553 7045   6.707   5.830   4.715 -0.0230  0.2777  0.4709
    7MOL   C554 7046   6.663   5.734   4.806  0.3257  1.0233 -0.5071
    7MOL   C555 7047   6.533   5.735   4.866  0.3175  0.0222  0.3081
    7MOL   C556 7048   6.502   5.635   4.962  0.3576  0.7220  0.3613
    7MOL   C557 7049   6.592   5.529   4.994  0.1757  0.4260  0.4988
    7MOL   C558 7050   6.547   5.416   5.103 -0.1538 -0.3789  0.4356
    7MOL   C559 7051   6.607   5.281   5.069 -0.0484 -0.1246  0.1007
    7MOL   C560 7052   6.613   5.463   5.229 -1.0606 -0.4528  0.2563
    7MOL   C561 7053   6.397   5.395   5.117  0.0063 -0.5778 -0.1135
    7MOL   C562 7054   6.305   5.389   5.006  0.3137  0.8873  0.3694
    7MOL   C563 7055   6.163   5.385   5.021 -0.0246  1.1739  0.1933
    7MOL   C564 7056   6.110   5.379   5.151  0.1319 -0.8366  0.3936
    7MOL   O565 7057   5.978   5.382   5.171  0.2727  0.0300 -0.3215
    7MOL   C566 7058   6.200   5.374   5.260  0.0119 -0.0897 -0.3102
    7MOL   C567 7059   6.341   5.389   5.247  0.6550 -0.0606 -0.2141
    7MOL   C568 7060   6.721   5.539   4.943 -0.0665 -0.2754 -0.1250
    7MOL   C569 7061   6.753   5.634   4.844  0.2481  1.0144  0.1526
    7MOL   C570 7062   6.932   5.875   4.630 -1.0394 -0.2996  0.4516
    7MOL   C571 7063   7.058   5.936   4.651  0.0668 -0.1748  0.2363
    7MOL   C572 7064   7.303   6.203   5.025  0.6388 -0.2426  0.0569
    7MOL   C573 7065   7.314   6.232   5.162 -0.6040  0.1652  1.1648
    7MOL   H574 7066   7.222   5.911   5.262  0.5532 -0.6077  0.4962
    7MOL   H575 7067   7.211   5.877   5.019  2.9789 -2.0293  0.9414
    7MOL   H576 7068   7.022   6.061   4.963  1.2458  1.7705 -1.5296
    7MOL   H577 7069   6.806   5.954   4.942  2.3620  2.1360  1.1239
    7MOL   H578 7070   6.457   5.808   4.841  0.1106 -0.1318  0.4922
    7MOL   H579 7071   6.404   5.631   5.007  0.0012 -0.5768 -0.4971
    7MOL   H580 7072   6.716   5.281   5.069 -0.0333  0.9473 -1.0171
    7MOL   H581 7073   6.568   5.260   4.969  0.9385 -1.8402  0.0528
    7MOL   H582 7074   6.567   5.203   5.134 -1.2505  1.0334  0.7845
    7MOL   H583 7075   6.565   5.548   5.278  0.7112  1.0157 -0.4901
    7MOL   H584 7076   6.611   5.378   5.297  0.0367 -0.9142 -0.2705
    7MOL   H585 7077   6.715   5.497   5.212 -0.8874 -0.4562  1.2123
    7MOL   H586 7078   6.337   5.388   4.903  2.4537  2.2660  0.9868
    7MOL   H587 7079   6.095   5.395   4.938  0.2300  2.2287  0.1167
    7MOL   H588 7080   6.147   5.374   5.354  0.2170 -2.3855 -0.1675
    7MOL   H589 7081   6.403   5.388   5.335  0.5709 -0.4032 -0.1564
    7MOL   H590 7082   6.805   5.477   4.969  0.0951 -0.2267 -0.5239
    7MOL   H591 7083   6.851   5.631   4.797  0.6551  1.7578  0.9531
    7MOL   H592 7084   6.904   5.829   4.536 -0.4828  0.5642 -0.1400
    7MOL   H593 7085   7.126   5.935   4.567 -0.3726 -1.8239 -0.1317
    7MOL   H594 7086   7.334   6.285   4.962 -0.8616 -0.2733 -0.7468
    7MOL   H595 7087   7.344   6.332   5.191 -2.2380  1.0184  0.0346
    7MOL   C596 7088   5.927   5.482   5.239 -0.1945  0.0455 -0.5423
    7MOL   C597 7089   5.833   5.462   5.345 -0.7257  0.4303 -0.0234
    7MOL   C598 7090   5.782   5.569   5.415  0.3776  0.4177 -0.4732
    7MOL   C599 7091   5.826   5.698   5.384  0.5133 -0.4978  0.4380
    7MOL   S600 7092   5.772   5.833   5.496 -0.1100  0.2772 -0.1454
    7MOL   O601 7093   5.658   5.803   5.579  0.3939  0.2428  0.2709
    7MOL   O602 7094   5.754   5.944   5.404 -0.0452  0.1324 -0.4817
    7MOL   C603 7095   5.899   5.883   5.607  0.0379  0.3957  0.1287
    7MOL   C604 7096   5.887   5.842   5.741  0.6727  0.6046  0.4016
    7MOL   C605 7097   5.989   5.875   5.837 -0.0863  0.4598  0.0100
    7MOL   C606 7098   6.088   5.962   5.794 -0.2680  0.2763 -0.8146
    7MOL   O607 7099   6.178   6.003   5.890 -0.2491  0.5107  0.2301
    7MOL   C608 7100   6.309   5.960   5.878 -0.2473  0.5150  0.7418
    7MOL   C609 7101   6.358   5.831   5.908  0.0182 -0.0727 -0.2346
    7MOL   C610 7102   6.496   5.802   5.908  0.1637 -0.3682  0.4725
    7MOL   C611 7103   6.590   5.906   5.884 -0.5628  0.1776 -0.7390
    7MOL   C612 7104   6.736   5.877   5.881  0.5182 -0.3438 -0.2691
    7MOL   C613 7105   6.761   5.839   5.736 -0.5359 -0.2469 -0.5281
    7MOL   C614 7106   6.827   5.990   5.912 -0.7702  0.0724  0.1671
    7MOL   C615 7107   6.778   5.770   5.985 -0.7630 -0.1369 -0.6492
    7MOL   C616 7108   6.842   5.647   5.943 -0.3656 -0.1247  0.8289
    7MOL   C617 7109   6.884   5.555   6.038 -0.1909  0.3721 -0.5892
    7MOL   C618 7110   6.864   5.585   6.172 -0.0022 -0.2014 -0.2104
    7MOL   O619 7111   6.900   5.493   6.267  0.3299 -0.3457  0.0141
    7MOL   C620 7112   6.792   5.701   6.209 -0.2401  0.0689 -0.1287
    7MOL   C621 7113   6.749   5.789   6.114 -0.8009  0.3056 -0.7519
    7MOL   C622 7114   6.544   6.036   5.861 -0.0511  0.1636 -0.0732
    7MOL   C623 7115   6.405   6.059   5.848 -0.4076 -0.3647  0.2620
    7MOL   C624 7116   6.110   5.991   5.659 -0.3683 -0.1227 -0.0368
    7MOL   C625 7117   6.016   5.954   5.557  0.5528  0.2356  0.0358
    7MOL   C626 7118   5.909   5.724   5.273 -0.0476 -0.5115  0.0171
    7MOL   C627 7119   5.963   5.616   5.206  0.4596  0.3738  0.1048
    7MOL   H628 7120   5.801   5.359   5.352  0.9102 -0.1424 -0.6031
    7MOL   H629 7121   5.717   5.572   5.501 -3.2230  0.1412 -3.0748
    7MOL   H630 7122   5.798   5.788   5.772  1.2206  0.5091  1.8635
    7MOL   H631 7123   5.991   5.841   5.939 -0.2141 -0.4671 -0.2928
    7MOL   H632 7124   6.286   5.752   5.925  0.8324 -0.8410 -0.3152
    7MOL   H633 7125   6.534   5.703   5.926  2.1892 -0.0452 -1.7388
    7MOL   H634 7126   6.864   5.819   5.705 -0.9483 -1.2351 -1.3198
    7MOL   H635 7127   6.729   5.922   5.673  0.8209  1.5785  1.1465
    7MOL   H636 7128   6.706   5.749   5.709 -1.5717  0.5393 -1.0470
    7MOL   H637 7129   6.811   6.035   6.010  1.5578  1.3424  0.0046
    7MOL   H638 7130   6.925   5.946   5.899 -0.4515  1.3593 -2.0911
    7MOL   H639 7131   6.839   6.075   5.844  0.6688  1.0254  1.5746
    7MOL   H640 7132   6.851   5.612   5.841 -1.2807  0.4034  0.5548
    7MOL   H641 7133   6.946   5.469   6.017  0.8707  0.5248  1.7979
    7MOL   H642 7134   6.768   5.710   6.314 -0.5954  0.4554 -0.2420
    7MOL   H643 7135   6.699   5.881   6.141  1.3422  1.6182 -1.1535
    7MOL   H644 7136   6.610   6.119   5.842 -0.4912  0.2731 -1.1768
    7MOL   H645 7137   6.371   6.160   5.832  0.9859 -0.1369 -1.3916
    7MOL   H646 7138   6.201   6.049   5.650 -0.8830  0.7067  0.0264
    7MOL   H647 7139   6.019   5.984   5.454  0.4282 -0.3087 -0.1271
    7MOL   H648 7140   5.944   5.820   5.238 -2.4518 -0.0367 -1.1638
    7MOL   H649 7141   6.034   5.631   5.125  2.6531  0.0733  1.9058
    7MOL   C650 7142   7.035   5.463   6.281 -0.3688 -0.1864 -0.7209
    7MOL   C651 7143   7.122   5.553   6.341  0.2058 -0.4605 -0.1486
    7MOL   C652 7144   7.247   5.511   6.388  1.0067  0.0606  0.2098
    7MOL   C653 7145   7.286   5.381   6.366 -0.1350 -0.6150  0.1530
    7MOL   S654 7146   7.449   5.333   6.434  0.2554  0.2603 -0.2030
    7MOL   O655 7147   7.507   5.457   6.489  0.0619 -0.4226 -0.2370
    7MOL   O656 7148   7.525   5.253   6.334  0.3334 -0.4120 -0.0327
    7MOL   C657 7149   7.418   5.248   6.594  0.0731  0.2726 -0.7555
    7MOL   C658 7150   7.502   5.139   6.622  0.0045  0.0748 -0.4182
    7MOL   C659 7151   7.481   5.066   6.745  0.3763 -0.1823 -0.6660
    7MOL   C660 7152   7.383   5.113   6.833 -0.6483 -0.8205 -0.6325
    7MOL   O661 7153   7.343   5.051   6.947  0.1171 -0.0152 -0.1013
    7MOL   C662 7154   7.419   5.037   7.058  0.5477  0.8132 -0.3716
    7MOL   C663 7155   7.423   5.137   7.158  0.0259  0.4236 -0.1274
    7MOL   C664 7156   7.498   5.115   7.274 -0.6767 -0.6287  0.9743
    7MOL   C665 7157   7.567   4.994   7.293  0.0116  0.1338  0.3105
    7MOL   C666 7158   7.641   4.961   7.426 -0.4502 -0.3444  0.0874
    7MOL   C667 7159   7.628   5.075   7.525 -0.5850  0.5823  0.8469
    7MOL   C668 7160   7.567   4.837   7.485  0.7382 -0.1585 -0.1986
    7MOL   C669 7161   7.789   4.940   7.403 -0.3945  0.6020  0.1011
    7MOL   C670 7162   7.865   4.829   7.455 -0.0353  0.1776  0.2023
    7MOL   C671 7163   8.006   4.817   7.434  0.3920 -0.0466 -0.6894
    7MOL   C672 7164   8.072   4.930   7.384 -0.5524 -0.2783 -0.7764
    7MOL   O673 7165   8.206   4.933   7.395 -0.2240  0.5005  0.2382
    7MOL   C674 7166   7.999   5.039   7.332  0.4848 -0.1501 -0.3709
    7MOL   C675 7167   7.857   5.042   7.340 -0.2645 -0.4209  0.6539
    7MOL   C676 7168   7.557   4.887   7.201  0.1685 -0.5436  0.1602
    7MOL   C677 7169   7.484   4.905   7.086  0.9006 -0.1638  0.2161
    7MOL   C678 7170   7.299   5.221   6.802 -0.1995 -0.1523 -0.2250
    7MOL   C679 7171   7.312   5.282   6.681 -1.0315  0.1384 -0.0069
    7MOL   C680 7172   7.213   5.286   6.293  0.3447 -0.6079  0.4561
    7MOL   C681 7173   7.083   5.332   6.256 -0.1374 -0.2691 -0.8329
    7MOL   H682 7174   7.094   5.657   6.352 -0.7691 -0.6627 -0.6849
    7MOL   H683 7175   7.309   5.587   6.432  0.6850  0.3537  0.1557
    7MOL   H684 7176   7.590   5.107   6.567  0.5232 -0.2188  0.5583
    7MOL   H685 7177   7.537   4.978   6.773 -1.5978 -0.7968  1.4364
    7MOL   H686 7178   7.355   5.221   7.160  0.4646  0.8180 -1.2199
    7MOL   H687 7179   7.492   5.192   7.349 -0.1730  0.3638  0.0139
    7MOL   H688 7180   7.685   5.041   7.611  2.2960  1.5179 -0.6234
    7MOL   H689 7181   7.524   5.094   7.554 -0.5710  0.0103  1.2778
    7MOL   H690 7182   7.674   5.167   7.488 -1.2960 -0.0598 -1.7562
    7MOL   H691 7183   7.459   4.849   7.486  0.6613 -0.7864  2.5005
    7MOL   H692 7184   7.583   4.756   7.413 -0.7146 -1.0256  0.4288
    7MOL   H693 7185   7.596   4.803   7.585  1.5900 -2.7123 -1.2780
    7MOL   H694 7186   7.818   4.744   7.503 -1.1252 -0.6487 -2.2530
    7MOL   H695 7187   8.064   4.729   7.459  1.5078  1.2080  1.3128
    7MOL   H696 7188   8.052   5.121   7.285 -1.1613  0.4646 -1.2072
    7MOL   H697 7189   7.806   5.129   7.303  0.7510 -0.1190 -0.0721
    7MOL   H698 7190   7.610   4.794   7.211 -0.3456 -0.9034 -0.4136
    7MOL   H699 7191   7.497   4.836   7.004 -0.0081 -1.0394  0.8002
    7MOL   H700 7192   7.217   5.243   6.869 -1.3212 -0.1612 -1.5498
    7MOL   H701 7193   7.239   5.357   6.654 -2.5271 -1.3967 -0.3171
    7MOL   H702 7194   7.235   5.181   6.287 -0.2574 -0.7247  0.2180
    7MOL   H703 7195   7.021   5.264   6.199  0.0737 -1.9790  0.9328
    7MOL   C704 7196   0.019   4.948   7.279 -0.1973 -0.4833 -0.0626
    7MOL   C705 7197   0.130   5.038   7.279  0.4905  0.7161 -0.3357
    7MOL   C706 7198   0.221   5.033   7.173  0.9192 -0.2756 -0.4076
    7MOL   C707 7199   0.209   4.933   7.071  0.0338  0.3123  0.1233
    7MOL   S708 7200   0.336   4.908   6.948  0.3032  0.3996 -0.2904
    7MOL   O709 7201   0.271   4.886   6.818 -0.0258  0.9873  0.7336
    7MOL   O710 7202   0.426   4.807   7.003 -0.0513 -0.2248 -0.9832
    7MOL   C711 7203   0.421   5.057   6.931  0.6450 -0.1641 -0.4267
    7MOL   C712 7204   0.347   5.168   6.880 -0.1849  0.1961  0.0020
    7MOL   C713 7205   0.409   5.293   6.861  0.5584 -0.8074 -0.5949
    7MOL   C714 7206   0.539   5.315   6.893  0.3418 -0.2110  1.0002
    7MOL   O715 7207   0.593   5.439   6.877 -0.1001  0.1759 -0.4216
    7MOL   C716 7208   0.732   5.459   6.878  0.1490  0.6657  0.1209
    7MOL   C717 7209   0.807   5.400   6.775 -1.2225  0.4466 -0.4736
    7MOL   C718 7210   0.950   5.418   6.771  0.0739  0.9026 -0.1619
    7MOL   C719 7211   1.015   5.503   6.862 -0.1373 -0.0662  0.2550
    7MOL   C720 7212   1.167   5.530   6.853 -0.0250  0.6916  0.2660
    7MOL   C721 7213   1.206   5.565   6.709  0.1610  0.1238  0.4225
    7MOL   C722 7214   1.197   5.661   6.944 -0.3286  0.4014  0.0534
    7MOL   C723 7215   1.236   5.408   6.907  0.0667 -0.4426  0.0291
    7MOL   C724 7216   1.203   5.369   7.041 -0.3000  0.2111 -0.1292
    7MOL   C725 7217   1.272   5.264   7.110  0.4469  0.0334 -0.2089
    7MOL   C726 7218   1.365   5.185   7.038 -0.2149  0.0064 -0.3544
    7MOL   O727 7219   1.436   5.083   7.098 -0.5147  0.3725 -0.1642
    7MOL   C728 7220   1.387   5.213   6.900  0.5780 -0.1691  0.2907
    7MOL   C729 7221   1.329   5.328   6.837  0.0168  0.1435 -0.8511
    7MOL   C730 7222   0.937   5.562   6.961  0.3541  0.1467 -0.5267
    7MOL   C731 7223   0.797   5.541   6.973  0.5615 -0.0692 -0.3858
    7MOL   C732 7224   0.616   5.208   6.951 -0.4284 -0.2605 -0.2485
    7MOL   C733 7225   0.556   5.083   6.965  0.1078 -0.2088 -0.5259
    7MOL   C734 7226   0.093   4.852   7.065  0.2970 -0.6882  0.4059
    7MOL   C735 7227   0.001   4.854   7.171 -0.4731  0.5519  0.0790
    7MOL   H736 7228   0.147   5.099   7.366 -0.1157 -0.3721  0.5506
    7MOL   H737 7229   0.320   5.075   7.164  0.4207  0.5498 -2.3579
    7MOL   H738 7230   0.248   5.146   6.844 -0.7194  1.3872  0.7425
    7MOL   H739 7231   0.350   5.372   6.816 -0.3753 -0.0238  1.9051
    7MOL   H740 7232   0.755   5.340   6.702 -0.0658 -1.4803  0.2474
    7MOL   H741 7233   1.004   5.371   6.690  1.6100 -0.9090  1.8689
    7MOL   H742 7234   1.147   5.647   6.668  1.7770  1.0562 -0.0666
    7MOL   H743 7235   1.191   5.475   6.649 -2.2574  1.3841 -0.9010
    7MOL   H744 7236   1.307   5.604   6.715  0.5805 -0.7499 -0.8203
    7MOL   H745 7237   1.181   5.647   7.051  1.7478 -0.0527  0.3318
    7MOL   H746 7238   1.302   5.692   6.941 -0.2362  0.8156  4.1707
    7MOL   H747 7239   1.141   5.744   6.901 -1.2717 -0.9184 -1.3046
    7MOL   H748 7240   1.141   5.437   7.098 -0.8731  1.6547 -2.4140
    7MOL   H749 7241   1.236   5.235   7.208  1.2605 -1.3192 -0.3043
    7MOL   H750 7242   1.440   5.142   6.838  0.6796 -1.6185  2.0046
    7MOL   H751 7243   1.371   5.348   6.740  0.4763 -0.7995 -0.8551
    7MOL   H752 7244   0.974   5.636   7.031  1.4671 -1.5912  0.7604
    7MOL   H753 7245   0.744   5.583   7.057 -0.9302 -2.5747 -0.0315
    7MOL   H754 7246   0.720   5.203   6.981 -1.4173  2.3660  3.8711
    7MOL   H755 7247   0.623   5.007   7.002  0.4706  0.6950  0.7071
    7MOL   H756 7248   0.072   4.778   6.988  2.3562 -0.5217 -0.3241
    7MOL   H757 7249   8.183   4.773   7.171  1.4576 -1.1957 -0.8443
    7MOL   C758 7250   1.377   5.001   7.192 -0.6188 -0.8446  0.6323
    7MOL   C759 7251   1.458   4.958   7.301  0.6193 -0.3563  0.1042
    7MOL   C760 7252   1.411   4.861   7.395  0.4188 -0.1012  0.2080
    7MOL   C761 7253   1.280   4.801   7.375  0.0441 -0.2665 -0.1798
    7MOL   S762 7254   1.210   4.690   7.498 -0.5111  0.2459  0.0091
    7MOL   O763 7255   1.320   4.630   7.575 -0.6384  0.2644 -0.3911
    7MOL   O764 7256   1.113   4.603   7.437  0.5559  0.0144 -0.3474
    7MOL   C765 7257   1.110   4.800   7.603  0.0286  0.0756 -0.6522
    7MOL   C766 7258   0.981   4.832   7.577  0.7809 -0.4505 -0.1667
    7MOL   C767 7259   0.910   4.927   7.663 -0.4384  0.4722  0.8258
    7MOL   C768 7260   0.978   4.978   7.777 -0.2591  0.0920 -0.2123
    7MOL   O769 7261   0.906   5.058   7.863  0.3197  0.3339 -0.2574
    7MOL   C770 7262   0.887   5.195   7.833  0.4327  0.5262 -0.0773
    7MOL   C771 7263   0.783   5.249   7.752 -0.5722  0.3885  0.8618
    7MOL   C772 7264   0.776   5.383   7.732 -0.2415  0.3060 -0.4496
    7MOL   C773 7265   0.858   5.466   7.808  0.0463 -0.1954 -0.2166
    7MOL   C774 7266   0.839   5.620   7.808 -0.1033 -0.5061  1.0984
    7MOL   C775 7267   0.958   5.676   7.723  0.0783  0.0754 -0.4205
    7MOL   C776 7268   0.710   5.662   7.735 -0.3351  0.8159 -0.4530
    7MOL   C777 7269   0.847   5.673   7.953  0.3085  0.3446 -0.1290
    7MOL   C778 7270   0.943   5.766   7.997  0.0501 -0.2762  0.0227
    7MOL   C779 7271   0.949   5.815   8.126 -0.6906  0.7011 -0.9757
    7MOL   C780 7272   0.847   5.779   8.214 -0.0829  0.4506  0.4859
    7MOL   O781 7273   0.857   5.820   0.089 -0.2340  0.4868 -0.1708
    7MOL   C782 7274   0.743   5.687   8.175  0.1703  0.4753 -0.4102
    7MOL   C783 7275   0.744   5.631   8.042 -0.4821 -0.3039  0.3620
    7MOL   C784 7276   0.967   5.422   7.889  0.2332  0.1841  0.3273
    7MOL   C785 7277   0.978   5.285   7.893  0.3288  0.0225  0.4855
    7MOL   C786 7278   1.114   4.935   7.801 -0.0754  0.0044 -0.4502
    7MOL   C787 7279   1.180   4.848   7.716 -0.1680  0.7680  0.9927
    7MOL   C788 7280   1.200   4.837   7.265 -0.2321  0.4272  0.4716
    7MOL   C789 7281   1.246   4.943   7.182  0.0151  0.5561 -0.4701
    7MOL   H790 7282   1.559   4.995   7.308  0.5207  0.0168 -0.4179
    7MOL   H791 7283   1.481   4.824   7.468 -0.9674 -1.4514  0.8674
    7MOL   H792 7284   0.922   4.768   7.513  2.3965 -0.8914 -1.2583
    7MOL   H793 7285   0.804   4.938   7.650 -0.2674  1.0518 -0.1318
    7MOL   H794 7286   0.723   5.183   7.692  1.1650 -0.0924 -0.4011
    7MOL   H795 7287   0.692   5.412   7.670 -0.3202 -3.7508 -2.4151
    7MOL   H796 7288   0.971   5.638   7.622  1.0952  0.2806 -0.3661
    7MOL   H797 7289   1.060   5.671   7.760 -0.1093 -0.3319  0.0596
    7MOL   H798 7290   0.943   5.783   7.712 -0.2904 -0.1561 -2.4698
    7MOL   H799 7291   0.698   5.770   7.723 -0.2022  1.0694  1.4934
    7MOL   H800 7292   0.706   5.632   7.631 -0.4317 -0.4662 -0.0847
    7MOL   H801 7293   0.616   5.625   7.777  1.5415 -3.0196  0.5679
    7MOL   H802 7294   1.028   5.789   7.935 -0.9036 -2.3687 -2.1711
    7MOL   H803 7295   1.028   5.879   8.164  1.7825 -0.4855 -3.8619
    7MOL   H804 7296   0.671   5.666   8.252  2.3363  0.4926  1.6674
    7MOL   H805 7297   0.663   5.566   8.011 -0.1675 -0.1149 -0.8908
    7MOL   H806 7298   1.032   5.492   7.939  0.3415 -1.5582  2.7045
    7MOL   H807 7299   1.068   5.249   7.941 -0.4178 -0.5836  1.4589
    7MOL   H808 7300   1.169   4.973   7.886 -0.0440 -0.3540 -0.3111
    7MOL   H809 7301   1.285   4.832   7.735 -0.6088 -0.1881  2.7686
    7MOL   H810 7302   1.100   4.799   7.248 -0.3142  0.2824  1.2546
    7MOL   H811 7303   1.191   4.965   7.092 -0.8262 -2.5051 -0.7550
    7MOL   C812 7304   0.920   5.939   0.123  0.0207  0.7875  0.2916
    7MOL   C813 7305   0.870   6.064   0.094  0.7461  0.1845 -0.0479
    7MOL   C814 7306   0.939   6.182   0.119 -0.2859  0.8542  0.2566
    7MOL   C815 7307   1.064   6.168   0.176  1.0595 -0.3940  0.1490
    7MOL   S816 7308   1.167   6.316   0.200 -0.0715 -0.4061 -0.0612
    7MOL   O817 7309   1.300   6.275   0.240 -0.4021  0.3097 -0.3453
    7MOL   O818 7310   1.093   6.419   0.276 -0.6073  0.2005 -0.3076
    7MOL   C819 7311   1.176   6.383   0.033  0.2400 -0.0849 -0.2365
    7MOL   C820 7312   1.249   6.312   8.194 -0.8402  0.1029  0.5185
    7MOL   C821 7313   1.273   6.369   8.066 -0.2609  0.2065 -0.4499
    7MOL   C822 7314   1.225   6.500   8.030  0.6079 -0.7669  0.1220
    7MOL   O823 7315   1.249   6.559   7.906 -0.9389  0.1398  0.2177
    7MOL   C824 7316   1.332   6.494   7.818  0.3289 -0.3776  0.7612
    7MOL   C825 7317   1.474   6.528   7.820  0.0595  0.1693  0.0294
    7MOL   C826 7318   1.568   6.467   7.734 -0.4501 -0.1158  0.2735
    7MOL   C827 7319   1.524   6.360   7.652  0.6532  0.5834  0.3637
    7MOL   C828 7320   1.627   6.290   7.559 -0.5063 -0.3056 -0.9116
    7MOL   C829 7321   1.776   6.328   7.592  0.5156  0.7501 -0.1434
    7MOL   C830 7322   1.621   6.138   7.577  0.0535  0.1467 -0.1126
    7MOL   C831 7323   1.602   6.323   7.409  0.1156  0.1686 -0.1104
    7MOL   C832 7324   1.694   6.277   7.310 -0.4455 -0.7175  0.2511
    7MOL   C833 7325   1.677   6.304   7.173  0.0014 -1.0462 -0.3187
    7MOL   C834 7326   1.568   6.379   7.131  0.1184  0.3691  0.1050
    7MOL   O835 7327   1.554   6.421   7.005  0.0907 -0.3130  0.2048
    7MOL   C836 7328   1.469   6.423   7.228 -0.6139 -0.5928 -0.3722
    7MOL   C837 7329   1.487   6.392   7.362  0.4854 -0.4734 -0.1912
    7MOL   C838 7330   1.387   6.319   7.661  0.4608 -1.0746 -0.0150
    7MOL   C839 7331   1.287   6.392   7.737 -0.0021  0.9522 -0.6727
    7MOL   C840 7332   1.149   6.575   8.127 -0.4740  0.6648 -0.3952
    7MOL   C841 7333   1.121   6.515   0.002 -0.4634 -0.6041  0.2449
    7MOL   C842 7334   1.111   6.039   0.221 -0.1662 -0.4305  0.1007
    7MOL   C843 7335   1.035   5.927   0.195 -0.4257 -0.1806  0.2974
    7MOL   H844 7336   0.776   6.070   0.041  1.3778 -0.0727 -1.2324
    7MOL   H845 7337   0.907   6.280   0.088  0.7662  1.2525  0.4186
    7MOL   H846 7338   1.291   6.214   8.210  1.7322  1.3149  1.6038
    7MOL   H847 7339   1.319   6.308   7.989 -0.1855 -1.0066  0.5391
    7MOL   H848 7340   1.503   6.603   7.892  1.2602  0.3978 -0.6814
    7MOL   H849 7341   1.670   6.503   7.741 -0.4208  0.0856 -0.9777
    7MOL   H850 7342   1.846   6.266   7.537  2.4204  2.2171  0.5458
    7MOL   H851 7343   1.802   6.313   7.697  2.1524 -2.4855 -0.9266
    7MOL   H852 7344   1.804   6.430   7.566 -0.3939  0.8461 -0.7408
    7MOL   H853 7345   1.522   6.105   7.545 -0.8295 -0.5045  3.1071
    7MOL   H854 7346   1.683   6.076   7.511 -0.1595  0.6113 -0.7540
    7MOL   H855 7347   1.620   6.108   7.682 -2.0947  0.5600  0.0010
    7MOL   H856 7348   1.779   6.213   7.332 -1.1989 -1.6988  0.3429
    7MOL   H857 7349   1.743   6.269   7.095  2.4387  3.2081 -0.3127
    7MOL   H858 7350   1.386   6.488   7.206 -1.8127 -2.1023 -0.3815
    7MOL   H859 7351   1.408   6.420   7.430 -0.0380  0.4581 -1.1833
    7MOL   H860 7352   1.359   6.233   7.603  0.4874 -1.2762  0.2699
    7MOL   H861 7353   1.185   6.358   7.730 -0.4038  1.9436  0.1871
    7MOL   H862 7354   1.114   6.672   8.097 -0.9987  0.5291 -0.2303
    7MOL   H863 7355   1.079   6.566   0.087  0.2807  1.7789 -0.7733
    7MOL   H864 7356   1.206   6.032   0.273 -0.7393 -0.5069  1.1426
    7MOL   H865 7357   1.071   5.832   0.233  2.2455  1.5305  2.2993
    7MOL   C866 7358   1.491   6.332   6.925 -0.2484 -0.4117  0.3240
    7MOL   C867 7359   1.351   6.335   6.918  0.0490  0.1441 -0.2178
    7MOL   C868 7360   1.292   6.239   6.841 -0.4616  0.0329  0.3257
    7MOL   C869 7361   1.367   6.146   6.768  0.2116  0.1968  0.0957
    7MOL   S870 7362   1.268   6.031   6.666  0.2026 -0.0203  0.1662
    7MOL   O871 7363   1.151   5.992   6.739 -0.1015 -0.7241  0.2334
    7MOL   O872 7364   1.360   5.928   6.610  0.6181 -0.0903  0.4178
    7MOL   C873 7365   1.225   6.128   6.520  0.0685 -0.7203 -0.7368
    7MOL   C874 7366   1.325   6.187   6.436 -0.8481  0.4087  0.2789
    7MOL   C875 7367   1.284   6.240   6.311  0.5405  0.0816 -0.4026
    7MOL   C876 7368   1.154   6.232   6.262  0.2232 -0.2740 -0.9301
    7MOL   O877 7369   1.112   6.273   6.138 -0.8080 -0.6106  0.4279
    7MOL   C878 7370   1.088   6.407   6.130 -0.0186 -0.4583  0.3559
    7MOL   C879 7371   0.963   6.463   6.161 -0.0087 -0.8638 -0.2553
    7MOL   C880 7372   0.952   6.604   6.166 -0.2196  0.3959  0.7367
    7MOL   C881 7373   1.059   6.687   6.117  0.4580 -0.1928  0.2858
    7MOL   C882 7374   1.049   6.842   6.110  0.9697 -0.1122  0.4199
    7MOL   C883 7375   1.065   6.867   5.956  0.5862 -0.4361  0.3549
    7MOL   C884 7376   0.921   6.896   6.167 -0.4099 -0.4484 -0.2521
    7MOL   C885 7377   1.160   6.916   6.182 -0.1149  0.8570  0.6327
    7MOL   C886 7378   1.202   7.046   6.146  0.6132  1.0989 -0.1346
    7MOL   C887 7379   1.315   7.105   6.209  0.1220 -0.3612  0.9821
    7MOL   C888 7380   1.373   7.052   6.324  0.8218  0.5933  0.5624
    7MOL   O889 7381   1.482   7.105   6.384  0.8059  0.0578 -0.1074
    7MOL   C890 7382   1.320   6.928   6.368  0.6801 -1.2858 -0.8180
    7MOL   C891 7383   1.220   6.859   6.295  0.0244 -0.2462 -0.0129
    7MOL   C892 7384   1.174   6.619   6.077 -0.1359 -0.1081  0.1560
    7MOL   C893 7385   1.196   6.485   6.085 -0.1867  0.5693 -0.1593
    7MOL   C894 7386   1.055   6.179   6.351  0.5067 -0.0458 -0.4429
    7MOL   C895 7387   1.087   6.136   6.482 -0.0519  0.1813 -0.2769
    7MOL   C896 7388   1.508   6.149   6.764  0.6926 -0.4088 -0.4086
    7MOL   C897 7389   1.566   6.248   6.842 -0.0749 -0.7009  0.4363
    7MOL   H898 7390   1.286   6.401   6.974 -0.0979 -1.2088  1.2342
    7MOL   H899 7391   1.184   6.233   6.842 -0.3814 -1.8025  0.9605
    7MOL   H900 7392   1.427   6.197   6.471 -0.8568 -0.3830  0.5343
    7MOL   H901 7393   1.357   6.273   6.239  0.3757  1.1585 -0.0826
    7MOL   H902 7394   0.883   6.407   6.207  0.2829 -0.6771  0.4823
    7MOL   H903 7395   0.862   6.653   6.202  0.1550  0.6345  1.3535
    7MOL   H904 7396   1.043   6.971   5.931 -0.9912 -0.8382  0.0377
    7MOL   H905 7397   0.987   6.808   5.907 -1.3047  1.9322  0.3935
    7MOL   H906 7398   1.164   6.842   5.918  0.4991  1.1288 -0.9928
    7MOL   H907 7399   0.834   6.852   6.118  0.8027 -1.2983 -1.6939
    7MOL   H908 7400   0.914   6.886   6.275  2.2419  0.3870  0.0312
    7MOL   H909 7401   0.915   7.001   6.139 -0.6198 -0.0943  1.0626
    7MOL   H910 7402   1.144   7.102   6.074 -1.7049 -0.0620  0.7850
    7MOL   H911 7403   1.349   7.201   6.173  0.7571 -0.4915  1.2286
    7MOL   H912 7404   1.348   6.885   6.462 -1.7460 -2.0609 -0.4161
    7MOL   H913 7405   1.188   6.760   6.322 -0.7247  0.2321  0.8297
    7MOL   H914 7406   1.257   6.677   6.040  1.0760 -1.5088  0.6028
    7MOL   H915 7407   1.292   6.441   6.063 -0.0312 -0.0260  1.6418
    7MOL   H916 7408   0.954   6.158   6.321  0.0350  0.3343  0.8484
    7MOL   H917 7409   1.013   6.104   6.553  0.8204  0.2612  0.6895
    7MOL   H918 7410   1.557   6.077   6.701  0.4800 -0.4739 -0.4993
    7MOL   H919 7411   1.674   6.257   6.847 -0.0056 -0.8339 -0.6696
    7MOL   C920 7412   1.462   7.176   6.497 -0.2291 -0.7609  0.1101
    7MOL   C921 7413   1.362   7.146   6.596 -0.5630 -0.5515  0.3691
    7MOL   C922 7414   1.344   7.228   6.712 -0.0063  0.3127 -0.8746
    7MOL   C923 7415   1.430   7.341   6.726  0.2760 -0.2187  0.4503
    7MOL   S924 7416   1.413   7.450   6.871  0.1640 -0.0682 -0.1182
    7MOL   O925 7417   1.291   7.411   6.946  0.3572 -0.0830  0.1582
    7MOL   O926 7418   1.420   7.590   6.821 -0.7841 -0.0235  0.0142
    7MOL   C927 7419   1.551   7.418   6.982  0.0447 -0.0141  0.3041
    7MOL   C928 7420   1.619   7.296   6.970 -0.0322 -0.2959  0.8299
    7MOL   C929 7421   1.717   7.264   7.068  0.0470  0.1899  0.4586
    7MOL   C930 7422   1.748   7.355   7.170  0.2624 -0.5890 -0.7207
    7MOL   O931 7423   1.832   7.322   7.274 -0.6284  0.2134  0.1951
    7MOL   C932 7424   1.839   7.188   7.313  0.2099  0.0823 -0.1322
    7MOL   C933 7425   1.964   7.116   7.324  0.5782 -1.0770 -0.3215
    7MOL   C934 7426   1.963   6.979   7.359  0.3553  0.7482  0.9138
    7MOL   C935 7427   1.842   6.903   7.371  0.4697  0.7590  0.2798
    7MOL   C936 7428   1.845   6.749   7.396  0.4010  0.4521  0.1631
    7MOL   C937 7429   1.938   6.714   7.511 -0.1688  0.1032  0.2938
    7MOL   C938 7430   1.708   6.696   7.441  0.4156 -0.4501  0.6667
    7MOL   C939 7431   1.877   6.673   7.268  0.3618  0.0355  0.2564
    7MOL   C940 7432   1.936   6.543   7.278 -0.8060 -0.3907  0.0615
    7MOL   C941 7433   1.951   6.466   7.160 -0.3965  0.4985 -0.3158
    7MOL   C942 7434   1.905   6.515   7.040 -0.5801  0.4001 -0.1644
    7MOL   O943 7435   1.925   6.436   6.935  0.8410  0.2480 -0.0386
    7MOL   C944 7436   1.854   6.642   7.021  0.2114  0.6268  0.2096
    7MOL   C945 7437   1.833   6.721   7.136  0.1837 -0.1393  0.0713
    7MOL   C946 7438   1.721   6.978   7.356 -0.4937  0.0674  0.8295
    7MOL   C947 7439   1.720   7.115   7.337 -0.2252 -0.4761 -0.3510
    7MOL   C948 7440   1.687   7.484   7.172 -0.0883  0.2218 -0.1786
    7MOL   C949 7441   1.583   7.513   7.078  0.2306 -0.1201  0.3321
    7MOL   C950 7442   1.512   7.380   6.617  0.5615 -0.2702 -0.0427
    7MOL   C951 7443   1.529   7.294   6.509  0.1476 -0.1168  0.3868
    7MOL   H952 7444   1.297   7.061   6.589 -0.2425 -0.6077 -2.4442
    7MOL   H953 7445   1.282   7.199   6.795 -0.7958  2.5670 -0.6582
    7MOL   H954 7446   1.576   7.217   6.910  1.0097 -0.7341  0.6489
    7MOL   H955 7447   1.759   7.164   7.078 -0.9239 -0.3736 -0.9344
    7MOL   H956 7448   2.058   7.171   7.326 -1.3942  2.4558 -0.0702
    7MOL   H957 7449   2.060   6.932   7.357  0.5533  1.1457  1.0582
    7MOL   H958 7450   2.039   6.726   7.470 -1.1871  4.1673 -1.2326
    7MOL   H959 7451   1.933   6.609   7.539  0.7366  0.4383  1.7442
    7MOL   H960 7452   1.921   6.778   7.597 -1.6027  0.8918 -0.5508
    7MOL   H961 7453   1.684   6.740   7.538  2.3982  0.3549  0.8289
    7MOL   H962 7454   1.629   6.713   7.368 -1.2616 -3.1133  1.7983
    7MOL   H963 7455   1.703   6.588   7.449  1.0074 -0.5411 -0.0733
    7MOL   H964 7456   1.965   6.498   7.372 -0.2156  1.5585  0.8345
    7MOL   H965 7457   1.980   6.362   7.161 -0.3165  0.5260  1.5519
    7MOL   H966 7458   1.823   6.673   6.922 -0.4904 -0.6290  0.0325
    7MOL   H967 7459   1.785   6.816   7.121  2.2612  1.0692  0.8296
    7MOL   H968 7460   1.631   6.919   7.357 -1.5439  1.6524  2.3156
    7MOL   H969 7461   1.639   7.182   7.313  1.0907  0.1332 -3.3297
    7MOL   H970 7462   1.707   7.549   7.255  1.9992  0.1162 -0.5786
    7MOL   H971 7463   1.527   7.606   7.084  0.3243 -0.1299  1.6543
    7MOL   H972 7464   1.567   7.473   6.623  0.2320 -0.0719 -0.0592
    7MOL   H973 7465   1.600   7.327   6.434  0.4427 -0.2327  0.6149
    7MOL   C974 7466   2.036   6.463   6.851 -1.0142  0.2324  0.7317
    7MOL   C975 7467   2.147   6.541   6.889 -0.2209 -0.3165 -0.5580
    7MOL   C976 7468   2.249   6.566   6.797 -0.8809  0.2746 -0.3214
    7MOL   C977 7469   2.242   6.518   6.667  1.0162  0.4643  0.7022
    7MOL   S978 7470   2.349   6.568   6.531 -0.0086 -0.2013  0.0164
    7MOL   O979 7471   2.380   6.708   6.560 -0.3248 -0.3432 -0.6968
    7MOL   O980 7472   2.298   6.526   6.397 -0.3737 -0.9693  0.3123
    7MOL   C981 7473   2.494   6.461   6.555 -1.2901 -0.0146 -0.2814
    7MOL   C982 7474   2.501   6.331   6.491 -0.5214  0.1225 -0.3486
    7MOL   C983 7475   2.606   6.244   6.538 -1.3430 -0.2719  0.7753
    7MOL   C984 7476   2.697   6.281   6.643 -0.4029 -0.7086 -0.2710
    7MOL   O985 7477   2.790   6.183   6.685  0.0327 -0.0151 -0.7402
    7MOL   C986 7478   2.886   6.228   6.776  0.3071  0.3029 -0.2706
    7MOL   C987 7479   2.878   6.193   6.910 -0.4027 -0.1288  0.5137
    7MOL   C988 7480   2.976   6.232   7.002  0.1802 -0.3053 -0.5405
    7MOL   C989 7481   3.078   6.326   6.966 -0.5601  0.5593 -0.3990
    7MOL   C990 7482   3.166   6.390   7.072  0.4140  0.2141 -0.1563
    7MOL   C991 7483   3.200   6.290   7.193  0.6060  1.3008  0.6402
    7MOL   C992 7484   3.304   6.425   7.019  0.5136  0.7059  0.2103
    7MOL   C993 7485   3.095   6.513   7.132 -1.1170  0.0414 -0.5682
    7MOL   C994 7486   3.161   6.583   7.238  0.5171  0.4618 -0.2980
    7MOL   C995 7487   3.107   6.702   7.287  0.6620 -0.3231 -0.2505
    7MOL   C996 7488   2.987   6.751   7.235 -0.0562 -0.5062 -0.1850
    7MOL   O997 7489   2.941   6.866   7.291 -0.4144  0.7214  0.0030
    7MOL   C998 7490   2.914   6.676   7.141  0.5089 -0.8005 -0.0750
    7MOL   C999 7491   2.967   6.555   7.089  0.7537 -0.4303  0.1884
    7MOL     C1 7492   3.087   6.360   6.830 -0.0724 -0.4176 -0.0094
    7MOL     C2 7493   2.996   6.309   6.735 -0.6451  0.4157 -0.3230
    7MOL     C3 7494   2.682   6.409   6.705  0.1207  0.0074 -0.6355
    7MOL     C4 7495   2.579   6.492   6.664 -0.3425  0.4480 -0.1871
    7MOL     C5 7496   2.136   6.436   6.630 -0.1142 -0.0345 -0.2063
    7MOL     C6 7497   2.035   6.412   6.720 -0.1670 -0.0979  0.1853
    7MOL     H7 7498   2.162   6.579   6.989  1.2991 -0.6352 -0.6515
    7MOL     H8 7499   2.334   6.631   6.817 -1.6562  1.0047  0.6346
    7MOL     H9 7500   2.429   6.301   6.416  0.3814 -1.5130 -0.6036
    7MOL    H10 7501   2.608   6.147   6.492 -1.8715 -0.5023  1.2352
    7MOL    H11 7502   2.806   6.122   6.949 -0.3152  0.2245  1.3321
    7MOL    H12 7503   2.968   6.202   7.105  2.1198  2.1716  0.3868
    7MOL    H13 7504   3.114   6.259   7.252  0.9354  0.9066  0.9139
    7MOL    H14 7505   3.267   6.328   7.270  0.1928  0.0621  1.6381
    7MOL    H15 7506   3.248   6.196   7.165 -0.4140  1.0928 -0.4508
    7MOL    H16 7507   3.341   6.330   6.981 -0.0412  1.0521 -1.1933
    7MOL    H17 7508   3.317   6.501   6.943  1.6173  0.9021  0.5913
    7MOL    H18 7509   3.368   6.467   7.097 -2.3137  1.7364  2.0953
    7MOL    H19 7510   3.255   6.558   7.285 -0.2513 -0.1706  0.9464
    7MOL    H20 7511   3.164   6.761   7.356  1.9272 -1.3825 -0.3761
    7MOL    H21 7512   2.834   6.737   7.102  2.1302  0.6127 -1.2385
    7MOL    H22 7513   2.915   6.513   7.004  1.4197  1.8842 -1.4219
    7MOL    H23 7514   3.159   6.431   6.792 -1.6431  1.1690 -0.1381
    7MOL    H24 7515   2.998   6.327   6.628 -0.4567 -1.3534 -0.6359
    7MOL    H25 7516   2.747   6.456   6.778 -3.0342  2.4870  0.6765
    7MOL    H26 7517   2.576   6.585   6.719 -1.6843  0.0256  0.4848
    7MOL    H27 7518   2.138   6.400   6.528 -0.1100 -1.3443  0.2509
    7MOL    H28 7519   1.955   6.354   6.675  0.7674 -0.0578 -1.5760
    7MOL    C29 7520   2.806   6.871   7.327 -0.0973 -0.0836  0.0425
    7MOL    C30 7521   2.720   6.962   7.258 -0.1013  0.4658  0.1279
    7MOL    C31 7522   2.595   6.989   7.317  0.3025 -0.3761 -0.2817
    7MOL    C32 7523   2.535   6.923   7.428 -1.0089 -0.5960 -0.8371
    7MOL    S33 7524   2.380   6.983   7.494  0.0118 -0.2653 -0.0372
    7MOL    O34 7525   2.312   6.864   7.555 -0.5542  0.1248 -0.1351
    7MOL    O35 7526   2.317   7.066   7.389 -0.2934 -0.1867 -0.2123
    7MOL    C36 7527   2.433   7.099   7.621 -0.1997  0.7228 -0.6090
    7MOL    C37 7528   2.359   7.122   7.737  0.2209  0.5243  0.5479
    7MOL    C38 7529   2.399   7.223   7.823 -0.4716  0.3629  0.3435
    7MOL    C39 7530   2.512   7.307   7.789  0.5363 -0.2513  0.2787
    7MOL    O40 7531   2.537   7.423   7.863  0.1495  0.3205  0.0590
    7MOL    C41 7532   2.528   7.545   7.796  0.3296 -0.7644 -0.3578
    7MOL    C42 7533   2.641   7.625   7.771  0.4223 -0.0860 -0.3277
    7MOL    C43 7534   2.629   7.756   7.718  0.3358 -0.8282  0.4417
    7MOL    C44 7535   2.502   7.799   7.667 -0.2420 -0.0259  0.4429
    7MOL    C45 7536   2.477   7.937   7.608 -0.4900 -0.2570  0.7437
    7MOL    C46 7537   2.418   8.021   7.724 -0.3513  0.3033 -0.1654
    7MOL    C47 7538   2.606   8.001   7.551 -0.3170  0.2767 -0.1002
    7MOL    C48 7539   2.375   7.924   7.489  0.1456 -0.0798 -0.3019
    7MOL    C49 7540   2.250   7.990   7.499  0.4793 -0.5398 -0.3885
    7MOL    C50 7541   2.152   7.985   7.398 -0.2200  0.0456  0.0312
    7MOL    C51 7542   2.180   7.906   7.285  0.1283 -0.1364  0.0318
    7MOL    O52 7543   2.093   7.898   7.182  0.1736  0.0090 -0.6364
    7MOL    C53 7544   2.308   7.854   7.259  0.4189  0.2728 -0.5309
    7MOL    C54 7545   2.400   7.854   7.369  0.7873 -1.0140  0.2487
    7MOL    C55 7546   2.400   7.705   7.679 -0.0691 -0.7953  0.6944
    7MOL    C56 7547   2.404   7.588   7.754  0.7517  0.3406  0.1621
    7MOL    C57 7548   2.581   7.285   7.677 -0.7413 -0.5372  0.1164
    7MOL    C58 7549   2.542   7.180   7.594  0.2357  0.0081  0.1346
    7MOL    C59 7550   2.616   6.819   7.494 -0.3115 -0.3847  0.7186
    7MOL    C60 7551   2.748   6.794   7.441 -0.5749  0.5282  0.3623
    7MOL    H61 7552   2.760   7.017   7.175  0.2218  0.2610  0.1495
    7MOL    H62 7553   2.535   7.071   7.279  1.6204  0.6932 -0.0743
    7MOL    H63 7554   2.281   7.048   7.754  1.5654 -1.3934 -1.4510
    7MOL    H64 7555   2.347   7.245   7.915 -1.2535 -1.0553  0.2552
    7MOL    H65 7556   2.738   7.596   7.810  0.0018 -2.2357 -0.8255
    7MOL    H66 7557   2.715   7.820   7.725  0.8085 -1.4532  0.3898
    7MOL    H67 7558   2.325   7.973   7.754 -0.0826 -2.2431 -3.1303
    7MOL    H68 7559   2.406   8.123   7.690 -2.8097  0.5127  1.1634
    7MOL    H69 7560   2.485   8.039   7.808 -2.8403  3.3923  1.2685
    7MOL    H70 7561   2.592   8.106   7.523  1.5339  1.3457  2.7260
    7MOL    H71 7562   2.683   8.000   7.629 -1.5022  1.8853  1.1356
    7MOL    H72 7563   2.648   7.939   7.473 -0.6400  0.9476 -0.8195
    7MOL    H73 7564   2.229   8.050   7.586  0.7861  2.9745 -2.5970
    7MOL    H74 7565   2.052   8.025   7.412 -0.2163 -0.3812  1.3172
    7MOL    H75 7566   2.331   7.801   7.167 -2.4051  0.6284 -1.5011
    7MOL    H76 7567   2.494   7.810   7.343  1.6438  1.2114 -0.5382
    7MOL    H77 7568   2.300   7.721   7.641 -0.7473 -0.1165  2.6858
    7MOL    H78 7569   2.318   7.525   7.777 -0.3109  1.8834  0.4988
    7MOL    H79 7570   2.665   7.351   7.657 -1.2615  0.3257  0.7533
    7MOL    H80 7571   2.599   7.179   7.503 -1.9667  2.9675 -1.3862
    7MOL    H81 7572   2.579   6.771   7.583 -1.0248  0.6152  0.9606
    7MOL    H82 7573   2.808   6.716   7.487 -2.2500 -0.5864  0.6876
    7MOL    H83 7574   2.013   7.943   7.202 -0.1671 -0.8119 -0.1006
    8MOL     C1 7575   1.857   3.490   0.989 -0.1681 -0.6291  0.3952
    8MOL     C2 7576   1.745   3.454   1.072 -0.0522 -0.4680 -0.3466
    8MOL     C3 7577   1.614   3.485   1.029  0.2806  1.3748  0.9187
    8MOL     C4 7578   1.594   3.557   0.905  0.1156  0.2017 -0.2753
    8MOL     S5 7579   1.435   3.593   0.835  0.2566 -0.1763  0.0351
    8MOL     O6 7580   1.453   3.631   0.691  0.6116  0.6969  0.3314
    8MOL     O7 7581   1.365   3.687   0.926 -0.1224  0.1484  0.0921
    8MOL     C8 7582   1.354   3.433   0.845  0.4942  0.8252  0.3810
    8MOL     C9 7583   1.412   3.313   0.784  0.5998 -0.2341  0.2241
    8MOL    C10 7584   1.345   3.189   0.790 -0.6042  0.0915 -0.0770
    8MOL    C11 7585   1.218   3.182   0.856 -0.4556 -0.0649 -0.0839
    8MOL    O12 7586   1.155   3.053   0.870  0.0649  0.0728  0.3698
    8MOL    C13 7587   1.108   3.008   0.992  0.2749 -0.0985 -0.6388
    8MOL    C14 7588   1.203   2.975   1.093  0.1760 -0.4782 -0.3198
    8MOL    C15 7589   1.156   2.936   1.218  0.3440 -0.4923 -0.1944
    8MOL    C16 7590   1.018   2.921   1.242  0.0664 -0.5931 -0.4106
    8MOL    C17 7591   0.969   2.868   1.384 -0.3792  0.2308  0.0383
    8MOL    C18 7592   1.082   2.816   1.475 -0.4667  0.5897 -0.0925
    8MOL    C19 7593   0.901   2.988   1.449  0.0648  0.5240 -0.7527
    8MOL    C20 7594   0.866   2.747   1.362  0.7708  1.0612  0.8021
    8MOL    C21 7595   0.894   2.654   1.263 -0.6329  0.2893 -0.6110
    8MOL    C22 7596   0.815   2.539   1.246  0.8875  0.1945  0.1289
    8MOL    C23 7597   0.694   2.530   1.322  0.4098 -0.8609 -0.5800
    8MOL    O24 7598   0.600   2.428   1.308  0.3601 -0.2162  0.1710
    8MOL    C25 7599   0.665   2.620   1.427  0.5075  0.0791  0.1861
    8MOL    C26 7600   0.750   2.725   1.447 -0.0295  0.6203 -0.8934
    8MOL    C27 7601   0.921   2.948   1.137  0.4944  0.6731 -1.1275
    8MOL    C28 7602   0.967   2.992   1.014 -0.3314 -0.6609  0.3476
    8MOL    C29 7603   1.161   3.300   0.904  0.4376  0.5649  0.0064
    8MOL    C30 7604   1.228   3.419   0.896  0.5934 -0.6400 -0.6232
    8MOL    C31 7605   1.703   3.594   0.823 -0.9837  0.5456 -0.4578
    8MOL    C32 7606   1.834   3.560   0.863 -0.0769  0.3790 -0.7455
    8MOL    H33 7607   1.761   3.399   1.163  1.3616  0.0159 -0.2863
    8MOL    H34 7608   1.524   3.469   1.086  0.1872  0.1491  0.4304
    8MOL    H35 7609   1.503   3.320   0.727  1.0166  0.1381  0.9237
    8MOL    H36 7610   1.389   3.098   0.754  0.6763  0.4402  0.5928
    8MOL    H37 7611   1.310   2.983   1.082 -0.0118  3.2516 -0.1288
    8MOL    H38 7612   1.238   2.908   1.282  1.5655  1.4711 -0.8524
    8MOL    H39 7613   1.135   2.739   1.418 -1.8548  0.5894 -1.4214
    8MOL    H40 7614   1.046   2.761   1.562  1.7859 -0.6325  0.1096
    8MOL    H41 7615   1.146   2.892   1.519 -2.8447  2.1339  0.8094
    8MOL    H42 7616   0.875   2.950   1.548 -3.0481  0.2809 -1.6016
    8MOL    H43 7617   0.964   3.075   1.463 -0.5948  0.7819  0.7431
    8MOL    H44 7618   0.818   3.021   1.387 -0.5355 -0.7597 -0.6625
    8MOL    H45 7619   0.976   2.677   1.197  0.6193  0.6245  1.0301
    8MOL    H46 7620   0.841   2.466   1.171 -0.6968 -0.9527  0.6902
    8MOL    H47 7621   0.576   2.606   1.486  0.1270  1.0921 -0.1275
    8MOL    H48 7622   0.728   2.778   1.539  0.8849  2.8878 -1.9385
    8MOL    H49 7623   0.815   2.932   1.152  0.4225  1.6173 -0.6505
    8MOL    H50 7624   0.898   3.023   0.936  2.3915  1.3496 -1.3382
    8MOL    H51 7625   1.060   3.300   0.944  0.1997  0.3528 -0.5923
    8MOL    H52 7626   1.182   3.503   0.946  1.0989  0.0766 -1.3611
    8MOL    H53 7627   1.685   3.640   0.727  2.7366  3.9540  0.3330
    8MOL    H54 7628   1.911   3.597   0.798  2.0083  0.2897  1.5734
    8MOL    H55 7629   1.956   3.454   1.013  0.5352 -0.1902 -1.7285
    8MOL    C56 7630   0.624   2.320   1.225 -0.9492 -0.0131 -0.2096
    8MOL    C57 7631   0.711   2.217   1.272 -0.2579 -0.2724  0.0484
    8MOL    C58 7632   0.753   2.119   1.182 -0.2405 -0.0489 -0.0942
    8MOL    C59 7633   0.720   2.124   1.046 -0.3307  0.7772 -0.3696
    8MOL    S60 7634   0.801   2.012   0.924 -0.3696 -0.1163  0.2576
    8MOL    O61 7635   0.929   1.962   0.974  0.1143  0.4296  0.3161
    8MOL    O62 7636   0.787   2.079   0.789 -0.3421  0.3973 -0.4434
    8MOL    C63 7637   0.691   1.876   0.904  0.2981  0.6145  0.1486
    8MOL    C64 7638   0.564   1.909   0.856 -0.2229  0.0389  0.0514
    8MOL    C65 7639   0.477   1.801   0.824 -0.6580 -0.1416 -0.4522
    8MOL    C66 7640   0.519   1.660   0.834 -0.0720 -0.4701 -0.0199
    8MOL    O67 7641   0.433   1.561   0.794  0.2882  0.2134 -0.1403
    8MOL    C68 7642   0.369   1.475   0.877 -0.9080  0.4685 -1.0152
    8MOL    C69 7643   0.280   1.519   0.973  0.4625 -0.0825  0.2146
    8MOL    C70 7644   0.206   1.437   1.058  0.5815  1.1140 -0.0557
    8MOL    C71 7645   0.227   1.297   1.055  0.0413  0.2316 -0.1184
    8MOL    C72 7646   0.151   1.200   1.142  0.0166  0.1543  0.3938
    8MOL    C73 7647   0.234   1.120   1.228 -0.0434 -0.2373  0.1361
    8MOL    C74 7648   0.053   1.268   1.251  0.4259 -0.1779  0.6794
    8MOL    C75 7649   0.069   1.098   1.058  0.6437 -0.7098  0.3840
    8MOL    C76 7650   0.052   0.958   1.092 -0.0589  0.2973 -0.0002
    8MOL    C77 7651   8.235   0.868   1.016  1.4814  0.3108  0.0709
    8MOL    C78 7652   8.170   0.920   0.907 -0.2950 -0.4404  0.3996
    8MOL    O79 7653   8.096   0.836   0.827  0.9248 -0.8680  0.5204
    8MOL    C80 7654   8.183   1.053   0.864 -0.3322 -0.5176 -0.7484
    8MOL    C81 7655   8.251   1.144   0.944 -0.2722  0.3351  0.3597
    8MOL    C82 7656   0.323   1.247   0.964  0.3597 -0.3554  0.3261
    8MOL    C83 7657   0.395   1.335   0.875 -1.1078  0.3370  0.0491
    8MOL    C84 7658   0.648   1.629   0.882 -0.1775  0.1751 -0.1296
    8MOL    C85 7659   0.734   1.739   0.922  0.0757  0.4718 -0.3136
    8MOL    C86 7660   0.631   2.227   1.004 -0.0620  0.6040  0.5713
    8MOL    C87 7661   0.579   2.324   1.095 -0.4531 -0.2036  0.1805
    8MOL    H88 7662   0.744   2.223   1.374  0.6563 -2.1568 -0.1113
    8MOL    H89 7663   0.813   2.041   1.227  1.4937  2.2167  1.6827
    8MOL    H90 7664   0.535   2.012   0.840 -1.8242 -0.4985 -0.6218
    8MOL    H91 7665   0.375   1.825   0.795 -0.7012  0.8642  0.4922
    8MOL    H92 7666   0.245   1.621   0.968  0.6077  0.0317  1.3848
    8MOL    H93 7667   0.138   1.477   1.132 -0.1871 -0.4470  0.1011
    8MOL    H94 7668   0.304   1.053   1.178  0.9642  0.7068  0.2632
    8MOL    H95 7669   0.182   1.062   1.304 -0.8905  0.1599 -0.1282
    8MOL    H96 7670   0.302   1.187   1.281  0.1009  1.6819 -2.3627
    8MOL    H97 7671   8.234   1.320   1.188 -0.1237 -0.2715  1.2246
    8MOL    H98 7672   0.007   1.197   1.320  3.4190 -1.3952  1.5098
    8MOL    H99 7673   0.098   1.344   1.316  0.5383  0.9912 -0.7314
    8MOL   H100 7674   0.082   0.911   1.184  1.5338  1.3264  0.0216
    8MOL   H101 7675   8.220   0.763   1.039  1.3519  0.6086  1.4120
    8MOL   H102 7676   8.136   1.096   0.777 -0.1789 -0.0407 -0.5980
    8MOL   H103 7677   8.242   1.248   0.916 -1.4708  0.5270  1.3970
    8MOL   H104 7678   0.337   1.140   0.954  1.5644 -0.3756  2.0469
    8MOL   H105 7679   0.464   1.294   0.802 -0.3999  2.6880 -0.6481
    8MOL   H106 7680   0.684   1.527   0.886  0.3829  0.4208  1.4436
    8MOL   H107 7681   0.834   1.731   0.962 -0.2665  1.5468  0.8288
    8MOL   H108 7682   0.603   2.236   0.900 -2.1649  1.1224  1.1586
    8MOL   H109 7683   0.509   2.398   1.061  1.2370  0.9532 -0.8466
    8MOL   C110 7684   7.964   0.826   0.843  0.3766 -0.0067  0.9211
    8MOL   C111 7685   7.917   0.695   0.858  0.4181  0.7666  0.1935
    8MOL   C112 7686   7.777   0.676   0.889  0.7525 -0.2838  0.4393
    8MOL   C113 7687   7.691   0.788   0.883 -0.3782 -0.1264  0.8531
    8MOL   S114 7688   7.516   0.770   0.929  0.2058 -0.1400 -0.1541
    8MOL   O115 7689   7.461   0.904   0.971  0.3535 -0.2605 -0.1355
    8MOL   O116 7690   7.502   0.653   1.019 -0.3917  0.0867  0.7567
    8MOL   C117 7691   7.440   0.733   0.767 -0.1275  0.3237  0.6896
    8MOL   C118 7692   7.518   0.676   0.660  0.1634 -0.5860 -0.2233
    8MOL   C119 7693   7.469   0.672   0.531  0.9655  0.0614 -0.5936
    8MOL   C120 7694   7.336   0.708   0.496 -0.9176  0.1377  0.4469
    8MOL   O121 7695   7.288   0.712   0.367 -0.0011 -0.2283  0.4519
    8MOL   C122 7696   7.344   0.612   0.289  0.5916 -0.3755  0.3853
    8MOL   C123 7697   7.301   0.480   0.300 -0.8731  0.7721  0.5176
    8MOL   C124 7698   7.355   0.377   0.215 -0.0627  1.0444  0.0931
    8MOL   C125 7699   7.447   0.407   0.111 -0.4267  0.7136  0.8642
    8MOL   C126 7700   7.492   0.296   0.007 -0.5858 -0.2945  0.8470
    8MOL   C127 7701   7.527   0.356   8.120 -0.0141 -0.2287 -0.2686
    8MOL   C128 7702   7.618   0.223   0.065  0.0626 -0.6781 -0.3227
    8MOL   C129 7703   7.371   0.199   8.239  0.0222 -0.3894  0.7704
    8MOL   C130 7704   7.263   0.248   8.156  0.1756 -0.4277  0.1917
    8MOL   C131 7705   7.152   0.156   8.141  0.4258  0.1570  0.7688
    8MOL   C132 7706   7.159   0.021   8.181  0.2672 -0.7932  0.3932
    8MOL   O133 7707   7.064   8.194   8.126 -0.2444 -0.1259 -0.5496
    8MOL   C134 7708   7.262   8.229   0.011 -1.2362 -0.0977 -0.4974
    8MOL   C135 7709   7.365   0.071   0.041 -0.7591 -0.2654 -0.1603
    8MOL   C136 7710   7.489   0.537   0.109  0.0158 -1.2491  0.4729
    8MOL   C137 7711   7.442   0.640   0.197  0.4496  0.6131  0.2752
    8MOL   C138 7712   7.260   0.770   0.598  0.3071 -0.1026  0.5023
    8MOL   C139 7713   7.311   0.784   0.729  0.0275 -0.6336  0.2370
    8MOL   C140 7714   7.738   0.919   0.871  0.5966  0.6082  0.1778
    8MOL   C141 7715   7.877   0.938   0.860 -0.1477  0.5587 -0.2043
    8MOL   H142 7716   7.988   0.614   0.845  0.2693  0.6532  0.0713
    8MOL   H143 7717   7.736   0.583   0.924 -1.5461  0.6348  0.2278
    8MOL   H144 7718   7.619   0.644   0.681  0.5785  0.3091 -0.8411
    8MOL   H145 7719   7.529   0.630   0.452  0.9370 -0.8916 -0.1211
    8MOL   H146 7720   7.227   0.450   0.372 -1.3272 -4.4614 -1.9733
    8MOL   H147 7721   7.309   0.279   0.213 -0.1430  1.0796 -3.7779
    8MOL   H148 7722   7.583   0.295   8.050  0.1495 -0.0165 -0.3231
    8MOL   H149 7723   7.591   0.444   8.129 -2.6083  1.6785  0.1812
    8MOL   H150 7724   7.447   0.401   8.061  1.2160  1.7072 -0.5070
    8MOL   H151 7725   7.657   0.148   8.251  1.5899  1.8520 -2.3700
    8MOL   H152 7726   7.697   0.299   0.072 -1.9374  1.7174 -2.6849
    8MOL   H153 7727   7.607   0.179   0.164 -0.0306 -1.2834 -0.6000
    8MOL   H154 7728   7.250   0.345   8.112  2.2790 -0.6889 -1.0847
    8MOL   H155 7729   7.060   0.197   8.102  0.5072 -1.4187 -1.1826
    8MOL   H156 7730   7.277   8.125   0.034 -2.0858 -0.2595 -0.6505
    8MOL   H157 7731   7.451   0.041   0.098 -1.2987  3.2702  2.6804
    8MOL   H158 7732   7.553   0.586   0.037  0.9931  0.7053  2.6203
    8MOL   H159 7733   7.484   0.738   0.180 -1.2802  0.8922 -2.6837
    8MOL   H160 7734   7.164   0.806   0.567  0.0065 -0.8835  0.5016
    8MOL   H161 7735   7.249   0.829   0.805  2.9550  3.0364  0.5978
    8MOL   H162 7736   7.670   1.000   0.890  1.7605  1.4259  0.9013
    8MOL   H163 7737   7.909   1.039   0.838 -1.7459  1.3743  1.1039
    8MOL   C164 7738   6.998   8.097   8.201 -0.2317  0.1110 -0.6999
    8MOL   C165 7739   6.893   8.129   0.038 -0.4149 -0.3765 -0.3385
    8MOL   C166 7740   6.846   8.028   0.126  0.4289  0.0585 -0.0313
    8MOL   C167 7741   6.905   7.900   0.128  0.1342 -0.3826  0.0749
    8MOL   S168 7742   6.827   7.769   0.231  0.3324  0.0631 -0.3850
    8MOL   O169 7743   6.684   7.744   0.193 -0.4445  0.1309 -0.1074
    8MOL   O170 7744   6.847   7.805   0.374  0.3769 -0.6739  0.2727
    8MOL   C171 7745   6.926   7.626   0.206  0.2258  0.7269 -0.2131
    8MOL   C172 7746   6.883   7.522   0.122  0.9332  0.3648  0.2373
    8MOL   C173 7747   6.957   7.406   0.095 -0.0164  0.2174 -0.8864
    8MOL   C174 7748   7.086   7.401   0.147 -0.2503 -0.2764  0.0371
    8MOL   O175 7749   7.166   7.290   0.117  0.7470  0.0679  0.8478
    8MOL   C176 7750   7.239   7.235   0.219  0.4302 -0.2552 -0.3753
    8MOL   C177 7751   7.169   7.160   0.319 -0.5353  0.4971 -0.5889
    8MOL   C178 7752   7.246   7.109   0.423  0.6706  0.4472  0.1301
    8MOL   C179 7753   7.388   7.109   0.425  0.1626 -0.6452 -0.1451
    8MOL   C180 7754   7.457   7.049   0.544  0.1921 -0.7224  0.4283
    8MOL   C181 7755   7.370   6.937   0.599 -0.0108 -0.2247 -0.1295
    8MOL   C182 7756   7.582   6.974   0.503 -0.1483  0.6585  0.1577
    8MOL   C183 7757   7.475   7.155   0.658  0.1672  0.0137 -0.5307
    8MOL   C184 7758   7.599   7.184   0.713 -0.5903 -0.1456 -0.2878
    8MOL   C185 7759   7.618   7.288   0.807  0.2145 -0.3239 -0.5829
    8MOL   C186 7760   7.507   7.353   0.858  0.1983  0.1624 -0.0362
    8MOL   O187 7761   7.526   7.466   0.940 -0.1167  0.1583  0.7008
    8MOL   C188 7762   7.377   7.324   0.809  0.3753  0.0934  0.5419
    8MOL   C189 7763   7.359   7.224   0.713 -0.3612  0.7627 -0.9901
    8MOL   C190 7764   7.449   7.164   0.310 -0.3826 -0.5157 -0.6178
    8MOL   C191 7765   7.378   7.246   0.216  0.4495 -0.2943 -0.1700
    8MOL   C192 7766   7.134   7.502   0.237 -0.2391  0.0716 -0.4337
    8MOL   C193 7767   7.051   7.611   0.270  0.7527 -0.0510  0.1660
    8MOL   C194 7768   7.011   7.873   0.044  0.8937 -0.3473 -0.4517
    8MOL   C195 7769   7.037   7.964   8.196 -0.2085 -0.4840 -0.1603
    8MOL   H196 7770   6.865   8.233   0.039 -0.1606 -0.2407 -2.9043
    8MOL   H197 7771   6.757   8.053   0.182  0.0849  0.4800 -0.7553
    8MOL   H198 7772   6.781   7.517   0.086  0.8513  1.2542  0.3393
    8MOL   H199 7773   6.921   7.323   0.036 -2.5471 -0.3999  1.4461
    8MOL   H200 7774   7.062   7.153   0.325 -0.4313  0.6672  2.3488
    8MOL   H201 7775   7.196   7.052   0.500  1.0522 -0.8973 -0.6007
    8MOL   H202 7776   7.334   6.881   0.512 -1.2705 -0.4335  0.5116
    8MOL   H203 7777   7.279   6.964   0.651  0.3544  0.5425  0.1090
    8MOL   H204 7778   7.429   6.864   0.654 -0.2190  1.3079  2.1555
    8MOL   H205 7779   7.634   6.931   0.589 -0.1642 -0.8458 -0.5635
    8MOL   H206 7780   7.557   6.893   0.434 -1.8778  2.9889 -1.9987
    8MOL   H207 7781   7.656   7.041   0.460 -0.6130  1.3096  0.3792
    8MOL   H208 7782   7.684   7.123   0.685 -1.1575 -0.2779 -1.7564
    8MOL   H209 7783   7.715   7.299   0.852 -0.4972  0.7250  0.7094
    8MOL   H210 7784   7.298   7.372   0.865  0.0470 -0.2100  0.3403
    8MOL   H211 7785   7.257   7.199   0.688 -0.0856 -0.5768 -0.8165
    8MOL   H212 7786   7.557   7.164   0.307 -0.3893  2.2944 -1.7663
    8MOL   H213 7787   7.423   7.308   0.140 -1.8193  1.8962  0.1736
    8MOL   H214 7788   7.233   7.504   0.279 -0.3355  0.1025 -0.2082
    8MOL   H215 7789   7.087   7.698   0.323  1.1615  0.6268 -1.1955
    8MOL   H216 7790   7.060   7.776   0.042 -1.2923 -1.5782  2.5072
    8MOL   H217 7791   7.109   7.938   8.119 -2.2506 -5.5725 -0.5710
    8MOL   C218 7792   7.624   7.482   1.032  0.0895  0.4767 -0.0531
    8MOL   C219 7793   7.654   7.389   1.133 -0.0893  0.9984 -0.1629
    8MOL   C220 7794   7.748   7.416   1.233  0.0607 -0.6611 -0.6528
    8MOL   C221 7795   7.807   7.542   1.238 -0.1778  0.1854  0.1782
    8MOL   S222 7796   7.928   7.596   1.358 -0.0929 -0.0313  0.5268
    8MOL   O223 7797   7.910   7.509   1.473 -0.2624  0.3493 -0.3008
    8MOL   O224 7798   7.918   7.744   1.376  0.8253 -0.2762  0.2088
    8MOL   C225 7799   8.093   7.566   1.291 -0.0914  0.1440  0.3780
    8MOL   C226 7800   8.124   7.450   1.209  0.3560  0.2789  0.1171
    8MOL   C227 7801   8.248   7.431   1.152  0.3803  0.1945  0.1850
    8MOL   C228 7802   0.102   7.516   1.193 -0.1823 -0.4676  0.4524
    8MOL   O229 7803   0.236   7.489   1.161 -0.0209 -0.7487  0.1668
    8MOL   C230 7804   0.273   7.391   1.075  0.0576 -0.1278  0.0730
    8MOL   C231 7805   0.275   7.413   0.935 -0.1231  0.1073  0.6049
    8MOL   C232 7806   0.301   7.305   0.846  0.7366 -0.5248 -0.1787
    8MOL   C233 7807   0.313   7.174   0.905  0.6612 -0.6927 -0.4615
    8MOL   C234 7808   0.316   7.048   0.807  0.8169  0.4722  0.3335
    8MOL   C235 7809   0.471   7.009   0.772  0.5927 -0.3137  0.4738
    8MOL   C236 7810   0.256   6.921   0.874 -0.3866 -0.0852 -0.5665
    8MOL   C237 7811   0.232   7.078   0.676  0.2258 -0.4658 -0.3603
    8MOL   C238 7812   0.298   7.093   0.553 -0.1088  1.2849 -0.2529
    8MOL   C239 7813   0.235   7.109   0.432  0.3285 -0.4697 -0.3483
    8MOL   C240 7814   0.092   7.097   0.428 -0.4995 -0.1503  0.6056
    8MOL   O241 7815   0.024   7.108   0.311  0.0357  0.5799  0.6127
    8MOL   C242 7816   0.023   7.083   0.551  0.1699 -0.2272 -0.0344
    8MOL   C243 7817   0.091   7.084   0.678 -0.2580 -0.9014  0.3933
    8MOL   C244 7818   0.315   7.152   1.047  0.3840  0.1706 -0.6420
    8MOL   C245 7819   0.296   7.265   1.130  0.2708  1.0410 -0.3425
    8MOL   C246 7820   0.071   7.632   1.268  0.3930  0.5305  0.0851
    8MOL   C247 7821   8.193   7.663   1.304  0.0269 -0.7525 -0.4012
    8MOL   C248 7822   7.790   7.638   1.135  0.4676 -0.5529  0.4919
    8MOL   C249 7823   7.694   7.606   1.033  0.1311  0.1543  0.1245
    8MOL   H250 7824   7.602   7.296   1.120  0.3523  0.3486  2.4309
    8MOL   H251 7825   7.784   7.347   1.307 -2.8440 -0.8098  0.7025
    8MOL   H252 7826   8.051   7.377   1.177 -0.5515  1.8204 -1.3873
    8MOL   H253 7827   0.006   7.348   1.083  1.0718 -0.5739  1.1967
    8MOL   H254 7828   0.258   7.509   0.888 -2.4533 -1.7339 -2.5011
    8MOL   H255 7829   0.323   7.323   0.742  1.4151 -0.5108 -0.0382
    8MOL   H256 7830   0.524   6.982   0.863  2.3696 -2.1218 -1.0313
    8MOL   H257 7831   0.525   7.086   0.717 -0.8890  0.6199  0.3133
    8MOL   H258 7832   0.469   6.916   0.714  1.2699  0.0601 -0.1689
    8MOL   H259 7833   0.151   6.937   0.900 -0.0288  0.0151  0.8218
    8MOL   H260 7834   0.245   6.843   0.798 -0.1919 -1.9710  1.3002
    8MOL   H261 7835   0.315   6.888   0.959 -1.3796 -0.7086 -0.1093
    8MOL   H262 7836   0.404   7.109   0.546  0.6328 -2.2373  1.9127
    8MOL   H263 7837   0.285   7.136   0.340  0.8400 -1.1672 -0.2742
    8MOL   H264 7838   8.169   7.090   0.558 -0.0793 -1.4894 -2.2030
    8MOL   H265 7839   0.030   7.062   0.765  0.0817 -0.2299  0.8142
    8MOL   H266 7840   0.333   7.055   1.091 -1.0699  0.6842  1.1404
    8MOL   H267 7841   0.307   7.229   1.231  0.2680 -3.3496 -1.8105
    8MOL   H268 7842   0.153   7.693   1.303  0.5303  0.9310 -0.9438
    8MOL   H269 7843   8.180   7.749   1.367  0.5056  0.0821 -1.4292
    8MOL   H270 7844   7.841   7.732   1.147 -2.0725  0.6409  2.2571
    8MOL   H271 7845   7.675   7.676   0.953 -2.1591 -0.2914  0.2589
    8MOL   C272 7846   0.019   6.986   0.236  0.2152  0.7285  0.1132
    8MOL   C273 7847   0.112   6.967   0.128 -0.0961 -0.2242 -0.4692
    8MOL   C274 7848   0.112   6.846   0.050 -0.0835  0.0271  0.2887
    8MOL   C275 7849   0.009   6.755   0.081  0.6231 -0.6874 -0.0837
    8MOL   S276 7850   8.245   6.616   8.224 -0.2986 -0.2992  0.1143
    8MOL   O277 7851   8.128   6.546   0.020  0.1048 -0.3848 -0.2391
    8MOL   O278 7852   0.120   6.541   8.217  0.1265  0.2457 -0.1496
    8MOL   C279 7853   8.211   6.676   8.062  0.3162 -0.4458  0.8954
    8MOL   C280 7854   8.083   6.672   8.010 -0.5258  0.3867 -0.3837
    8MOL   C281 7855   8.054   6.713   7.884 -0.1072 -0.2313  0.5851
    8MOL   C282 7856   8.154   6.775   7.808  0.9484 -0.8156 -0.2910
    8MOL   O283 7857   8.126   6.821   7.678  0.2010  0.1854 -0.0733
    8MOL   C284 7858   8.085   6.951   7.656 -0.2607 -0.5961 -0.0538
    8MOL   C285 7859   8.142   7.016   7.543  0.1256  0.0240 -0.6663
    8MOL   C286 7860   8.111   7.149   7.512 -0.3975 -0.2002 -0.0530
    8MOL   C287 7861   8.029   7.226   7.585 -0.2260 -0.0938 -0.1771
    8MOL   C288 7862   7.999   7.366   7.545  0.4911 -0.5129  0.6417
    8MOL   C289 7863   7.999   7.401   7.386 -0.8268 -0.2321  1.1839
    8MOL   C290 7864   7.858   7.413   7.598  0.2782 -0.1871  0.3166
    8MOL   C291 7865   8.110   7.447   7.606 -0.2902 -0.1014  0.2680
    8MOL   C292 7866   8.234   7.441   7.540 -0.5374  0.6638  0.1497
    8MOL   C293 7867   0.090   7.507   7.601 -0.5960  0.7369  0.5546
    8MOL   C294 7868   0.079   7.589   7.715  0.3108  0.6571 -0.2063
    8MOL   O295 7869   0.189   7.652   7.765 -0.3271 -0.1763  0.2131
    8MOL   C296 7870   8.206   7.595   7.781 -0.2982 -0.1375  0.0866
    8MOL   C297 7871   8.099   7.522   7.727 -0.3748 -0.0287  0.1455
    8MOL   C298 7872   7.978   7.167   7.705  0.7311 -0.4950  0.5560
    8MOL   C299 7873   8.004   7.035   7.735 -0.1000  0.3747 -0.5583
    8MOL   C300 7874   0.036   6.785   7.860 -0.7969  0.8100  1.1492
    8MOL   C301 7875   0.065   6.722   7.988  0.0433 -0.6804  0.6363
    8MOL   C302 7876   8.179   6.763   0.197  0.2754  0.1025  0.4263
    8MOL   C303 7877   8.186   6.881   0.278 -0.2674 -0.0207 -0.0283
    8MOL   H304 7878   0.183   7.044   0.102 -1.3064  0.6939 -1.1229
    8MOL   H305 7879   0.175   6.850   8.215  1.4223  0.0725  1.3395
    8MOL   H306 7880   8.000   6.637   8.070 -2.4588 -0.1713 -3.2743
    8MOL   H307 7881   7.954   6.711   7.843  0.0916  0.4423  0.0558
    8MOL   H308 7882   8.214   6.968   7.478 -0.3370  2.1202 -2.7876
    8MOL   H309 7883   8.160   7.182   7.421  1.0793 -0.3889  0.6644
    8MOL   H310 7884   7.995   7.509   7.377 -0.9227 -0.3575 -0.4799
    8MOL   H311 7885   7.921   7.341   7.338 -0.9869 -0.2824  1.5083
    8MOL   H312 7886   8.087   7.372   7.329 -1.3190 -0.4810  0.5328
    8MOL   H313 7887   7.771   7.358   7.564  1.5705 -1.5468 -0.8300
    8MOL   H314 7888   7.847   7.391   7.704 -1.3908 -1.5009 -0.1174
    8MOL   H315 7889   7.841   7.520   7.584 -1.2167 -0.3131  1.0874
    8MOL   H316 7890   0.010   7.373   7.463 -1.9801  0.8059 -0.5517
    8MOL   H317 7891   0.192   7.505   7.564 -1.2094  0.3956 -1.1451
    8MOL   H318 7892   8.188   7.654   7.869 -0.0076 -1.8667  1.3337
    8MOL   H319 7893   8.009   7.540   7.784 -0.1870 -0.2117  0.4991
    8MOL   H320 7894   7.926   7.218   7.785  0.4328  0.4711 -0.2496
    8MOL   H321 7895   7.959   7.000   7.827  1.3494  0.1822  0.0872
    8MOL   H322 7896   0.121   6.825   7.806  0.4072  0.0339  2.4114
    8MOL   H323 7897   0.165   6.723   8.029  0.8210  0.6681 -1.2322
    8MOL   H324 7898   8.109   6.683   0.218  0.5563  0.0622  1.2020
    8MOL   H325 7899   8.114   6.900   0.356 -0.3365  0.0033 -0.0972
    8MOL   C326 7900   0.183   7.778   7.813  0.4416  0.0896 -0.2581
    8MOL   C327 7901   0.171   7.880   7.717  0.8551 -0.3756  0.1905
    8MOL   C328 7902   0.159   8.016   7.757  0.3009  0.5011  0.0597
    8MOL   C329 7903   0.154   8.049   7.895 -0.2086 -0.6919  0.4075
    8MOL   S330 7904   0.132   8.226   7.948 -0.3840  0.2580 -0.2987
    8MOL   O331 7905   0.109   0.063   7.830 -0.1388 -0.3050  0.1971
    8MOL   O332 7906   0.235   0.008   8.046 -0.1738 -0.2058  0.4210
    8MOL   C333 7907   8.233   8.217   8.038  0.4119  0.5294 -0.3504
    8MOL   C334 7908   8.142   8.112   8.018 -0.5780 -0.1970  0.1338
    8MOL   C335 7909   8.018   8.102   8.093 -0.3780 -0.0305 -0.8364
    8MOL   C336 7910   7.982   8.211   8.184  0.0978  1.4668 -0.3874
    8MOL   O337 7911   7.877   8.207   0.014  0.1427 -0.0859 -0.1090
    8MOL   C338 7912   7.792   8.101   0.007 -0.7428  0.6238 -0.3080
    8MOL   C339 7913   7.792   8.014   0.112  0.1171 -0.2166 -0.3285
    8MOL   C340 7914   7.701   7.909   0.124 -0.8410 -0.1897 -0.2397
    8MOL   C341 7915   7.608   7.881   0.017 -0.5222  0.5747 -0.8001
    8MOL   C342 7916   7.500   7.768   0.021 -0.1913 -0.1970 -0.2351
    8MOL   C343 7917   7.377   7.855   0.067  0.3736  0.1463 -0.8492
    8MOL   C344 7918   7.463   7.707   8.139 -0.0958 -0.2910  0.0897
    8MOL   C345 7919   7.543   7.662   0.127  0.6499  0.1560 -0.1974
    8MOL   C346 7920   7.660   7.589   0.109  0.1250  0.5069 -0.7872
    8MOL   C347 7921   7.699   7.491   0.200 -0.3950 -0.1211  0.2220
    8MOL   C348 7922   7.633   7.476   0.319 -0.1343  0.3458  0.3268
    8MOL   O349 7923   7.670   7.375   0.407 -0.4792 -0.1794  0.5967
    8MOL   C350 7924   7.518   7.552   0.349 -1.0926  0.0988 -0.3858
    8MOL   C351 7925   7.473   7.640   0.247  0.4033 -0.1958  0.3474
    8MOL   C352 7926   7.613   7.967   8.159  0.2802  0.1001  0.0553
    8MOL   C353 7927   7.706   8.075   8.153 -0.8809 -0.2643 -0.2291
    8MOL   C354 7928   8.077   0.062   8.203  0.1543  0.4074  0.1823
    8MOL   C355 7929   8.196   0.070   8.126  0.0064 -0.4396 -0.1083
    8MOL   C356 7930   0.173   7.951   7.989 -0.0599 -0.1353  0.4541
    8MOL   C357 7931   0.183   7.816   7.948  0.0519 -0.2129 -0.2056
    8MOL   H358 7932   0.177   7.851   7.613 -0.2300  0.0300  0.0053
    8MOL   H359 7933   0.157   8.093   7.681  3.2478  0.0880 -0.4724
    8MOL   H360 7934   8.173   8.039   7.945 -1.7866  0.3193 -0.9259
    8MOL   H361 7935   7.954   8.017   8.077 -0.2009 -0.3242  0.0087
    8MOL   H362 7936   7.861   8.030   0.194 -0.1656  1.2360 -0.3512
    8MOL   H363 7937   7.706   7.837   0.204  1.7198 -0.0042 -0.1750
    8MOL   H364 7938   7.384   7.913   0.159  0.7599 -2.0917  0.5645
    8MOL   H365 7939   7.296   7.783   0.070  1.4486 -1.0467  0.1019
    8MOL   H366 7940   7.345   7.924   8.242  1.8656  0.8713 -0.8524
    8MOL   H367 7941   7.554   7.670   8.090 -0.7249  0.9925 -2.1129
    8MOL   H368 7942   7.394   7.623   8.145  0.4925 -0.9194 -1.5982
    8MOL   H369 7943   7.412   7.776   8.071 -1.1036 -0.8487  0.2761
    8MOL   H370 7944   7.718   7.593   0.018 -1.4286 -2.4457 -1.9807
    8MOL   H371 7945   7.784   7.430   0.176 -1.1665 -0.5329 -1.5050
    8MOL   H372 7946   7.463   7.525   0.439  1.4036 -0.4341  1.0259
    8MOL   H373 7947   7.378   7.680   0.279  1.5928  1.6842  1.6697
    8MOL   H374 7948   7.558   7.942   8.070  2.0767 -1.2500 -0.6942
    8MOL   H375 7949   7.722   8.127   8.060 -2.8307 -0.7549 -0.8817
    8MOL   H376 7950   8.057   0.136   0.026 -0.3552  1.0706 -0.5933
    8MOL   H377 7951   0.022   0.138   8.154  0.3938  0.1260 -2.4639
    8MOL   H378 7952   0.165   7.964   8.096 -0.9143 -0.8664  0.4831
    8MOL   H379 7953   0.197   7.734   8.016 -1.1865 -1.9175 -1.9728
    8MOL   C380 7954   7.769   7.397   0.498  0.8248 -0.9675 -0.0827
    8MOL   C381 7955   7.889   7.319   0.501  0.4677 -0.3129  0.0921
    8MOL   C382 7956   7.990   7.341   0.593 -0.2200 -1.1019 -0.1559
    8MOL   C383 7957   7.967   7.432   0.694  0.5247  0.5723  0.1680
    8MOL   S384 7958   8.089   7.459   0.820  0.1472 -0.3150 -0.2222
    8MOL   O385 7959   8.126   7.329   0.872  0.0584  0.0150  0.3723
    8MOL   O386 7960   8.034   7.558   0.914 -0.1491 -0.6112  0.1840
    8MOL   C387 7961   8.221   7.533   0.727 -0.1919  0.2263  0.2134
    8MOL   C388 7962   0.051   7.460   0.640 -0.3311 -0.1065 -0.0853
    8MOL   C389 7963   0.165   7.515   0.579 -0.2807  0.0559 -0.1362
    8MOL   C390 7964   0.201   7.648   0.603 -0.2686 -1.4852 -0.1159
    8MOL   O391 7965   0.314   7.702   0.547 -0.3320 -0.5252  0.2260
    8MOL   C392 7966   0.421   7.735   0.625 -0.5946 -0.3688  0.3687
    8MOL   C393 7967   0.468   7.644   0.725 -0.5062 -0.0549  0.4598
    8MOL   C394 7968   0.572   7.688   0.817  0.8569 -0.1937 -0.6198
    8MOL   C395 7969   0.631   7.816   0.814 -0.0672 -0.0008 -0.1336
    8MOL   C396 7970   0.742   7.871   0.901 -0.2592  0.4489 -0.0428
    8MOL   C397 7971   0.779   7.767   1.009 -0.1420  0.3210  0.6793
    8MOL   C398 7972   0.865   7.890   0.804  0.4913  0.3206  0.0633
    8MOL   C399 7973   0.707   7.996   0.985  0.1593  0.6303  0.2722
    8MOL   C400 7974   0.571   8.020   1.021 -0.5211  0.7110  0.1940
    8MOL   C401 7975   0.534   8.135   1.093 -0.1616 -0.1112  0.1579
    8MOL   C402 7976   0.633   8.213   1.161  0.1172  0.4079 -0.0376
    8MOL   O403 7977   0.594   0.060   1.252  0.3513  0.0731 -0.4584
    8MOL   C404 7978   0.767   8.177   1.143 -0.4598  0.3657 -0.0672
    8MOL   C405 7979   0.807   8.080   1.041 -0.1036 -0.6629 -0.1577
    8MOL   C406 7980   0.579   7.899   0.715 -0.4239 -0.0654  0.5511
    8MOL   C407 7981   0.477   7.862   0.623 -0.3256  0.0229  0.5887
    8MOL   C408 7982   0.118   7.720   0.689 -0.3086  0.1047  0.4425
    8MOL   C409 7983   0.005   7.667   0.749  0.2911  1.5337  0.4638
    8MOL   C410 7984   7.848   7.504   0.698  0.3686 -0.4495  0.5476
    8MOL   C411 7985   7.746   7.492   0.602 -0.2183 -0.0290 -0.8083
    8MOL   H412 7986   7.894   7.231   0.438 -2.1634 -0.0994 -0.4811
    8MOL   H413 7987   8.080   7.282   0.596  0.3578 -0.2394 -0.3150
    8MOL   H414 7988   0.012   7.361   0.624 -2.4985  0.9344 -1.3723
    8MOL   H415 7989   0.210   7.438   0.518  1.6058  1.3720 -0.4708
    8MOL   H416 7990   0.428   7.544   0.734 -1.8093  0.3888 -0.3796
    8MOL   H417 7991   0.595   7.613   0.891 -2.0288  0.1000  0.6146
    8MOL   H418 7992   0.851   7.812   1.078 -0.0219  2.0486 -0.5285
    8MOL   H419 7993   0.825   7.686   0.953  0.4577  1.6483 -0.7698
    8MOL   H420 7994   0.693   7.729   1.065 -1.5435  2.7024  0.2079
    8MOL   H421 7995   0.854   7.982   0.747  1.0346 -0.1635 -0.8393
    8MOL   H422 7996   0.961   7.889   0.855  1.7671  2.2896 -2.2410
    8MOL   H423 7997   0.872   7.799   0.745 -0.0678 -0.5589  1.3274
    8MOL   H424 7998   0.493   7.958   0.980  0.8537  0.3030 -1.8992
    8MOL   H425 7999   0.428   8.146   1.112 -0.1393  1.4123 -0.5762
    8MOL   H426 8000   0.851   8.225   1.191  1.4488 -1.8386 -1.1248
    8MOL   H427 8001   0.911   8.055   1.027 -0.1792 -0.8070 -0.4718
    8MOL   H428 8002   0.607   8.001   0.696 -0.8184 -0.2080 -0.8713
    8MOL   H429 8003   0.437   7.932   0.550  0.5478  3.2618  3.0992
    8MOL   H430 8004   0.147   7.816   0.730 -2.8340  0.6595  1.0079
    8MOL   H431 8005   8.210   7.727   0.824 -2.1947  0.7220 -0.4207
    8MOL   H432 8006   7.840   7.580   0.774 -0.3491  0.7608 -0.7298
    8MOL   H433 8007   7.658   7.553   0.603 -1.8002 -2.2474  0.2148
    8MOL   C434 8008   0.520   0.162   1.198  0.3993  0.0369 -0.1299
    8MOL   C435 8009   0.540   0.211   1.070  0.2310  0.4787 -0.2716
    8MOL   C436 8010   0.451   0.311   1.016 -0.4530 -0.7294  0.0771
    8MOL   C437 8011   0.348   0.366   1.104 -0.5397  0.2678 -0.5930
    8MOL   S438 8012   0.263   0.509   1.041  0.0030  0.1805  0.2314
    8MOL   O439 8013   0.123   0.493   1.071 -0.0456 -0.3952  0.2797
    8MOL   O440 8014   0.309   0.535   0.904  0.3657  0.3925 -0.3898
    8MOL   C441 8015   0.326   0.643   1.134  0.3344  0.1911 -0.0535
    8MOL   C442 8016   0.255   0.699   1.242  0.3148  0.0899  0.0233
    8MOL   C443 8017   0.323   0.786   1.323  0.4537 -0.6035  0.2337
    8MOL   C444 8018   0.456   0.830   1.296  0.4600  0.3606 -0.3390
    8MOL   O445 8019   0.520   0.908   1.384 -0.1145  0.4152  0.7944
    8MOL   C446 8020   0.532   1.046   1.364  0.2797 -0.1517  0.7360
    8MOL   C447 8021   0.583   1.093   1.245  0.4475  0.0834  0.4773
    8MOL   C448 8022   0.607   1.229   1.234  0.4572 -0.8187 -0.0064
    8MOL   C449 8023   0.585   1.323   1.339  0.0363  0.6040  0.2178
    8MOL   C450 8024   0.608   1.475   1.322  0.1584 -0.6358  0.1333
    8MOL   C451 8025   0.516   1.531   1.208 -0.5494  0.0185 -0.3735
    8MOL   C452 8026   0.569   1.561   1.450 -0.1147  0.6295  0.6362
    8MOL   C453 8027   0.752   1.516   1.282 -0.3052 -1.1774  0.7678
    8MOL   C454 8028   0.855   1.423   1.269  0.0627 -0.1119  0.3952
    8MOL   C455 8029   0.987   1.458   1.229  0.1695  0.5143 -0.5965
    8MOL   C456 8030   1.022   1.595   1.216 -0.3454  0.4629  0.1693
    8MOL   O457 8031   1.151   1.628   1.186 -0.1472 -0.4577 -0.0779
    8MOL   C458 8032   0.919   1.686   1.226 -0.2328 -0.7469 -0.3484
    8MOL   C459 8033   0.785   1.654   1.266  0.3340 -0.1088  0.1334
    8MOL   C460 8034   0.522   1.274   1.454 -0.3159  0.1135  0.7114
    8MOL   C461 8035   0.494   1.134   1.466  0.2368 -0.4563 -0.2300
    8MOL   C462 8036   0.523   0.771   1.186  0.1156 -0.1316  0.0184
    8MOL   C463 8037   0.457   0.678   1.107  0.0700 -0.3004  0.2205
    8MOL   C464 8038   0.338   0.319   1.236  0.8518  0.1050  0.4926
    8MOL   C465 8039   0.416   0.215   1.274 -0.4211 -0.2343 -0.0779
    8MOL   H466 8040   0.617   0.173   1.005  0.2944  0.0603  0.0450
    8MOL   H467 8041   0.450   0.339   0.912 -0.9226 -0.2385  0.2105
    8MOL   H468 8042   0.157   0.662   1.268  0.5095  0.7372  1.7285
    8MOL   H469 8043   0.273   0.821   1.412 -0.7310  0.3998 -0.8193
    8MOL   H470 8044   0.618   1.034   1.161 -0.2802  1.8998 -1.1441
    8MOL   H471 8045   0.643   1.263   1.139 -0.4942  2.4508  0.7269
    8MOL   H472 8046   0.410   1.509   1.221 -0.4472 -0.1178  0.2680
    8MOL   H473 8047   0.538   1.480   1.114 -0.8829 -0.1765 -0.3437
    8MOL   H474 8048   0.525   1.637   1.183 -0.0140  0.0070 -0.2462
    8MOL   H475 8049   0.466   1.554   1.485 -0.6572 -0.3056 -1.1384
    8MOL   H476 8050   0.643   1.538   1.527  2.5541 -0.2174 -2.0986
    8MOL   H477 8051   0.569   1.669   1.431 -0.1443  0.8348  1.7472
    8MOL   H478 8052   0.834   1.318   1.285 -1.5819 -0.3837 -2.9930
    8MOL   H479 8053   1.069   1.388   1.225  0.0047  0.3131 -0.5092
    8MOL   H480 8054   0.949   1.788   1.209 -1.1098 -0.2539  0.9632
    8MOL   H481 8055   0.713   1.734   1.273  1.6449  1.1690 -0.5672
    8MOL   H482 8056   0.497   1.337   1.538  2.1068  2.0134  0.0767
    8MOL   H483 8057   0.451   1.087   1.553 -1.3216 -0.7208 -1.1262
    8MOL   H484 8058   0.629   0.792   1.180 -0.1824  1.0832 -1.3818
    8MOL   H485 8059   0.503   0.633   1.019 -2.0324  0.9808 -1.5916
    8MOL   H486 8060   0.260   0.367   1.294 -0.2876 -2.1587  0.9035
    8MOL   H487 8061   0.404   0.180   1.375  2.9766  0.9806  0.8056
    8MOL   C488 8062   1.181   1.623   1.056  0.1037 -0.6182 -0.4729
    8MOL   C489 8063   1.220   1.745   0.989 -0.0213  0.0797 -0.3174
    8MOL   C490 8064   1.225   1.751   0.850 -0.0813  0.0329  0.0517
    8MOL   C491 8065   1.204   1.633   0.780  0.1532 -0.0391 -0.0134
    8MOL   S492 8066   1.178   1.648   0.599  0.5729 -0.4172 -0.0473
    8MOL   O493 8067   1.208   1.513   0.545  0.6466 -0.5536 -0.6084
    8MOL   O494 8068   1.264   1.755   0.553 -0.0233  0.2745 -0.6086
    8MOL   C495 8069   0.999   1.678   0.582  0.3338 -0.2325  0.6520
    8MOL   C496 8070   0.946   1.813   0.592 -0.1080  0.4371 -0.9484
    8MOL   C497 8071   0.808   1.831   0.558 -0.5181  0.0040 -0.9493
    8MOL   C498 8072   0.718   1.723   0.531 -0.1492  0.4192  0.0365
    8MOL   O499 8073   0.588   1.769   0.511  0.0705 -0.1362 -0.2929
    8MOL   C500 8074   0.489   1.704   0.441  0.1477 -0.3700  0.5890
    8MOL   C501 8075   0.356   1.733   0.471  0.3602 -0.1765 -0.3673
    8MOL   C502 8076   0.248   1.674   0.405  0.1448 -0.4948  0.1647
    8MOL   C503 8077   0.267   1.584   0.297 -0.3888 -0.5292 -0.1068
    8MOL   C504 8078   0.160   1.508   0.225  0.0636  0.5200  0.6927
    8MOL   C505 8079   0.019   1.547   0.267  0.0912 -0.0336 -0.4684
    8MOL   C506 8080   0.177   1.536   0.075  0.0469  0.6475 -0.2485
    8MOL   C507 8081   0.161   1.352   0.250 -0.7729 -0.3207 -0.4414
    8MOL   C508 8082   0.204   1.311   0.377  0.1537  0.5217 -0.1978
    8MOL   C509 8083   0.210   1.168   0.402 -0.5425  0.1124  0.7910
    8MOL   C510 8084   0.161   1.075   0.304 -0.1919 -0.0171  0.8463
    8MOL   O511 8085   0.141   0.945   0.330 -0.2766  0.2871  0.5644
    8MOL   C512 8086   0.122   1.121   0.177 -0.1784  0.6342 -0.1110
    8MOL   C513 8087   0.122   1.255   0.151  0.4108 -1.0678 -0.1300
    8MOL   C514 8088   0.405   1.557   0.262 -0.3073  0.1638  0.5078
    8MOL   C515 8089   0.513   1.618   0.326 -0.2160  0.4193  0.3089
    8MOL   C516 8090   0.776   1.592   0.514  0.1208 -0.1169  0.5686
    8MOL   C517 8091   0.918   1.569   0.540  1.3751  0.0503  0.1279
    8MOL   C518 8092   1.180   1.509   0.842 -0.4861 -0.5173 -0.1410
    8MOL   C519 8093   1.171   1.501   0.984 -0.0053  0.8048  0.3798
    8MOL   H520 8094   1.237   1.837   1.044 -1.9149 -0.4483  1.2062
    8MOL   H521 8095   1.269   1.834   0.797  1.2425  0.3588  1.6055
    8MOL   H522 8096   1.011   1.898   0.608  1.2130 -0.6482 -0.4539
    8MOL   H523 8097   0.761   1.928   0.557  1.5085  0.9972 -2.2077
    8MOL   H524 8098   0.340   1.815   0.539  0.4247 -0.6733  0.2463
    8MOL   H525 8099   0.146   1.710   0.413  0.8263  1.8886 -1.3003
    8MOL   H526 8100   8.200   1.484   0.215  0.7980 -1.6024  0.4108
    8MOL   H527 8101   8.238   1.650   0.255  0.2279  0.3660  2.3926
    8MOL   H528 8102   0.008   1.525   0.373 -1.0035  0.1920 -0.5310
    8MOL   H529 8103   0.105   1.499   0.003 -0.5709 -0.0226  0.7006
    8MOL   H530 8104   0.181   1.643   0.059  2.8045  0.9314  1.9090
    8MOL   H531 8105   0.272   1.494   0.040  0.0831 -0.2665  0.8999
    8MOL   H532 8106   0.244   1.379   0.451 -0.6075  0.6191  0.1235
    8MOL   H533 8107   0.237   1.139   0.502 -1.1598 -0.7895  0.7018
    8MOL   H534 8108   0.106   1.052   0.096 -0.3415 -1.0448  1.3080
    8MOL   H535 8109   0.091   1.278   0.050 -0.6281  2.2871  0.8696
    8MOL   H536 8110   0.424   1.493   0.178  2.1488  1.0597  0.3595
    8MOL   H537 8111   0.607   1.593   0.279 -0.7524 -0.6720 -0.2267
    8MOL   H538 8112   0.709   1.513   0.485  1.7847 -2.1142  2.0698
    8MOL   H539 8113   0.962   1.473   0.519 -0.2294 -0.2563 -1.9081
    8MOL   H540 8114   1.171   1.418   0.784  2.5359  0.0851 -1.6325
    8MOL   H541 8115   1.152   1.403   1.026  1.3099  0.0453 -0.7810
    8MOL   C542 8116   0.010   0.902   0.337  0.8169 -0.0893 -0.1848
    8MOL   C543 8117   8.182   0.908   0.458 -0.2784  0.0845  0.0239
    8MOL   C544 8118   8.055   0.845   0.471 -0.2713 -0.6061 -0.0812
    8MOL   C545 8119   7.998   0.786   0.359  0.5016  0.6332  0.1612
    8MOL   S546 8120   7.829   0.714   0.353 -0.0163 -0.2413  0.0441
    8MOL   O547 8121   7.748   0.754   0.237 -0.5868  0.1051  0.1781
    8MOL   O548 8122   7.781   0.736   0.491 -0.0560 -0.0170  0.6830
    8MOL   C549 8123   7.870   0.548   0.334  0.0160  0.1527 -0.2569
    8MOL   C550 8124   7.874   0.493   0.204 -0.1029 -0.1914 -0.1474
    8MOL   C551 8125   7.933   0.371   0.178 -0.1247  0.1340 -0.9296
    8MOL   C552 8126   7.978   0.295   0.287 -0.0668 -0.2481 -0.4765
    8MOL   O553 8127   8.023   0.166   0.260  0.2313  0.1454  0.2142
    8MOL   C554 8128   7.992   0.068   0.350  0.0921  0.5577 -0.1716
    8MOL   C555 8129   7.862   0.022   0.360  0.9741  0.3459  0.0128
    8MOL   C556 8130   7.833   8.158   0.432  0.3905 -0.1990 -0.8757
    8MOL   C557 8131   7.935   8.085   0.499  0.5148 -0.1740  0.4528
    8MOL   C558 8132   7.888   7.958   0.581 -0.2969  0.5519 -0.0925
    8MOL   C559 8133   7.831   7.851   0.476  0.1303 -0.2223 -0.2503
    8MOL   C560 8134   8.004   7.893   0.646 -0.2881 -0.3399 -0.4515
    8MOL   C561 8135   7.780   7.992   0.687  0.1800 -0.3389 -0.8203
    8MOL   C562 8136   7.781   8.115   0.751  0.5066  0.4603 -0.4716
    8MOL   C563 8137   7.698   8.135   0.860  0.7738  0.1112  0.0205
    8MOL   C564 8138   7.616   8.041   0.914 -0.1110  0.7738 -0.8363
    8MOL   O565 8139   7.536   8.066   1.020  0.4035 -0.2754  0.1383
    8MOL   C566 8140   7.613   7.915   0.854 -0.5739  0.0469  0.7520
    8MOL   C567 8141   7.699   7.888   0.749  0.7756 -0.5572 -0.1437
    8MOL   C568 8142   8.069   8.129   0.489  0.3950 -1.1630 -0.2379
    8MOL   C569 8143   8.096   8.246   0.416  0.2026  0.2950 -0.5503
    8MOL   C570 8144   7.976   0.350   0.422 -0.6234  0.6541  0.3253
    8MOL   C571 8145   7.925   0.479   0.442  1.0379 -1.1994  0.0157
    8MOL   C572 8146   8.068   0.794   0.236  0.2863 -0.0772 -0.1956
    8MOL   C573 8147   8.194   0.850   0.221 -0.3634  0.2679  0.0453
    8MOL   H574 8148   8.230   0.964   0.537 -1.0301  0.6522  0.0820
    8MOL   H575 8149   8.005   0.850   0.567  1.3089 -0.9210  0.7809
    8MOL   H576 8150   7.842   0.542   0.114  0.2493 -1.5240 -1.0130
    8MOL   H577 8151   7.923   0.330   0.079  2.2599 -0.3857 -0.9712
    8MOL   H578 8152   7.789   0.077   0.302  1.7395  3.8889  2.2774
    8MOL   H579 8153   7.730   8.125   0.432  0.8346 -1.6139 -1.5674
    8MOL   H580 8154   7.895   7.825   0.392  0.3477  3.0233 -1.1275
    8MOL   H581 8155   7.735   7.883   0.436 -0.3115  0.0391  0.9756
    8MOL   H582 8156   7.805   7.755   0.521  0.2296 -0.1959 -0.1376
    8MOL   H583 8157   8.085   7.861   0.581 -0.2598 -0.1759 -0.4950
    8MOL   H584 8158   8.047   7.957   0.723  1.6559 -2.3132  0.1562
    8MOL   H585 8159   7.979   7.807   0.708  2.8855 -0.3190  0.9561
    8MOL   H586 8160   7.846   8.195   0.717  1.6533  0.0252  0.6722
    8MOL   H587 8161   7.677   8.232   0.902 -0.0193 -0.6815  1.4977
    8MOL   H588 8162   7.545   7.838   0.885  0.4901 -1.2737 -0.1663
    8MOL   H589 8163   7.702   7.790   0.705  2.1362  0.8577 -3.3698
    8MOL   H590 8164   8.145   8.082   0.550 -0.5014 -1.7684  0.4161
    8MOL   H591 8165   8.197   0.030   0.416 -0.2501  1.5876  0.8224
    8MOL   H592 8166   8.020   0.301   0.508 -0.7299 -0.5568 -0.3151
    8MOL   H593 8167   7.918   0.528   0.538  0.2966 -0.7201 -0.2816
    8MOL   H594 8168   8.024   0.759   0.144  1.1745 -1.1349 -0.2379
    8MOL   H595 8169   8.234   0.852   0.120  1.0554  0.7499  0.6196
    8MOL   C596 8170   7.603   8.086   1.136 -0.3190  0.1618  0.0573
    8MOL   C597 8171   7.628   7.977   1.223 -0.9288  0.1717  0.2743
    8MOL   C598 8172   7.680   7.998   1.350 -0.3778  0.0879  1.1422
    8MOL   C599 8173   7.720   8.125   1.387 -0.4839  0.6585 -0.0090
    8MOL   S600 8174   7.770   8.154   1.548  0.1207  0.4199  0.0391
    8MOL   O601 8175   7.683   0.010   1.599  0.3441  0.2451 -0.6818
    8MOL   O602 8176   7.911   8.180   1.548 -0.4503 -0.1284  0.2087
    8MOL   C603 8177   7.746   8.005   1.646 -0.4534 -0.7930  0.0074
    8MOL   C604 8178   7.839   7.898   1.647  0.3872  0.4558 -0.3520
    8MOL   C605 8179   7.823   7.796   1.740  0.2441  0.4085 -0.1735
    8MOL   C606 8180   7.710   7.785   1.824  0.6071  0.2113  0.1386
    8MOL   O607 8181   7.688   7.687   1.920 -0.8470 -0.5833  0.4285
    8MOL   C608 8182   7.679   7.561   1.872  0.6597 -0.4773 -0.0718
    8MOL   C609 8183   7.775   7.467   1.901 -0.1540  0.4527 -0.3736
    8MOL   C610 8184   7.765   7.339   1.847 -0.3421  0.9019  0.4108
    8MOL   C611 8185   7.653   7.294   1.776 -0.3831 -0.1963 -0.5937
    8MOL   C612 8186   7.633   7.146   1.740 -0.3600  0.1277  0.6014
    8MOL   C613 8187   7.617   7.063   1.872 -0.7999  0.5782 -0.5116
    8MOL   C614 8188   7.504   7.118   1.657 -0.3164 -0.4369 -0.4138
    8MOL   C615 8189   7.758   7.101   1.655  1.2072  1.0612 -0.4781
    8MOL   C616 8190   7.785   6.962   1.654  0.3808  0.1542 -1.0041
    8MOL   C617 8191   7.887   6.912   1.574 -0.8862 -0.2616 -0.2615
    8MOL   C618 8192   7.962   7.001   1.492  0.2368  0.7662 -0.4836
    8MOL   O619 8193   8.054   6.970   1.396  0.2488  0.3009  0.7535
    8MOL   C620 8194   7.937   7.141   1.495  0.4030 -0.0739  0.6652
    8MOL   C621 8195   7.837   7.189   1.582  0.0942 -0.2265 -0.1495
    8MOL   C622 8196   7.555   7.394   1.749 -0.7413  0.5161 -1.1439
    8MOL   C623 8197   7.568   7.527   1.800  0.8430 -0.0307 -0.1223
    8MOL   C624 8198   7.619   7.904   1.833  0.0519  0.6166  1.1116
    8MOL   C625 8199   7.641   8.013   1.740 -0.3591 -0.0716 -0.2827
    8MOL   C626 8200   7.720   8.230   1.295  0.1428  0.0288  1.0948
    8MOL   C627 8201   7.653   8.214   1.170  0.3637 -0.2206  0.0237
    8MOL   H628 8202   7.595   7.880   1.190 -3.1593  0.8594  0.4485
    8MOL   H629 8203   7.683   7.910   1.413  0.5814 -0.1255  0.8045
    8MOL   H630 8204   7.921   7.893   1.577  0.0493 -3.4654 -0.6290
    8MOL   H631 8205   7.890   7.710   1.743  1.8618  1.6413 -0.0850
    8MOL   H632 8206   7.860   7.497   1.961 -0.7470 -1.2736  1.3605
    8MOL   H633 8207   7.854   7.276   1.851 -0.7108  0.4080  0.9070
    8MOL   H634 8208   7.711   7.059   1.928 -0.3324  0.0729 -1.3064
    8MOL   H635 8209   7.588   6.960   1.856  1.0409  0.0658 -0.7058
    8MOL   H636 8210   7.540   7.102   1.938  2.1154  0.9664  2.7978
    8MOL   H637 8211   7.506   7.166   1.559 -0.2459  0.0124 -0.1971
    8MOL   H638 8212   7.505   7.013   1.628  0.2538 -0.1445 -1.4920
    8MOL   H639 8213   7.411   7.144   1.708 -0.8658 -1.9169 -0.6634
    8MOL   H640 8214   7.731   6.893   1.716  1.4234 -0.3941 -0.6985
    8MOL   H641 8215   7.897   6.805   1.570  1.6919 -0.0028 -2.7010
    8MOL   H642 8216   7.987   7.208   1.428  2.5705  1.3337  3.5693
    8MOL   H643 8217   7.815   7.294   1.570 -1.7466 -0.5961 -0.2466
    8MOL   H644 8218   7.464   7.374   1.695 -0.9714  1.9010 -1.2654
    8MOL   H645 8219   7.494   7.605   1.791  0.5573 -0.3103 -0.2045
    8MOL   H646 8220   7.531   7.914   1.895 -0.8656  1.1147 -0.2427
    8MOL   H647 8221   7.570   8.093   1.745 -0.8170 -0.3904 -1.5427
    8MOL   H648 8222   7.761   0.073   1.320 -1.3446  0.7236  0.9240
    8MOL   H649 8223   7.643   0.050   1.110 -1.4137 -0.4578 -0.0594
    8MOL   C650 8224   8.140   6.864   1.417 -0.8973  0.0456 -0.0654
    8MOL   C651 8225   8.174   6.770   1.319  0.9800 -0.3859  0.0704
    8MOL   C652 8226   0.003   6.655   1.351  0.6880 -0.0254 -0.5178
    8MOL   C653 8227   0.055   6.644   1.479  0.1657  0.5569 -0.1155
    8MOL   S654 8228   0.146   6.503   1.516 -0.3268 -0.1829  0.0126
    8MOL   O655 8229   0.290   6.538   1.509 -0.4262  0.2390 -0.3058
    8MOL   O656 8230   0.094   6.391   1.438 -0.1923 -0.1582  0.3742
    8MOL   C657 8231   0.123   6.471   1.691  0.5142  0.9350 -1.0054
    8MOL   C658 8232   0.004   6.404   1.714  0.3930  0.1031  0.1268
    8MOL   C659 8233   8.219   6.385   1.849 -0.1846 -0.3406  0.5843
    8MOL   C660 8234   0.043   6.432   1.954 -1.0808 -0.1325  0.6370
    8MOL   O661 8235   8.245   6.427   2.081  0.3678 -0.4260  0.0427
    8MOL   C662 8236   0.069   6.394   2.184  0.1628 -0.2156 -0.2359
    8MOL   C663 8237   0.052   6.466   2.301 -0.2451  0.1517 -0.4406
    8MOL   C664 8238   0.129   6.441   2.417  0.2501  0.7855 -0.3856
    8MOL   C665 8239   0.227   6.341   2.416 -0.2698 -0.0742 -0.1697
    8MOL   C666 8240   0.314   6.311   2.539 -0.0860  0.3553 -0.5410
    8MOL   C667 8241   0.254   6.366   2.668 -0.9497 -0.5129  0.2621
    8MOL   C668 8242   0.316   6.164   2.559  0.9329  0.2015 -0.0198
    8MOL   C669 8243   0.457   6.366   2.517 -0.6115 -0.0949  0.1192
    8MOL   C670 8244   0.470   6.497   2.468 -0.0487  0.3298  0.6178
    8MOL   C671 8245   0.596   6.550   2.438 -0.4326  0.0119 -1.1605
    8MOL   C672 8246   0.706   6.479   2.474  0.0275  0.3113  0.2000
    8MOL   O673 8247   0.829   6.542   2.469  0.4029 -0.4314 -0.0550
    8MOL   C674 8248   0.702   6.354   2.531 -0.2482  0.3120 -0.6466
    8MOL   C675 8249   0.575   6.298   2.551  0.0103 -0.1100 -0.0978
    8MOL   C676 8250   0.253   6.271   2.299 -0.2048 -0.6401 -0.8514
    8MOL   C677 8251   0.160   6.288   2.192  0.0112 -0.1033  0.1492
    8MOL   C678 8252   0.173   6.491   1.926  0.2215 -0.0029 -0.2562
    8MOL   C679 8253   0.214   6.512   1.795 -0.0585  0.1377 -0.4007
    8MOL   C680 8254   0.018   6.736   1.580 -0.2823 -0.7338  0.1112
    8MOL   C681 8255   8.191   6.846   1.547  0.1528  0.4662 -0.3553
    8MOL   H682 8256   8.147   6.782   1.216 -2.6007  4.3842  1.4032
    8MOL   H683 8257   0.015   6.578   1.277  0.5820 -1.7240  1.1727
    8MOL   H684 8258   8.198   6.364   1.634  0.7025  0.4796 -0.2913
    8MOL   H685 8259   8.133   6.325   1.876 -0.7205  0.5375  0.8575
    8MOL   H686 8260   8.235   6.548   2.302  1.0295  1.2640  2.2724
    8MOL   H687 8261   0.109   6.499   2.506  1.8074  1.0949 -0.2206
    8MOL   H688 8262   0.238   6.473   2.652 -0.2177 -0.7556 -2.2044
    8MOL   H689 8263   0.315   6.345   2.757  2.0186 -0.1614 -1.6087
    8MOL   H690 8264   0.167   6.318   2.711  0.6821 -2.5544  1.4068
    8MOL   H691 8265   0.211   6.138   2.575  0.8018  0.5112 -0.3862
    8MOL   H692 8266   0.362   6.109   2.478 -1.1363 -1.4612 -0.1136
    8MOL   H693 8267   0.377   6.127   2.642  5.0967  1.9066 -2.2334
    8MOL   H694 8268   0.373   6.542   2.450  0.3425  0.1079 -2.4323
    8MOL   H695 8269   0.601   6.644   2.386 -0.4886 -0.9583 -2.9399
    8MOL   H696 8270   0.794   6.301   2.550  0.2974  0.5215 -2.6107
    8MOL   H697 8271   0.558   6.199   2.588  0.8486 -2.2083 -4.8891
    8MOL   H698 8272   0.323   6.188   2.300  0.0641 -0.4150 -0.8025
    8MOL   H699 8273   0.159   6.227   2.102  0.1563  1.0125 -0.6145
    8MOL   H700 8274   0.241   6.521   2.005 -0.2847 -1.5810  0.7956
    8MOL   H701 8275   0.308   6.551   1.760  1.0539 -1.3090  0.9015
    8MOL   H702 8276   0.069   6.731   1.675  1.7772  0.8615 -0.8693
    8MOL   H703 8277   8.181   6.920   1.625  0.1729  0.8120 -0.6785
    8MOL   C704 8278   0.870   6.558   2.340 -0.2027  0.2680  0.8450
    8MOL   C705 8279   0.869   6.686   2.283  0.3504 -0.5917  0.1623
    8MOL   C706 8280   0.920   6.712   2.154  0.8004  0.1361  0.3454
    8MOL   C707 8281   0.960   6.602   2.072  0.2745 -0.4593 -0.1812
    8MOL   S708 8282   1.035   6.637   1.913  0.7609 -0.0926 -0.3291
    8MOL   O709 8283   0.933   6.699   1.835 -0.4829 -0.0487  0.0443
    8MOL   O710 8284   1.092   6.519   1.855  0.6829 -0.3984 -0.7849
    8MOL   C711 8285   1.172   6.754   1.951  0.0947  0.0742 -0.7101
    8MOL   C712 8286   1.157   6.893   1.932 -0.4060  0.0311  0.1966
    8MOL   C713 8287   1.245   6.979   1.996  0.2439  0.0301  0.3715
    8MOL   C714 8288   1.360   6.928   2.057 -0.3909 -0.3258 -0.4719
    8MOL   O715 8289   1.459   7.009   2.106 -0.2887 -0.4292 -0.4811
    8MOL   C716 8290   1.456   7.033   2.242 -0.5300 -0.2964  0.0162
    8MOL   C717 8291   1.364   7.120   2.302  0.3547 -0.3335 -0.3468
    8MOL   C718 8292   1.365   7.140   2.444 -0.8029  0.3390  0.3295
    8MOL   C719 8293   1.457   7.064   2.521 -0.2474 -0.0964 -0.3752
    8MOL   C720 8294   1.453   7.071   2.677 -0.3210  0.4688 -0.0391
    8MOL   C721 8295   1.307   7.088   2.719 -0.2461 -0.3021 -0.6534
    8MOL   C722 8296   1.506   6.934   2.736  0.2800 -0.3797  0.2659
    8MOL   C723 8297   1.544   7.183   2.735 -0.8410  0.0805 -0.2684
    8MOL   C724 8298   1.542   7.206   2.876  0.4369 -0.3779  0.6269
    8MOL   C725 8299   1.629   7.294   2.940 -0.0355  0.7201 -0.3568
    8MOL   C726 8300   1.724   7.358   2.866 -0.0806 -0.0774  0.5616
    8MOL   O727 8301   1.810   7.436   2.944  0.3135 -0.4628 -0.1830
    8MOL   C728 8302   1.734   7.335   2.724 -0.1044 -0.3133  0.2909
    8MOL   C729 8303   1.648   7.249   2.665  0.3049  0.2651  0.3452
    8MOL   C730 8304   1.553   6.985   2.455  0.0446 -0.5978 -0.1128
    8MOL   C731 8305   1.544   6.965   2.318  0.3821  0.0948 -0.5796
    8MOL   C732 8306   1.390   6.788   2.054 -0.1309 -0.1409  0.2161
    8MOL   C733 8307   1.284   6.703   2.019 -0.0633 -0.6439  0.2758
    8MOL   C734 8308   0.947   6.468   2.117 -0.0031 -0.1201 -0.2010
    8MOL   C735 8309   0.908   6.448   2.254 -0.7052 -0.0338 -0.7363
    8MOL   H736 8310   0.830   6.763   2.348 -0.1645 -0.2464 -0.5525
    8MOL   H737 8311   0.919   6.817   2.127 -1.6721 -0.1288 -0.6921
    8MOL   H738 8312   1.070   6.926   1.877 -0.2978 -1.2262 -0.7548
    8MOL   H739 8313   1.242   7.085   1.974  1.2267 -0.4044 -1.9601
    8MOL   H740 8314   1.293   7.168   2.235 -0.7629 -0.5453  0.6623
    8MOL   H741 8315   1.301   7.215   2.487  1.7843  3.0216 -0.3038
    8MOL   H742 8316   1.300   7.074   2.827  1.0171  0.6353 -0.4401
    8MOL   H743 8317   1.248   7.007   2.676 -1.7365  0.2796  0.2260
    8MOL   H744 8318   1.250   7.174   2.683  0.7864  0.2039 -1.1051
    8MOL   H745 8319   1.448   6.845   2.711 -0.9238  0.0801  1.2984
    8MOL   H746 8320   1.612   6.914   2.721 -0.0542 -0.8348 -1.5225
    8MOL   H747 8321   1.500   6.942   2.845 -1.4224  0.2418  0.1440
    8MOL   H748 8322   1.464   7.157   2.932  0.2325 -0.6104  0.1356
    8MOL   H749 8323   1.615   7.294   3.047  1.2484 -2.1824 -0.1613
    8MOL   H750 8324   1.819   7.379   2.674 -0.5940  1.2023  0.7429
    8MOL   H751 8325   1.682   7.212   2.569  0.6435  0.8219  0.2458
    8MOL   H752 8326   1.636   6.937   2.505 -0.0823  0.9360  1.5711
    8MOL   H753 8327   1.607   6.894   2.266  1.1943  1.3128 -1.2908
    8MOL   H754 8328   1.481   6.750   2.098  2.0273  0.8587 -3.1829
    8MOL   H755 8329   1.300   6.596   2.025  1.5714 -0.3677  1.2795
    8MOL   H756 8330   0.983   6.392   2.048 -0.0612  0.1981 -0.5830
    8MOL   H757 8331   0.908   6.349   2.298 -0.4681  1.2503  2.2918
    8MOL   C758 8332   1.940   7.429   2.902 -0.0653  0.2240  0.7871
    8MOL   C759 8333   2.007   7.309   2.923  0.2080 -0.6928 -0.5628
    8MOL   C760 8334   2.143   7.290   2.890  0.0063 -0.4077 -0.3037
    8MOL   C761 8335   2.212   7.400   2.836 -0.2615  0.3502 -0.4241
    8MOL   S762 8336   2.386   7.383   2.794 -0.1220 -0.0838 -0.0126
    8MOL   O763 8337   2.439   7.518   2.756  0.0259  0.2944  0.1191
    8MOL   O764 8338   2.399   7.272   2.702  0.2116  0.6807  0.5502
    8MOL   C765 8339   2.454   7.337   2.953 -0.0087  0.1817  0.6256
    8MOL   C766 8340   2.396   7.391   3.074 -0.2283 -1.2452  0.5893
    8MOL   C767 8341   2.454   7.363   3.202  0.0210 -0.6672 -0.7031
    8MOL   C768 8342   2.575   7.290   3.213  0.9072 -0.4632 -0.2173
    8MOL   O769 8343   2.640   7.276   3.327  0.0528 -0.5172  0.0835
    8MOL   C770 8344   2.766   7.321   3.338 -0.6618  0.0302  0.0643
    8MOL   C771 8345   2.812   7.432   3.261  0.5176 -0.1630 -0.3449
    8MOL   C772 8346   2.948   7.470   3.278 -0.3958  0.4165  0.1515
    8MOL   C773 8347   3.036   7.416   3.373  0.0597  0.3700  0.2479
    8MOL   C774 8348   3.190   7.464   3.387  1.5715  0.2803 -0.1786
    8MOL   C775 8349   3.270   7.334   3.380 -0.2724 -0.1798  0.5668
    8MOL   C776 8350   3.232   7.556   3.272 -0.5391  0.0133 -0.7869
    8MOL   C777 8351   3.222   7.531   3.519  0.1294  0.2610 -0.2115
    8MOL   C778 8352   3.352   7.577   3.546 -0.2251 -0.0328  0.4806
    8MOL   C779 8353   3.388   7.639   3.667 -1.0786  0.0240  0.1115
    8MOL   C780 8354   3.290   7.651   3.766 -0.3124 -0.3453 -0.0459
    8MOL   O781 8355   3.317   7.695   3.893  0.9883 -0.0374  0.5121
    8MOL   C782 8356   3.156   7.612   3.739 -0.3766  0.2587 -0.1280
    8MOL   C783 8357   3.125   7.560   3.614  0.0081 -0.3232 -0.0159
    8MOL   C784 8358   2.986   7.304   3.444  0.6340 -0.4855 -0.5617
    8MOL   C785 8359   2.852   7.262   3.433  0.7630 -0.0036  0.4391
    8MOL   C786 8360   2.631   7.236   3.095  0.0800  0.2961  0.9248
    8MOL   C787 8361   2.580   7.269   2.965  0.4564 -0.1866  0.0813
    8MOL   C788 8362   2.146   7.521   2.808  0.4078 -0.4543 -0.3691
    8MOL   C789 8363   2.009   7.535   2.836  0.3406 -0.6034  0.4180
    8MOL   H790 8364   1.950   7.224   2.957 -1.4496  1.1455  1.3940
    8MOL   H791 8365   2.183   7.190   2.897  0.2125 -0.4969 -2.4744
    8MOL   H792 8366   2.314   7.460   3.067 -1.0524 -2.3732 -1.3985
    8MOL   H793 8367   2.408   7.401   3.292  1.7880  0.5783 -0.3093
    8MOL   H794 8368   2.753   7.471   3.179  0.4133  2.0066  0.7345
    8MOL   H795 8369   2.983   7.548   3.212 -0.3922  1.1605  1.0285
    8MOL   H796 8370   3.251   7.249   3.445 -1.6426 -0.1262  0.2688
    8MOL   H797 8371   3.376   7.358   3.377 -0.3305 -0.0192 -0.6838
    8MOL   H798 8372   3.245   7.295   3.281  1.3603  1.6329 -0.6072
    8MOL   H799 8373   3.176   7.650   3.280  0.0842  0.2012  1.9843
    8MOL   H800 8374   3.338   7.577   3.279 -0.4334 -0.9160  0.3871
    8MOL   H801 8375   3.214   7.505   3.178  0.6450 -0.0155 -0.9996
    8MOL   H802 8376   3.430   7.563   3.472 -0.2116  0.0472  0.4796
    8MOL   H803 8377   3.489   7.675   3.682 -1.1250  0.3697 -0.4199
    8MOL   H804 8378   3.082   7.636   3.815 -1.8716  2.0595 -2.0716
    8MOL   H805 8379   3.020   7.533   3.608 -0.0618 -0.0296 -0.1159
    8MOL   H806 8380   3.048   7.267   3.523  0.4788  1.5473  0.5636
    8MOL   H807 8381   2.813   7.173   3.482 -0.3070 -0.4125 -1.1015
    8MOL   H808 8382   2.720   7.175   3.103 -1.0434 -1.5698 -0.1319
    8MOL   H809 8383   2.630   7.231   2.877  1.2006  1.1200 -0.0722
    8MOL   H810 8384   2.199   7.607   2.769  0.2204 -0.3978 -0.5042
    8MOL   H811 8385   1.958   7.627   2.812 -2.3106 -1.7485  1.4358
    8MOL   C812 8386   3.378   7.815   3.912 -0.2649  0.2774  0.2592
    8MOL   C813 8387   3.338   7.931   3.848 -0.1988  0.3732 -0.0164
    8MOL   C814 8388   3.402   8.055   3.877 -0.0654 -0.4599  0.1736
    8MOL   C815 8389   3.514   8.060   3.965  0.2646 -0.3737 -0.2847
    8MOL   S816 8390   3.608   8.210   3.993  0.1909 -0.3410 -0.0076
    8MOL   O817 8391   3.576   0.056   3.885 -0.1872  0.2000  0.2996
    8MOL   O818 8392   3.747   8.169   4.004 -0.2159 -0.0069 -0.0814
    8MOL   C819 8393   3.560   0.013   4.155 -1.0252 -0.1868  0.3669
    8MOL   C820 8394   3.569   8.172   4.262 -0.1739 -0.7052  0.7477
    8MOL   C821 8395   3.550   8.227   4.387  0.3641  0.3616 -0.0619
    8MOL   C822 8396   3.535   0.113   4.410  0.0516  0.5815  0.1725
    8MOL   O823 8397   3.551   0.165   4.535  0.3527 -0.3792 -0.3623
    8MOL   C824 8398   3.434   0.169   4.604  0.2022 -1.0797 -0.6124
    8MOL   C825 8399   3.401   0.071   4.697 -0.4363 -0.5762 -0.4153
    8MOL   C826 8400   3.292   0.089   4.784  0.1221  0.7545  0.2529
    8MOL   C827 8401   3.207   0.195   4.768  0.2047 -0.4193 -0.3180
    8MOL   C828 8402   3.089   0.217   4.866  0.0789  0.2482 -0.1479
    8MOL   C829 8403   3.159   0.248   4.994  0.0195 -0.3283  0.5565
    8MOL   C830 8404   2.989   0.326   4.828 -0.1592 -0.4984  0.0835
    8MOL   C831 8405   3.016   0.077   4.885 -0.3423 -0.1587  0.0512
    8MOL   C832 8406   2.940   0.025   4.776  0.3117 -0.4225  0.2397
    8MOL   C833 8407   2.868   8.155   4.790 -0.1951  0.3123 -0.1195
    8MOL   C834 8408   2.869   8.078   4.907  0.7897 -0.4354  0.5201
    8MOL   O835 8409   2.793   7.968   4.915  0.2310 -0.3144  0.1749
    8MOL   C836 8410   2.945   8.129   5.022 -0.6379  0.0774  0.8293
    8MOL   C837 8411   3.018   8.252   5.004 -0.5513 -0.8859  0.1402
    8MOL   C838 8412   3.235   0.293   4.668 -0.1378  0.5039  0.3575
    8MOL   C839 8413   3.343   0.272   4.582  0.2353 -0.5332 -0.3332
    8MOL   C840 8414   3.533   0.204   4.298  0.4849 -0.9430  0.1624
    8MOL   C841 8415   3.552   0.155   4.167 -0.5200 -0.0854  0.2030
    8MOL   C842 8416   3.551   7.936   4.026 -0.2024 -0.3323 -0.3805
    8MOL   C843 8417   3.481   7.817   4.007 -0.3213 -1.5277  0.3838
    8MOL   H844 8418   3.245   7.927   3.794  0.1202 -2.0690 -0.4188
    8MOL   H845 8419   3.367   8.142   3.824 -1.8132 -0.8297  0.6855
    8MOL   H846 8420   3.580   8.065   4.252  0.8843 -0.5456  0.1598
    8MOL   H847 8421   3.552   8.153   4.466  2.8501 -2.1402 -2.3507
    8MOL   H848 8422   3.474   8.245   4.705 -0.6645 -0.5649  2.4735
    8MOL   H849 8423   3.260   0.012   4.853 -0.2649  1.1311  0.4968
    8MOL   H850 8424   3.228   0.331   4.976  1.0561 -1.6010 -1.5713
    8MOL   H851 8425   3.223   0.167   5.028 -0.7701 -0.8064  0.9192
    8MOL   H852 8426   3.101   0.281   5.080  1.4961 -0.6861  1.7069
    8MOL   H853 8427   2.946   0.309   4.729 -1.2211 -1.5426  0.7139
    8MOL   H854 8428   2.911   0.338   4.903 -1.9168 -1.5639 -1.5324
    8MOL   H855 8429   3.041   0.422   4.821 -1.0963  0.0018 -0.1386
    8MOL   H856 8430   2.930   0.088   4.688 -1.3493 -0.5413  0.3377
    8MOL   H857 8431   2.797   8.121   4.716 -0.2487 -0.0368  0.0916
    8MOL   H858 8432   2.952   8.078   5.117  0.6107 -1.9616 -0.3046
    8MOL   H859 8433   3.062   0.036   5.096 -0.8330  0.3898 -0.2332
    8MOL   H860 8434   3.183   0.387   4.664 -1.1065 -0.0888 -1.1590
    8MOL   H861 8435   3.362   0.348   4.508 -0.3740  0.5483  0.5875
    8MOL   H862 8436   3.516   0.309   4.314 -2.7612 -1.1735 -1.4294
    8MOL   H863 8437   3.565   0.218   4.080  0.7345 -0.1830  0.3102
    8MOL   H864 8438   3.627   7.934   4.103  1.2293 -1.9581 -1.8045
    8MOL   H865 8439   3.510   7.724   4.052  2.0283 -1.8892 -1.8052
    8MOL   C866 8440   2.861   7.853   4.938 -0.8983  0.9455  0.0364
    8MOL   C867 8441   2.871   7.800   5.068 -0.4459  0.4329 -0.6548
    8MOL   C868 8442   2.938   7.677   5.087  0.1873  0.3508  0.0875
    8MOL   C869 8443   2.980   7.602   4.975 -0.0450 -0.1794  0.3826
    8MOL   S870 8444   3.037   7.437   5.009  0.1135 -0.0291  0.0289
    8MOL   O871 8445   2.945   7.371   5.102  0.5914 -0.4734  0.2227
    8MOL   O872 8446   3.176   7.452   5.055 -0.0282  0.0270 -0.1243
    8MOL   C873 8447   3.044   7.342   4.854  0.2312 -0.3054 -0.0508
    8MOL   C874 8448   3.166   7.335   4.781  0.2843 -0.3111  0.2452
    8MOL   C875 8449   3.168   7.269   4.660  0.6072  0.3950 -0.3309
    8MOL   C876 8450   3.045   7.214   4.606 -0.1266  0.1808  0.0175
    8MOL   O877 8451   3.058   7.149   4.483 -0.1151 -0.3002 -0.2831
    8MOL   C878 8452   2.953   7.097   4.414 -0.7760 -0.9046  0.4464
    8MOL   C879 8453   2.946   6.963   4.398  0.0172  0.2528 -1.2874
    8MOL   C880 8454   2.837   6.906   4.337 -0.2559  0.6403 -0.2783
    8MOL   C881 8455   2.718   6.978   4.302 -0.2652  0.5621 -0.3418
    8MOL   C882 8456   2.595   6.905   4.253  0.1895  0.1455  0.2258
    8MOL   C883 8457   2.498   7.015   4.188  0.3298 -0.3967  0.3554
    8MOL   C884 8458   2.630   6.809   4.140  0.2054  0.0771 -0.1929
    8MOL   C885 8459   2.512   6.841   4.373 -0.0795 -0.1436 -0.4822
    8MOL   C886 8460   2.572   6.813   4.506  0.0591 -0.1873 -0.3090
    8MOL   C887 8461   2.497   6.771   4.616  0.0772  0.1643 -0.4949
    8MOL   C888 8462   2.359   6.739   4.602 -0.4266 -0.4480 -0.5577
    8MOL   O889 8463   2.278   6.719   4.715  0.0838  0.0727  0.2962
    8MOL   C890 8464   2.297   6.774   4.474 -0.4525  0.8721 -0.6615
    8MOL   C891 8465   2.375   6.838   4.370  0.4445  0.1541  0.4626
    8MOL   C892 8466   2.725   7.114   4.325 -0.5112 -0.0089 -0.3828
    8MOL   C893 8467   2.848   7.177   4.380 -0.3689  0.8154  0.5766
    8MOL   C894 8468   2.925   7.227   4.676 -0.1482 -0.3880  0.4573
    8MOL   C895 8469   2.923   7.291   4.800 -0.5098  0.0290  0.4521
    8MOL   C896 8470   2.987   7.659   4.849 -0.0925 -0.3233  0.4671
    8MOL   C897 8471   2.930   7.787   4.831  0.1693 -0.4493  0.1019
    8MOL   H898 8472   2.813   7.843   5.148  1.3575  2.5130 -0.4208
    8MOL   H899 8473   2.938   7.638   5.188  0.3960 -3.4281 -1.2929
    8MOL   H900 8474   3.251   7.372   4.838  0.5464  1.7215 -1.4257
    8MOL   H901 8475   3.256   7.266   4.599  0.4078  0.0347 -0.6036
    8MOL   H902 8476   3.023   6.904   4.445 -1.1201 -1.5498 -1.6392
    8MOL   H903 8477   2.843   6.801   4.311 -3.3489 -0.0095  1.3807
    8MOL   H904 8478   2.552   7.070   4.111 -0.2473 -0.6133 -0.2060
    8MOL   H905 8479   2.471   7.087   4.265  0.7393  1.1049 -0.8799
    8MOL   H906 8480   2.412   6.974   4.135  1.7597 -2.2912 -0.6210
    8MOL   H907 8481   2.686   6.723   4.175  2.0990  1.0067 -0.8812
    8MOL   H908 8482   2.543   6.766   4.089  2.0900 -2.6724 -1.1785
    8MOL   H909 8483   2.673   6.860   4.054 -1.4540  0.7274 -0.6740
    8MOL   H910 8484   2.679   6.814   4.521 -0.1471 -1.3254  1.3384
    8MOL   H911 8485   2.540   6.754   4.714 -1.3467 -0.1042  0.1103
    8MOL   H912 8486   2.193   6.749   4.457 -0.1712 -1.2955  0.6745
    8MOL   H913 8487   2.315   6.883   4.292  1.4466  1.3146  0.3543
    8MOL   H914 8488   2.642   7.183   4.314 -0.3743  0.4710  1.4578
    8MOL   H915 8489   2.860   7.284   4.389  0.2123  0.5325  3.7339
    8MOL   H916 8490   2.831   7.187   4.642  0.2373 -0.6430 -0.3012
    8MOL   H917 8491   2.825   7.305   4.845 -0.8370  0.8357 -0.5074
    8MOL   H918 8492   3.026   7.599   4.768 -0.9633 -1.5708  0.9630
    8MOL   H919 8493   2.934   7.823   4.729 -0.0239 -0.9337 -0.0766
    8MOL   C920 8494   2.295   6.603   4.783 -0.2760 -0.2643 -0.4024
    8MOL   C921 8495   2.288   6.474   4.728 -0.1462  0.1208 -0.1728
    8MOL   C922 8496   2.287   6.363   4.807  0.2380  0.5982  0.7844
    8MOL   C923 8497   2.290   6.377   4.946 -0.3192  0.3111 -0.8585
    8MOL   S924 8498   2.270   6.244   5.066  0.4508  0.0804  0.4873
    8MOL   O925 8499   2.403   6.215   5.121 -0.4695  0.4858  0.2806
    8MOL   O926 8500   2.191   6.134   5.009  0.4561  0.4065  0.0281
    8MOL   C927 8501   2.176   6.313   5.194  0.0602 -0.6027 -0.1830
    8MOL   C928 8502   2.237   6.377   5.303  0.6712 -0.8813 -1.2005
    8MOL   C929 8503   2.161   6.413   5.419  0.4683 -0.0366 -0.1017
    8MOL   C930 8504   2.020   6.391   5.416 -0.0994  0.4278 -0.6787
    8MOL   O931 8505   1.942   6.424   5.528 -0.0804 -0.3941 -0.0379
    8MOL   C932 8506   1.966   6.545   5.583  0.3027  0.2881 -0.0088
    8MOL   C933 8507   1.899   6.656   5.538  0.3264  0.2085  0.0405
    8MOL   C934 8508   1.914   6.780   5.610 -0.5836  0.4665 -0.1173
    8MOL   C935 8509   1.998   6.789   5.722 -0.4863  0.6543  0.7415
    8MOL   C936 8510   2.019   6.919   5.796  0.0340  0.6257 -0.3001
    8MOL   C937 8511   1.903   7.015   5.758 -0.2690 -0.0129 -0.1434
    8MOL   C938 8512   1.999   6.875   5.946  0.4413  0.3903  0.5455
    8MOL   C939 8513   2.154   6.983   5.765 -0.0239  0.4705  0.0128
    8MOL   C940 8514   2.202   6.982   5.632 -0.2426  0.6034 -0.2879
    8MOL   C941 8515   2.313   7.060   5.604 -0.6771 -0.0283  0.5537
    8MOL   C942 8516   2.375   7.136   5.705  0.4398  0.2095  1.0896
    8MOL   O943 8517   2.484   7.213   5.678 -0.4495 -0.3163  0.3179
    8MOL   C944 8518   2.334   7.138   5.840 -0.5150  0.8819 -0.6836
    8MOL   C945 8519   2.221   7.058   5.871  0.5248 -0.7774 -0.1760
    8MOL   C946 8520   2.065   6.670   5.759 -0.3037  0.2865  0.6426
    8MOL   C947 8521   2.047   6.550   5.697  0.2029 -0.1492 -0.3824
    8MOL   C948 8522   1.956   6.333   5.305 -0.1596  0.0289  0.0459
    8MOL   C949 8523   2.036   6.292   5.195 -0.2204  0.1282  0.0186
    8MOL   C950 8524   2.309   6.509   4.999  0.2627  0.1540  0.0315
    8MOL   C951 8525   2.309   6.619   4.923  0.3316 -0.3614  0.2561
    8MOL   H952 8526   2.276   6.458   4.622 -3.0477 -2.7098  0.5087
    8MOL   H953 8527   2.273   6.269   4.756  1.6143  0.6578  0.2919
    8MOL   H954 8528   2.344   6.396   5.306  0.2584  1.3109  1.2442
    8MOL   H955 8529   2.203   6.465   5.503 -0.4446 -0.7421  0.7946
    8MOL   H956 8530   1.845   6.650   5.444  0.3157 -1.3004  0.1320
    8MOL   H957 8531   1.863   6.869   5.575 -0.5284  0.9755  1.0603
    8MOL   H958 8532   1.915   7.062   5.660 -1.0885 -1.9713 -1.2171
    8MOL   H959 8533   1.907   7.103   5.822  0.9119  0.9139 -1.4788
    8MOL   H960 8534   1.804   6.969   5.767  0.2614 -1.4133 -1.3218
    8MOL   H961 8535   2.073   6.806   5.985  0.5694  0.0876 -0.2373
    8MOL   H962 8536   1.995   6.958   6.017  2.8646  1.2437 -0.2933
    8MOL   H963 8537   1.906   6.820   5.959 -0.1829  0.8974 -1.5274
    8MOL   H964 8538   2.148   6.926   5.556 -0.2034  0.4498 -0.2018
    8MOL   H965 8539   2.354   7.061   5.505 -0.4262 -0.8536  0.6443
    8MOL   H966 8540   2.393   7.184   5.917  0.8573 -2.3549  0.3137
    8MOL   H967 8541   2.200   7.052   5.977 -0.6844 -0.3881 -0.3842
    8MOL   H968 8542   2.134   6.683   5.840 -2.5372 -1.6647  2.9391
    8MOL   H969 8543   2.093   6.460   5.735  0.9315  0.6677  0.6925
    8MOL   H970 8544   1.851   6.310   5.314 -0.8403  2.7124 -0.4395
    8MOL   H971 8545   1.988   6.234   5.118  0.3480 -2.2438  1.3939
    8MOL   H972 8546   2.319   6.532   5.104 -1.3296 -2.4043  0.7986
    8MOL   H973 8547   2.312   6.718   4.967  2.3229 -0.2844 -0.0207
    8MOL   C974 8548   2.489   7.307   5.580  0.0926 -0.2486 -0.9962
    8MOL   C975 8549   2.393   7.415   5.583  0.0619  0.3935  0.5439
    8MOL   C976 8550   2.421   7.528   5.501  0.2316 -0.7550  0.3986
    8MOL   C977 8551   2.521   7.529   5.407 -0.5900  0.1479 -0.1150
    8MOL   S978 8552   2.547   7.664   5.292  0.2643 -0.2814 -0.1655
    8MOL   O979 8553   2.646   7.612   5.195  0.3067  0.0362  0.5658
    8MOL   O980 8554   2.581   7.792   5.366 -0.3476  0.4236  0.3470
    8MOL   C981 8555   2.379   7.689   5.230 -0.5896 -0.0975 -0.1714
    8MOL   C982 8556   2.298   7.793   5.274  0.0211 -0.3249 -0.3480
    8MOL   C983 8557   2.168   7.806   5.221  0.3087 -0.5916  0.3948
    8MOL   C984 8558   2.118   7.712   5.125 -0.8838  0.0959  0.5721
    8MOL   O985 8559   1.988   7.718   5.078  0.4386  0.2911 -0.1884
    8MOL   C986 8560   1.884   7.758   5.163  0.3650 -0.2893 -0.1632
    8MOL   C987 8561   1.792   7.865   5.125  0.7097  0.0201 -0.4065
    8MOL   C988 8562   1.701   7.923   5.219  0.5201  0.4204 -0.0277
    8MOL   C989 8563   1.705   7.877   5.359 -0.2828 -0.4937  0.1404
    8MOL   C990 8564   1.601   7.940   5.456 -0.3527 -0.1454 -0.7324
    8MOL   C991 8565   1.594   7.867   5.587  0.2681 -0.0216 -0.7518
    8MOL   C992 8566   1.645   8.086   5.484  0.4599  0.4355  0.9622
    8MOL   C993 8567   1.462   7.943   5.393 -0.0943  1.1568  0.0731
    8MOL   C994 8568   1.426   7.831   5.309  0.3615 -0.1652 -0.7646
    8MOL   C995 8569   1.297   7.824   5.253 -0.0686  0.3090 -0.0125
    8MOL   C996 8570   1.200   7.923   5.280 -0.8136 -0.3664 -0.3195
    8MOL   O997 8571   1.074   7.912   5.227  0.0118 -0.4996 -0.3493
    8MOL   C998 8572   1.235   8.038   5.357 -0.4260 -0.4880  0.5012
    8MOL   C999 8573   1.363   8.042   5.420  0.5068  1.1233 -0.4189
    8MOL     C1 8574   1.791   7.774   5.393 -0.3890 -0.1232 -0.0709
    8MOL     C2 8575   1.880   7.713   5.296  0.2886  0.0899  0.7161
    8MOL     C3 8576   2.203   7.604   5.090  0.8907  0.0731  0.8877
    8MOL     C4 8577   2.333   7.594   5.140 -0.1242  0.6111  0.5670
    8MOL     C5 8578   2.615   7.424   5.412 -0.2966  0.0084 -0.7118
    8MOL     C6 8579   2.602   7.316   5.504  0.1655  1.0915 -0.0597
    8MOL     H7 8580   2.309   7.418   5.652  0.1142  0.2975  0.6111
    8MOL     H8 8581   2.362   7.617   5.516  0.3508 -0.6635  0.3330
    8MOL     H9 8582   2.338   7.858   5.350  0.8510  0.0465 -1.0889
    8MOL    H10 8583   2.111   7.896   5.238  0.8360  0.0869 -1.3276
    8MOL    H11 8584   1.778   7.895   5.022 -0.9015 -0.3101 -0.2936
    8MOL    H12 8585   1.626   7.994   5.188  0.6264  0.0463 -1.1709
    8MOL    H13 8586   1.537   7.928   5.657  1.5915  0.8212 -0.3860
    8MOL    H14 8587   1.692   7.869   5.634  0.5342 -0.4810 -1.2806
    8MOL    H15 8588   1.554   7.767   5.574  0.5078 -0.1190 -0.7307
    8MOL    H16 8589   1.639   8.148   5.395 -0.2408  2.1982  2.2068
    8MOL    H17 8590   1.586   8.129   5.565 -2.2555 -0.5088 -0.4765
    8MOL    H18 8591   1.745   8.086   5.527  0.6103 -1.3523  0.6615
    8MOL    H19 8592   1.489   7.743   5.300  0.4229 -0.1134 -0.8455
    8MOL    H20 8593   1.262   7.735   5.203  2.7974 -1.6328  1.3705
    8MOL    H21 8594   1.161   8.108   5.391  0.2601  0.2270  0.5476
    8MOL    H22 8595   1.382   8.121   5.491  1.5246 -0.5709  1.2341
    8MOL    H23 8596   1.799   7.734   5.493 -1.5524  0.3203  0.2128
    8MOL    H24 8597   1.961   7.650   5.329  0.3798  0.1913  0.6851
    8MOL    H25 8598   2.176   7.523   5.023  3.6730 -1.8725  2.0247
    8MOL    H26 8599   2.389   7.508   5.106 -0.0616  0.6930  0.4661
    8MOL    H27 8600   2.705   7.425   5.352  0.4089  0.1734  0.3338
    8MOL    H28 8601   2.679   7.241   5.491 -1.1349 -0.1264 -0.9445
    8MOL    C29 8602   1.044   7.955   5.099  1.0914 -0.4513 -0.7845
    8MOL    C30 8603   0.928   7.910   5.036  0.2892  0.1878 -0.5156
    8MOL    C31 8604   0.903   7.932   4.896  0.6542  0.3957  0.1214
    8MOL    C32 8605   0.977   8.034   4.831 -0.4238  0.7922  0.2499
    8MOL    S33 8606   0.933   8.064   4.660 -0.2310 -0.2244 -0.2184
    8MOL    O34 8607   0.840   8.175   4.655  0.2183  0.6150 -0.1842
    8MOL    O35 8608   0.878   7.937   4.604  0.3201 -0.5590  0.0634
    8MOL    C36 8609   1.074   8.109   4.568 -0.1346  0.4041 -0.3337
    8MOL    C37 8610   1.199   8.043   4.576  0.4111 -0.7250  0.1840
    8MOL    C38 8611   1.307   8.073   4.494 -0.3378 -0.2215 -0.2476
    8MOL    C39 8612   1.296   8.181   4.406 -0.2118 -0.4475  0.2368
    8MOL    O40 8613   1.405   8.209   4.337 -0.0651  0.0740  0.1522
    8MOL    C41 8614   1.388   8.213   4.200  0.2715  0.4420  0.4850
    8MOL    C42 8615   1.362   8.090   4.140  0.3275  0.0355 -0.0714
    8MOL    C43 8616   1.347   8.085   4.002  0.6023 -0.1247 -0.9634
    8MOL    C44 8617   1.379   8.193   3.916  0.3090  0.0786  0.2106
    8MOL    C45 8618   1.393   8.175   3.759 -0.3993 -0.5224  0.0942
    8MOL    C46 8619   1.308   8.051   3.707  0.2917 -0.0710  0.3656
    8MOL    C47 8620   1.341   0.044   3.689 -0.1883  0.7422  0.6191
    8MOL    C48 8621   1.537   8.153   3.716 -0.4881  0.4852  0.7601
    8MOL    C49 8622   1.647   8.165   3.800 -0.4539 -0.1218  0.0002
    8MOL    C50 8623   1.778   8.139   3.753  0.1689 -0.0151  0.2432
    8MOL    C51 8624   1.806   8.105   3.625 -0.0177  0.8043  1.0474
    8MOL    O52 8625   1.936   8.081   3.589  0.1818 -0.3988  0.4319
    8MOL    C53 8626   1.697   8.093   3.533 -0.3389 -0.7166 -0.0168
    8MOL    C54 8627   1.565   8.124   3.575 -0.5805  0.8168 -0.9102
    8MOL    C55 8628   1.402   0.062   3.981 -0.1925 -0.3598 -0.1754
    8MOL    C56 8629   1.404   0.077   4.122  0.1843  0.3958  0.3198
    8MOL    C57 8630   1.175   8.248   4.394 -0.6054 -0.6759  0.1402
    8MOL    C58 8631   1.064   8.221   4.481  0.0029  0.3771  0.7573
    8MOL    C59 8632   1.088   8.098   4.899  0.2708  0.3817  0.3582
    8MOL    C60 8633   1.116   8.059   5.033  0.9916  0.6528  0.5248
    8MOL    H61 8634   0.880   7.829   5.089  0.1463 -1.7894 -3.4796
    8MOL    H62 8635   0.819   7.890   4.842  0.5649  1.1568 -0.3267
    8MOL    H63 8636   1.210   7.958   4.641 -0.3145  1.7393  3.7169
    8MOL    H64 8637   1.398   8.015   4.491  0.4990  1.1207 -1.5892
    8MOL    H65 8638   1.355   8.000   4.198  0.3451  2.6321  4.1250
    8MOL    H66 8639   1.308   7.989   3.969 -2.3475  0.9983 -0.8751
    8MOL    H67 8640   1.200   8.061   3.710  0.1907 -1.0867  0.3912
    8MOL    H68 8641   1.342   7.958   3.753  0.3516 -0.1833  0.0932
    8MOL    H69 8642   1.313   8.033   3.599 -1.6726  0.9630  0.0741
    8MOL    H70 8643   1.238   0.071   3.713 -0.3898  0.1491  0.4321
    8MOL    H71 8644   1.402   0.133   3.701  0.9059  0.0059  0.6359
    8MOL    H72 8645   1.345   0.031   3.581  1.0943  0.1351  0.7295
    8MOL    H73 8646   1.626   8.179   3.905 -2.0566 -0.8459 -0.2063
    8MOL    H74 8647   1.858   8.144   3.826  0.9695  1.8656 -0.7241
    8MOL    H75 8648   1.713   8.049   3.436  3.2917  1.4551 -0.5008
    8MOL    H76 8649   1.494   8.105   3.497 -0.9462 -2.2810  0.1007
    8MOL    H77 8650   1.422   0.151   3.924 -1.9652 -0.3104 -0.7434
    8MOL    H78 8651   1.422   0.167   4.179  0.5424  0.4962  0.0455
    8MOL    H79 8652   1.160   0.087   4.339 -0.1133 -0.7604 -0.1391
    8MOL    H80 8653   0.967   0.013   4.468  0.6200  1.2873 -0.7949
    8MOL    H81 8654   1.152   8.171   4.853 -0.6010  0.9966  0.0955
    8MOL    H82 8655   1.194   8.109   5.090  1.3650 -1.5736  2.0410
    8MOL    H83 8656   1.948   8.047   3.501 -2.2299  0.7253 -0.3940
    9MOL     C1 8657   3.039   7.003   2.096 -0.5163 -0.1747  0.2744
    9MOL     C2 8658   3.156   7.029   2.169 -0.4674  0.4047  0.2992
    9MOL     C3 8659   3.277   6.957   2.128  0.1908 -0.2568  0.2403
    9MOL     C4 8660   3.273   6.868   2.018 -0.6712  0.3400 -0.3914
    9MOL     S5 8661   3.418   6.784   1.966 -0.6292  0.1723 -0.0436
    9MOL     O6 8662   3.388   6.642   1.945  0.0716 -0.0955  0.0007
    9MOL     O7 8663   3.524   6.811   2.070 -0.1999  0.3605  0.7491
    9MOL     C8 8664   3.471   6.850   1.805 -1.0616  0.5127  0.1558
    9MOL     C9 8665   3.575   6.943   1.805  0.6644  0.2172 -0.7752
    9MOL    C10 8666   3.602   7.027   1.696  0.6008 -0.0529 -0.0057
    9MOL    C11 8667   3.516   7.006   1.580  0.2070 -0.2516  0.0646
    9MOL    O12 8668   3.539   7.091   1.476 -0.2157 -0.4686 -0.2126
    9MOL    C13 8669   3.470   7.209   1.465  0.5029  0.4194 -0.4532
    9MOL    C14 8670   3.379   7.229   1.357  0.2270 -0.7738  0.4833
    9MOL    C15 8671   3.313   7.353   1.337 -0.2317 -0.5432 -0.5467
    9MOL    C16 8672   3.336   7.464   1.420  0.9175  0.0966 -0.7046
    9MOL    C17 8673   3.277   7.607   1.400  0.6731 -0.0684  0.1898
    9MOL    C18 8674   3.197   7.613   1.266 -0.9859  0.3308 -0.0103
    9MOL    C19 8675   3.178   7.628   1.518  0.0650 -0.2387  0.3967
    9MOL    C20 8676   3.386   7.720   1.398  0.4096  0.6235 -0.4793
    9MOL    C21 8677   3.525   7.688   1.387 -0.0083 -0.0573  0.5442
    9MOL    C22 8678   3.617   7.789   1.382  0.4746  0.0274 -0.1674
    9MOL    C23 8679   3.583   7.924   1.381  1.3580 -0.4354  0.5009
    9MOL    O24 8680   3.677   8.025   1.357 -0.0232  0.0611 -0.0569
    9MOL    C25 8681   3.450   7.956   1.381  0.7007  0.4351  0.2571
    9MOL    C26 8682   3.350   7.856   1.397  0.4535 -0.2957 -0.4816
    9MOL    C27 8683   3.422   7.438   1.530 -0.7175 -0.4017  0.5969
    9MOL    C28 8684   3.489   7.316   1.555 -0.0974 -0.0353 -0.2935
    9MOL    C29 8685   3.414   6.912   1.578  0.2858 -0.2165  0.2982
    9MOL    C30 8686   3.389   6.832   1.693  0.7704 -0.7532  0.2653
    9MOL    C31 8687   3.144   6.839   1.962 -0.0032  0.2065  0.4163
    9MOL    C32 8688   3.033   6.915   1.992 -0.5179  0.0256 -0.7303
    9MOL    H33 8689   3.154   7.103   2.248 -1.4886 -1.0652  1.6655
    9MOL    H34 8690   3.375   6.969   2.171 -1.3211  0.0672  3.7715
    9MOL    H35 8691   3.629   6.945   1.898  1.9642 -2.3348 -1.4392
    9MOL    H36 8692   3.678   7.103   1.707  0.3621  0.1804  0.0432
    9MOL    H37 8693   3.357   7.148   1.288 -3.2074 -0.0305  0.6154
    9MOL    H38 8694   3.254   7.363   1.247 -0.3012 -0.7970 -0.5308
    9MOL    H39 8695   3.273   7.597   1.190  0.7853  2.9153  1.1495
    9MOL    H40 8696   3.151   7.709   1.248 -2.8525 -0.3139  1.1965
    9MOL    H41 8697   3.128   7.529   1.256 -0.7105  0.1090 -0.0767
    9MOL    H42 8698   3.225   7.608   1.615  1.9647  1.5159 -0.1240
    9MOL    H43 8699   3.124   7.723   1.522  1.2767  0.6577 -2.8543
    9MOL    H44 8700   3.099   7.555   1.501  0.0229  0.0948 -0.8504
    9MOL    H45 8701   3.560   7.586   1.395 -1.0198 -0.4046  0.6475
    9MOL    H46 8702   3.717   7.755   1.359  0.9353  1.6982 -0.7478
    9MOL    H47 8703   3.437   8.063   1.388 -1.8029  0.1348  0.5738
    9MOL    H48 8704   3.249   7.894   1.402 -0.6494 -3.1476  0.1228
    9MOL    H49 8705   3.454   7.515   1.598  1.8552 -2.5535  1.9111
    9MOL    H50 8706   3.562   7.308   1.634  1.0725  0.1249 -1.3622
    9MOL    H51 8707   3.345   6.906   1.495  0.7964 -0.5765 -0.1010
    9MOL    H52 8708   3.307   6.762   1.696 -0.6922  0.8530 -0.7671
    9MOL    H53 8709   3.131   6.775   1.876  0.4957 -1.2996  1.4407
    9MOL    H54 8710   2.940   6.906   1.937 -1.7933 -1.0389  1.5375
    9MOL    H55 8711   2.961   7.075   2.112 -0.5884 -0.2760  0.3841
    9MOL    C56 8712   3.707   8.120   1.447 -0.2453  0.3864  0.2979
    9MOL    C57 8713   3.664   8.245   1.429  0.6435  0.1370 -0.1668
    9MOL    C58 8714   3.708   0.103   1.511  0.4533 -0.1291  0.6806
    9MOL    C59 8715   3.799   0.073   1.615  0.1256  0.1447  0.1935
    9MOL    S60 8716   3.872   0.195   1.719 -0.1185 -0.1836 -0.0810
    9MOL    O61 8717   3.984   0.255   1.646 -0.5165  1.0151  0.0694
    9MOL    O62 8718   3.898   0.142   1.852 -0.0094  0.3696  0.1968
    9MOL    C63 8719   3.741   0.317   1.735 -0.1065 -1.2470  0.7073
    9MOL    C64 8720   3.616   0.276   1.781 -0.8089 -0.1908 -0.2371
    9MOL    C65 8721   3.522   0.374   1.807 -0.0652  0.0961 -0.1020
    9MOL    C66 8722   3.550   0.514   1.792  0.8097  0.6267  0.7334
    9MOL    O67 8723   3.451   0.604   1.813  0.4810  0.5794 -0.5355
    9MOL    C68 8724   3.361   0.584   1.917  0.3102 -0.5591 -0.7980
    9MOL    C69 8725   3.385   0.637   2.046 -0.4650 -0.3232 -0.1883
    9MOL    C70 8726   3.302   0.596   2.152  0.3874  0.2791  0.0394
    9MOL    C71 8727   3.185   0.524   2.133  0.7119  0.4821  0.5730
    9MOL    C72 8728   3.097   0.481   2.252 -0.1040  0.1402 -0.0478
    9MOL    C73 8729   2.993   0.589   2.279 -0.6498 -0.0493 -0.6654
    9MOL    C74 8730   3.015   0.356   2.229  0.4248  0.3213  0.9909
    9MOL    C75 8731   3.186   0.451   2.373 -0.4230  0.0037  0.0319
    9MOL    C76 8732   3.174   0.515   2.500 -0.5126 -0.8245  0.2623
    9MOL    C77 8733   3.252   0.476   2.608  0.2868 -1.1548  0.1939
    9MOL    C78 8734   3.348   0.373   2.588  0.5460 -0.3239 -0.5851
    9MOL    O79 8735   3.420   0.323   2.690  0.1692 -0.3181 -0.2595
    9MOL    C80 8736   3.357   0.302   2.462  0.0587 -0.5258  0.0600
    9MOL    C81 8737   3.280   0.348   2.357  0.0300 -1.1763 -0.1768
    9MOL    C82 8738   3.148   0.487   1.998 -1.0427  0.8461 -0.1930
    9MOL    C83 8739   3.235   0.522   1.891 -0.0239  0.0056 -0.8495
    9MOL    C84 8740   3.675   0.552   1.743 -0.5721 -0.1822  0.4032
    9MOL    C85 8741   3.767   0.453   1.712  0.8214 -0.0867 -0.7112
    9MOL    C86 8742   3.839   8.195   1.641 -0.4275  0.3388 -0.7579
    9MOL    C87 8743   3.792   8.094   1.556 -0.4190 -0.0148  0.0511
    9MOL    H88 8744   3.594   0.015   1.350  0.0276 -1.5245 -0.1248
    9MOL    H89 8745   3.679   0.206   1.499  1.3458  0.0415 -0.0945
    9MOL    H90 8746   3.603   0.170   1.793 -0.7519 -0.2159 -0.3911
    9MOL    H91 8747   3.424   0.346   1.842  0.6685 -1.8646  0.4678
    9MOL    H92 8748   3.465   0.708   2.059  0.2710 -1.3248  0.7880
    9MOL    H93 8749   3.324   0.616   2.256 -0.3362  2.3770 -0.1833
    9MOL    H94 8750   2.936   0.613   2.189  0.9747 -0.6046 -1.8591
    9MOL    H95 8751   3.046   0.674   2.322  0.8289 -0.6844 -1.2005
    9MOL    H96 8752   2.915   0.555   2.347 -0.7801  0.6953 -0.4330
    9MOL    H97 8753   2.967   0.329   2.323  0.5881 -1.1410  0.6607
    9MOL    H98 8754   2.931   0.361   2.159  0.3667 -1.7005  0.8920
    9MOL    H99 8755   3.075   0.268   2.206 -1.3127 -0.2749 -1.5340
    9MOL   H100 8756   3.096   0.590   2.509  0.3001  0.2911 -1.6095
    9MOL   H101 8757   3.251   0.521   2.705 -1.9846 -0.9128  0.0884
    9MOL   H102 8758   3.422   0.217   2.449 -0.4469 -1.0151  0.7163
    9MOL   H103 8759   3.288   0.307   2.258 -1.6648  2.0447 -1.7101
    9MOL   H104 8760   3.053   0.439   1.982 -0.7643  0.9791 -2.4184
    9MOL   H105 8761   3.204   0.506   1.789  1.8178 -1.3721 -1.2289
    9MOL   H106 8762   3.695   0.657   1.728  0.5101 -0.4498 -0.0306
    9MOL   H107 8763   3.866   0.478   1.677  0.3664  2.7719 -0.1028
    9MOL   H108 8764   3.902   8.178   1.728 -1.0497  0.2713 -0.3142
    9MOL   H109 8765   3.819   7.992   1.580 -1.2302 -0.4008 -0.6648
    9MOL   C110 8766   3.544   0.378   2.731 -0.2911  0.0267  1.0171
    9MOL   C111 8767   3.618   0.308   2.824  0.6530 -0.0053 -0.6101
    9MOL   C112 8768   3.738   0.361   2.876 -0.0169 -0.0071  0.6673
    9MOL   C113 8769   3.791   0.477   2.817  0.5055  0.3363  0.2499
    9MOL   S114 8770   3.946   0.540   2.877  0.6157  0.0614 -0.0415
    9MOL   O115 8771   3.978   0.655   2.795  0.5952 -0.0829  0.0141
    9MOL   O116 8772   4.048   0.436   2.893 -0.6725 -0.8555 -0.2971
    9MOL   C117 8773   3.905   0.607   3.040 -0.2592  0.1554  0.8362
    9MOL   C118 8774   3.976   0.567   3.151  0.5430  0.0863 -0.2075
    9MOL   C119 8775   3.932   0.606   3.280 -0.0606  0.2544  0.0300
    9MOL   C120 8776   3.831   0.699   3.292  0.6265  0.0317  0.2581
    9MOL   O121 8777   3.794   0.751   3.410  0.2838 -0.4511 -0.3789
    9MOL   C122 8778   3.892   0.805   3.491 -0.1015  0.5830 -0.4676
    9MOL   C123 8779   3.893   0.777   3.632  0.1745 -0.2535 -0.3055
    9MOL   C124 8780   4.006   0.816   3.709 -0.2208 -0.6268  0.9490
    9MOL   C125 8781   4.121   0.872   3.646 -1.0348 -0.6520  0.0204
    9MOL   C126 8782   4.261   0.881   3.718 -0.9500  0.6862 -0.9913
    9MOL   C127 8783   4.330   0.742   3.694  0.3719  0.1585  0.2103
    9MOL   C128 8784   4.367   0.983   3.668  0.6670 -0.3576  0.6051
    9MOL   C129 8785   4.237   0.908   3.868  0.8504 -0.3352  0.0475
    9MOL   C130 8786   4.251   0.813   3.968  0.0957 -0.1833  0.0558
    9MOL   C131 8787   4.218   0.834   4.100 -0.7324  0.5267  0.0953
    9MOL   C132 8788   4.168   0.955   4.145  0.3991 -0.1855  0.2890
    9MOL   O133 8789   4.144   0.978   4.277  0.1196  0.3568 -1.0513
    9MOL   C134 8790   4.161   1.060   4.050 -0.1582 -0.5826 -0.2479
    9MOL   C135 8791   4.190   1.037   3.915  0.6842 -0.2906  1.0240
    9MOL   C136 8792   4.115   0.909   3.513  0.3126  0.1044 -0.0628
    9MOL   C137 8793   4.000   0.882   3.437 -0.6299  0.1637 -0.2257
    9MOL   C138 8794   3.764   0.748   3.177  0.0799 -0.0762 -0.0616
    9MOL   C139 8795   3.801   0.700   3.054 -0.2577 -0.1849 -0.1996
    9MOL   C140 8796   3.720   0.546   2.718  0.3722 -0.4714  0.6410
    9MOL   C141 8797   3.596   0.492   2.668  0.4128 -0.6831  0.1753
    9MOL   H142 8798   3.586   0.216   2.869  0.8592 -0.3175 -1.0913
    9MOL   H143 8799   3.793   0.321   2.960  1.3046 -0.2793 -0.3115
    9MOL   H144 8800   4.056   0.494   3.146  0.2090 -0.2638 -0.4849
    9MOL   H145 8801   3.976   0.573   3.373 -0.6147 -1.4783 -0.3102
    9MOL   H146 8802   3.814   0.721   3.680  1.9386 -0.1146  2.9532
    9MOL   H147 8803   4.020   0.782   3.811 -0.2385 -3.5257  0.0359
    9MOL   H148 8804   4.278   0.655   3.732  0.6793 -0.7451 -1.3911
    9MOL   H149 8805   4.424   0.742   3.748  0.4662 -0.4602  0.0441
    9MOL   H150 8806   4.359   0.743   3.589 -1.4434 -0.7773 -0.3196
    9MOL   H151 8807   4.331   1.085   3.682 -2.2457 -0.8311 -2.7068
    9MOL   H152 8808   4.452   0.976   3.736  1.6695  0.1342 -0.5851
    9MOL   H153 8809   4.406   0.970   3.567 -1.0372 -1.9669  0.1245
    9MOL   H154 8810   4.280   0.712   3.945 -0.1505 -0.5922  1.4735
    9MOL   H155 8811   4.212   0.748   4.166  0.8738  0.3503  0.0326
    9MOL   H156 8812   4.114   1.152   4.083 -0.6258 -0.1198 -2.1031
    9MOL   H157 8813   4.177   1.117   3.844  0.7189  1.5075  2.9946
    9MOL   H158 8814   4.195   0.956   3.457 -0.4638  0.7205 -0.6572
    9MOL   H159 8815   3.997   0.909   3.332 -0.2076  1.3239  0.0423
    9MOL   H160 8816   3.681   0.817   3.187  0.8267  0.9285 -0.7194
    9MOL   H161 8817   3.747   0.740   2.969  0.5444  1.7334  0.1797
    9MOL   H162 8818   3.774   0.630   2.677  2.0235 -2.7066 -2.0192
    9MOL   H163 8819   3.548   0.551   2.592 -0.2605 -1.8243 -0.3041
    9MOL   C164 8820   4.018   0.936   4.325 -0.3055  0.1042  0.6013
    9MOL   C165 8821   3.900   0.966   4.261 -0.4203  0.1778  0.5796
    9MOL   C166 8822   3.778   0.907   4.299 -0.4636  0.2311 -0.1365
    9MOL   C167 8823   3.773   0.828   4.414 -0.1099 -0.4329  1.1459
    9MOL   S168 8824   3.628   0.743   4.454  0.3307  0.3153  0.3132
    9MOL   O169 8825   3.655   0.640   4.551  0.0189  0.6282  0.8511
    9MOL   O170 8826   3.580   0.700   4.321 -0.4456  0.3808  0.4662
    9MOL   C171 8827   3.506   0.864   4.516 -0.2438  0.5046  0.0513
    9MOL   C172 8828   3.465   0.974   4.436 -0.3894  0.1981 -0.5456
    9MOL   C173 8829   3.380   1.074   4.492 -0.0171 -0.4266  0.0605
    9MOL   C174 8830   3.344   1.066   4.628  0.7265 -0.3819  0.2971
    9MOL   O175 8831   3.277   1.176   4.688  0.0340  0.1734 -0.6988
    9MOL   C176 8832   3.367   1.262   4.757  0.7506  0.2820  0.0590
    9MOL   C177 8833   3.344   1.288   4.889  0.7900 -0.2450 -0.0175
    9MOL   C178 8834   3.425   1.370   4.971  0.1403 -0.1335  0.2743
    9MOL   C179 8835   3.527   1.446   4.909 -0.7553  0.6001 -0.3557
    9MOL   C180 8836   3.617   1.534   5.000 -0.4447  0.2416  0.2015
    9MOL   C181 8837   3.548   1.664   5.037  0.1079 -0.2046  0.1876
    9MOL   C182 8838   3.642   1.464   5.130 -0.3896  0.5127 -0.8118
    9MOL   C183 8839   3.749   1.556   4.939 -0.7466 -0.6156 -0.6579
    9MOL   C184 8840   3.813   1.686   4.933 -0.6346 -0.4741 -0.6183
    9MOL   C185 8841   3.943   1.701   4.877  0.1669 -0.2888 -0.1007
    9MOL   C186 8842   4.016   1.597   4.820 -0.2352 -0.3008  0.4413
    9MOL   O187 8843   4.139   1.627   4.780  0.8846 -0.0697  0.4131
    9MOL   C188 8844   3.955   1.469   4.821  0.4400  0.1062 -0.1972
    9MOL   C189 8845   3.830   1.450   4.885  0.4664  0.8745 -0.0595
    9MOL   C190 8846   3.543   1.443   4.771 -0.3849 -0.4635 -0.0299
    9MOL   C191 8847   3.473   1.339   4.698  0.1135 -0.8371 -0.0323
    9MOL   C192 8848   3.391   0.968   4.711 -0.0336  0.9455 -0.0262
    9MOL   C193 8849   3.457   0.861   4.651 -0.4468  0.3774  0.0317
    9MOL   C194 8850   3.894   0.807   4.492  0.5563 -0.0092  0.0646
    9MOL   C195 8851   4.014   0.859   4.444  0.7132 -0.3652  0.3718
    9MOL   H196 8852   3.906   1.025   4.171 -1.5857  2.1428  1.7522
    9MOL   H197 8853   3.690   0.932   4.241  0.1963  0.3815 -1.0994
    9MOL   H198 8854   3.487   0.982   4.330  0.9543 -1.3239 -0.4086
    9MOL   H199 8855   3.348   1.157   4.431  0.5740 -0.6713 -0.5885
    9MOL   H200 8856   3.258   1.243   4.937  0.1100  0.5206 -0.5140
    9MOL   H201 8857   3.406   1.371   5.078  2.0227  1.4596  0.6259
    9MOL   H202 8858   3.451   1.637   5.079  0.0710 -1.9766 -0.9959
    9MOL   H203 8859   3.526   1.736   4.958  0.1257 -2.2295 -1.7298
    9MOL   H204 8860   3.613   1.714   5.109  1.9931 -1.7623 -0.3715
    9MOL   H205 8861   3.558   1.442   5.197 -0.3949 -0.0640 -1.0001
    9MOL   H206 8862   3.682   1.363   5.117 -1.2973 -0.0661  0.7300
    9MOL   H207 8863   3.710   1.513   5.199  0.2118 -0.3397 -0.7832
    9MOL   H208 8864   3.765   1.778   4.961 -0.6142 -0.4952 -0.5118
    9MOL   H209 8865   3.985   1.801   4.885 -0.5409  0.2526 -2.8268
    9MOL   H210 8866   4.003   1.376   4.793 -1.8332 -0.7542 -1.3244
    9MOL   H211 8867   3.786   1.352   4.875 -0.7475  1.1644  2.1677
    9MOL   H212 8868   3.596   1.521   4.718 -1.8059 -0.1460 -1.0178
    9MOL   H213 8869   3.491   1.332   4.592  0.7178 -1.7419  0.1229
    9MOL   H214 8870   3.368   0.980   4.816 -2.1395  0.7998 -0.4512
    9MOL   H215 8871   3.493   0.771   4.700  0.8319  0.2617 -1.0928
    9MOL   H216 8872   3.890   0.754   4.586  2.0601 -0.1888  0.0339
    9MOL   H217 8873   4.107   0.835   4.492  1.5535 -2.4624 -2.1866
    9MOL   C218 8874   4.192   1.574   4.668 -0.2243 -0.3267 -0.1871
    9MOL   C219 8875   4.284   1.468   4.676  0.8043 -0.3835  0.0180
    9MOL   C220 8876   4.327   1.412   4.555  0.1318 -0.0488  0.1076
    9MOL   C221 8877   4.291   1.469   4.432 -0.0649 -0.3944 -0.9405
    9MOL   S222 8878   4.349   1.409   4.275 -0.3285  0.1224  0.1283
    9MOL   O223 8879   4.455   1.491   4.220 -0.2417  0.3818  0.1852
    9MOL   O224 8880   4.228   1.383   4.199  0.4975 -0.3846 -0.2958
    9MOL   C225 8881   4.434   1.255   4.285 -0.0491 -0.3760 -0.4847
    9MOL   C226 8882   4.554   1.231   4.218  0.7703  0.1026  0.0234
    9MOL   C227 8883   4.615   1.105   4.239  0.7076  0.3257 -0.2655
    9MOL   C228 8884   4.559   1.010   4.320  0.0482  0.0669 -0.3906
    9MOL   O229 8885   4.612   0.883   4.319  0.5674  0.1522 -0.3066
    9MOL   C230 8886   4.724   0.859   4.392 -0.0486 -0.3087 -0.3209
    9MOL   C231 8887   4.781   0.943   4.494 -0.1927 -0.0114 -0.1878
    9MOL   C232 8888   4.899   0.907   4.558  0.0134 -0.3028  0.6312
    9MOL   C233 8889   4.963   0.785   4.543  0.1668 -0.9840 -1.4171
    9MOL   C234 8890   5.085   0.755   4.635 -0.6680 -1.4765 -0.0416
    9MOL   C235 8891   5.148   0.629   4.575 -0.0154 -0.0919  0.5241
    9MOL   C236 8892   5.186   0.873   4.641 -0.3862 -0.3211  0.3061
    9MOL   C237 8893   5.039   0.716   4.779  0.8659 -0.0234 -0.2564
    9MOL   C238 8894   5.144   0.697   4.870  0.2952  0.7102 -0.1457
    9MOL   C239 8895   5.118   0.659   5.002 -0.8936  0.3693 -0.4173
    9MOL   C240 8896   4.985   0.634   5.040  0.2031  0.0936 -0.3621
    9MOL   O241 8897   4.951   0.605   5.171  0.1305 -0.0914  0.1800
    9MOL   C242 8898   4.882   0.639   4.944  0.4886  0.2792 -0.1431
    9MOL   C243 8899   4.909   0.683   4.812  0.4157 -0.3487 -0.1047
    9MOL   C244 8900   4.914   0.706   4.433  0.7701  0.2748  0.6232
    9MOL   C245 8901   4.799   0.745   4.357 -0.0324  0.7795  0.1381
    9MOL   C246 8902   4.435   1.034   4.386 -0.2569  0.1463 -0.3367
    9MOL   C247 8903   4.369   1.160   4.365  0.2846  0.1932 -0.9595
    9MOL   C248 8904   4.194   1.573   4.425 -0.4989  0.2277  0.2655
    9MOL   C249 8905   4.148   1.630   4.544  0.0076 -0.4576 -0.5990
    9MOL   H250 8906   4.316   1.417   4.765 -1.7205 -0.6397  0.8090
    9MOL   H251 8907   4.398   1.331   4.554 -0.4851 -0.5866 -0.2757
    9MOL   H252 8908   4.599   1.304   4.153 -1.2189  1.0963 -0.2920
    9MOL   H253 8909   4.707   1.088   4.183  0.9336 -0.1994  0.2602
    9MOL   H254 8910   4.726   1.031   4.524  0.7928 -0.2704  2.4739
    9MOL   H255 8911   4.935   0.975   4.634 -0.4416 -1.1782  1.6317
    9MOL   H256 8912   5.083   0.542   4.563  0.0675 -0.3448  1.9092
    9MOL   H257 8913   5.242   0.597   4.620  0.5462 -1.8867 -1.7827
    9MOL   H258 8914   5.171   0.655   4.471  1.2824 -1.5495  0.4177
    9MOL   H259 8915   5.277   0.842   4.692  0.4971 -1.1311 -1.7044
    9MOL   H260 8916   5.215   0.898   4.539  0.9723 -1.7194  0.3407
    9MOL   H261 8917   5.140   0.960   4.687 -1.6398  0.2981 -1.9938
    9MOL   H262 8918   5.249   0.707   4.848  1.1073 -0.4869  2.9790
    9MOL   H263 8919   5.208   0.664   5.062 -0.6465  1.5384 -0.8826
    9MOL   H264 8920   4.779   0.612   4.961  0.3013  0.0815 -1.4835
    9MOL   H265 8921   4.830   0.703   4.741  0.8499  0.0488 -0.4732
    9MOL   H266 8922   4.956   0.609   4.410 -1.1967 -1.1442  2.8470
    9MOL   H267 8923   4.773   0.680   4.275  0.9180 -1.1981  1.3629
    9MOL   H268 8924   4.385   0.960   4.447  0.1276  0.0483 -0.1396
    9MOL   H269 8925   4.283   1.179   4.429  2.1045  0.6065  1.4510
    9MOL   H270 8926   4.162   1.599   4.325  1.5685 -2.4706 -1.1583
    9MOL   H271 8927   4.097   1.725   4.532 -0.2797 -0.4587  0.5879
    9MOL   C272 8928   4.853   0.690   5.229 -0.4227  0.8799  0.1922
    9MOL   C273 8929   4.720   0.649   5.217 -0.7107  0.5807 -0.4287
    9MOL   C274 8930   4.624   0.732   5.270  0.3515  0.0055  0.5160
    9MOL   C275 8931   4.648   0.855   5.336  0.1966 -0.3903  0.4266
    9MOL   S276 8932   4.513   0.961   5.386  0.2291 -0.0638 -0.7745
    9MOL   O277 8933   4.534   1.084   5.308 -0.2531  0.4854 -0.3314
    9MOL   O278 8934   4.520   0.969   5.533 -0.1045  0.5878 -0.0583
    9MOL   C279 8935   4.363   0.885   5.332 -0.2446 -0.2756 -0.2497
    9MOL   C280 8936   4.326   0.871   5.197 -0.2908  0.1405 -0.1651
    9MOL   C281 8937   4.220   0.782   5.161 -0.1620 -0.1142 -1.5702
    9MOL   C282 8938   4.152   0.710   5.266 -0.7500  0.2003 -0.2994
    9MOL   O283 8939   4.058   0.610   5.249 -0.2743 -0.2570  0.4501
    9MOL   C284 8940   4.052   0.532   5.138  0.0401  0.1934  0.3516
    9MOL   C285 8941   3.951   0.549   5.045 -0.5082  0.3436 -0.2039
    9MOL   C286 8942   3.946   0.460   4.935 -0.1574 -0.3533 -0.5909
    9MOL   C287 8943   4.038   0.353   4.909 -0.1555 -0.5858  1.2634
    9MOL   C288 8944   4.017   0.257   4.788 -0.0718  0.4629  0.0304
    9MOL   C289 8945   4.141   0.171   4.760  0.5222  0.0619  0.6119
    9MOL   C290 8946   3.918   0.152   4.847  0.1384  0.0409 -0.3767
    9MOL   C291 8947   3.975   0.324   4.656 -0.4663  0.3251  0.5106
    9MOL   C292 8948   4.069   0.384   4.571  0.6141 -0.5133 -0.1619
    9MOL   C293 8949   4.040   0.448   4.450  0.1945  0.5522 -0.2606
    9MOL   C294 8950   3.903   0.454   4.405  0.3158 -0.0026 -0.0949
    9MOL   O295 8951   3.873   0.516   4.284  0.1588  0.5438  0.4443
    9MOL   C296 8952   3.805   0.373   4.472 -0.3425 -0.2113 -0.2466
    9MOL   C297 8953   3.839   0.324   4.607 -0.5908 -1.1292 -0.0693
    9MOL   C298 8954   4.148   0.338   5.000 -0.8291 -0.5756  0.0601
    9MOL   C299 8955   4.146   0.427   5.116 -0.1005  0.3509  0.5274
    9MOL   C300 8956   4.179   0.741   5.403 -0.3162 -0.1875  0.7838
    9MOL   C301 8957   4.281   0.828   5.433 -0.7587 -0.5244 -0.1584
    9MOL   C302 8958   4.780   0.900   5.348  0.0254 -0.5059 -0.3944
    9MOL   C303 8959   4.880   0.815   5.295  0.0069 -0.2345  0.4858
    9MOL   H304 8960   4.694   0.566   5.154 -0.8136 -0.4853  1.0120
    9MOL   H305 8961   4.519   0.704   5.266 -0.2472  2.1197  1.0325
    9MOL   H306 8962   4.385   0.916   5.119  0.4742 -1.2748 -0.4236
    9MOL   H307 8963   4.201   0.759   5.057 -0.6727  1.4591 -1.8449
    9MOL   H308 8964   3.871   0.619   5.065 -0.6011 -0.4336  2.3141
    9MOL   H309 8965   3.861   0.473   4.870  0.9161  1.1711 -1.7359
    9MOL   H310 8966   4.171   0.103   4.840 -1.1248 -1.6612 -0.1941
    9MOL   H311 8967   4.233   0.226   4.738  0.0407  1.2908  1.6227
    9MOL   H312 8968   4.120   0.103   4.678  1.4187  1.3975 -0.7380
    9MOL   H313 8969   3.959   0.097   4.931  2.0493  2.4893  0.3458
    9MOL   H314 8970   3.824   0.196   4.882  0.1254 -1.9149  2.2576
    9MOL   H315 8971   3.878   0.093   4.765  0.6335 -0.7090 -0.0794
    9MOL   H316 8972   4.172   0.377   4.601  1.2266  1.9595 -1.5582
    9MOL   H317 8973   4.112   0.496   4.386 -2.5597  0.4863 -3.5362
    9MOL   H318 8974   3.704   0.366   4.433 -0.8008  3.3620  0.1121
    9MOL   H319 8975   3.765   0.275   4.669 -1.2779  0.4693  0.3857
    9MOL   H320 8976   4.220   0.259   4.986  0.3518  0.4568  0.1816
    9MOL   H321 8977   4.220   0.417   5.194 -1.9133 -2.3553  2.0121
    9MOL   H322 8978   4.122   0.695   5.482 -1.6554 -0.7843 -0.5126
    9MOL   H323 8979   4.302   0.840   5.539  1.7874 -0.0592 -0.6977
    9MOL   H324 8980   4.811   0.989   5.401  0.9572 -1.3087  0.4291
    9MOL   H325 8981   4.985   0.842   5.304  0.4204 -0.7984 -2.0622
    9MOL   C326 8982   3.904   0.457   4.168  0.1372 -0.6761  0.2590
    9MOL   C327 8983   3.978   0.533   4.082  0.0642  0.0759 -0.5319
    9MOL   C328 8984   3.990   0.492   3.946 -0.0063  0.2874  0.4976
    9MOL   C329 8985   3.943   0.363   3.902 -0.0522 -0.0810  0.3491
    9MOL   S330 8986   3.980   0.310   3.735 -0.2270  0.2321  0.2524
    9MOL   O331 8987   4.035   0.175   3.743 -0.0983  0.4999  0.1166
    9MOL   O332 8988   4.055   0.419   3.669 -0.1092  0.4497 -0.6719
    9MOL   C333 8989   3.825   0.296   3.659 -0.4747  0.3126 -0.2169
    9MOL   C334 8990   3.753   0.177   3.681 -0.6005  0.0237  0.8807
    9MOL   C335 8991   3.630   0.158   3.615 -0.0365  0.7302 -0.0903
    9MOL   C336 8992   3.583   0.257   3.532  0.3715  0.2411  0.5955
    9MOL   O337 8993   3.458   0.246   3.472  0.4337 -0.0075 -0.8051
    9MOL   C338 8994   3.400   0.126   3.443 -0.0170  0.0754 -0.6003
    9MOL   C339 8995   3.327   0.057   3.543 -0.4948  0.3752 -0.2678
    9MOL   C340 8996   3.261   8.186   3.515 -1.0105  0.2493 -0.3756
    9MOL   C341 8997   3.285   8.118   3.397  0.1240  0.3932  0.4139
    9MOL   C342 8998   3.218   7.981   3.370  0.2003 -0.0365 -0.2539
    9MOL   C343 8999   3.159   7.921   3.505 -0.0484 -0.3701 -0.5668
    9MOL   C344 9000   3.096   7.999   3.269  0.5377  0.1902  0.2977
    9MOL   C345 9001   3.326   7.897   3.304  0.1171 -0.0670  0.4823
    9MOL   C346 9002   3.437   7.863   3.381 -0.4140 -0.1302  0.1141
    9MOL   C347 9003   3.543   7.786   3.328  0.0120 -0.0133 -0.3486
    9MOL   C348 9004   3.545   7.748   3.192 -0.7779 -0.1002 -0.5375
    9MOL   O349 9005   3.652   7.684   3.136  0.5263 -0.2984  0.2776
    9MOL   C350 9006   3.434   7.780   3.115  0.8625  0.5253  0.7546
    9MOL   C351 9007   3.315   7.846   3.170 -0.0548 -0.1616 -0.0682
    9MOL   C352 9008   3.370   8.182   3.301 -0.2137  0.1223 -0.4272
    9MOL   C353 9009   3.415   0.064   3.319 -0.7360  0.7394 -0.0661
    9MOL   C354 9010   3.651   0.377   3.513  0.6771  0.3829  0.2972
    9MOL   C355 9011   3.772   0.400   3.578 -0.1888  0.1299 -0.2033
    9MOL   C356 9012   3.880   0.274   3.993  0.1264  0.1185 -0.5725
    9MOL   C357 9013   3.853   0.329   4.125  0.0789  0.0996 -0.1263
    9MOL   H358 9014   4.000   0.631   4.121 -0.8295  0.5651 -1.2411
    9MOL   H359 9015   4.040   0.560   3.878  2.2805  0.3766  2.2193
    9MOL   H360 9016   3.794   0.096   3.739 -0.2837 -1.9584 -2.0004
    9MOL   H361 9017   3.573   0.066   3.626  1.2326 -0.1672 -0.8843
    9MOL   H362 9018   3.322   0.104   3.640 -0.0459  2.5148 -1.2389
    9MOL   H363 9019   3.197   8.143   3.591  0.8486 -0.5897  0.7548
    9MOL   H364 9020   3.117   7.826   3.475 -1.6343 -0.1967  1.0310
    9MOL   H365 9021   3.071   7.976   3.539 -0.9886 -0.9656 -2.0311
    9MOL   H366 9022   3.243   7.908   3.574  0.7661 -1.4922 -1.7454
    9MOL   H367 9023   3.127   8.046   3.176 -1.0251  1.2452  0.2881
    9MOL   H368 9024   3.041   7.908   3.247  0.1056 -0.3180  3.2441
    9MOL   H369 9025   3.009   8.057   3.302  1.6331  2.5398 -0.7803
    9MOL   H370 9026   3.439   7.886   3.487 -1.0982 -0.9416  0.3031
    9MOL   H371 9027   3.629   7.748   3.381 -1.8095 -0.6717  2.2393
    9MOL   H372 9028   3.438   7.757   3.010 -1.8931  0.3646  0.6483
    9MOL   H373 9029   3.232   7.867   3.104  1.7501  1.6476 -1.8275
    9MOL   H374 9030   3.384   8.131   3.207 -1.7148  0.5241 -0.8763
    9MOL   H375 9031   3.468   0.111   3.237 -2.6582  2.4564 -0.3550
    9MOL   H376 9032   3.598   0.451   3.455  0.0138  0.7153  1.2945
    9MOL   H377 9033   3.827   0.492   3.565 -1.0708  0.4078 -1.9982
    9MOL   H378 9034   3.860   0.172   3.964  0.2450 -0.6162  1.7811
    9MOL   H379 9035   3.791   0.280   4.199 -0.3173  2.0480  0.8622
    9MOL   C380 9036   3.745   7.753   3.061 -0.2443 -0.0502  0.0511
    9MOL   C381 9037   3.813   7.875   3.106 -0.0385  0.2678 -0.0738
    9MOL   C382 9038   3.919   7.927   3.033  0.6034 -0.1725  0.0485
    9MOL   C383 9039   3.963   7.859   2.923 -0.4135 -0.8486  0.3305
    9MOL   S384 9040   4.117   7.917   2.844 -0.3785  0.0369  0.5746
    9MOL   O385 9041   4.138   7.849   2.715 -0.0423  0.5942  0.0769
    9MOL   O386 9042   4.222   7.932   2.940 -0.3278  0.4038 -0.4873
    9MOL   C387 9043   4.093   8.083   2.790 -0.1731 -0.4168 -0.1023
    9MOL   C388 9044   3.979   8.165   2.807  0.1204  0.8001  0.3746
    9MOL   C389 9045   3.968   0.047   2.772  0.6360 -0.5815 -0.2835
    9MOL   C390 9046   4.081   0.102   2.708  0.4300  0.6179  0.2149
    9MOL   O391 9047   4.072   0.233   2.667  0.6718 -0.5497 -0.2831
    9MOL   C392 9048   3.997   0.270   2.558  0.6404  0.0044  0.1815
    9MOL   C393 9049   3.982   0.406   2.533  0.1143 -0.1480 -0.3576
    9MOL   C394 9050   3.915   0.457   2.419  0.5264  0.5705  0.0497
    9MOL   C395 9051   3.852   0.368   2.329  0.0254  0.5707  0.2398
    9MOL   C396 9052   3.785   0.419   2.207  0.0845 -0.4642  0.1041
    9MOL   C397 9053   3.883   0.402   2.084  0.1258 -0.0995  0.2102
    9MOL   C398 9054   3.657   0.337   2.174 -0.2646  0.3559 -0.3693
    9MOL   C399 9055   3.734   0.562   2.233 -0.2224  0.1046  0.8690
    9MOL   C400 9056   3.650   0.590   2.342 -0.2503 -0.0471 -0.5897
    9MOL   C401 9057   3.625   0.722   2.383  0.3480  0.0207 -0.0043
    9MOL   C402 9058   3.673   0.832   2.315  0.0432  0.7127  0.5288
    9MOL   O403 9059   3.637   0.958   2.352 -0.2775  0.4529 -0.2982
    9MOL   C404 9060   3.765   0.804   2.209  0.6954 -0.5081 -0.5530
    9MOL   C405 9061   3.793   0.673   2.171  0.3506  0.0524 -0.0442
    9MOL   C406 9062   3.863   0.230   2.358  0.0130  0.5028  0.8472
    9MOL   C407 9063   3.929   0.176   2.472  0.0110 -0.2094  0.1258
    9MOL   C408 9064   4.195   0.028   2.687  0.8132  0.1033  0.3935
    9MOL   C409 9065   4.197   8.142   2.714 -0.1969 -0.3358 -0.5722
    9MOL   C410 9066   3.898   7.740   2.873  0.4138 -0.0604 -0.0390
    9MOL   C411 9067   3.788   7.686   2.944  0.0439 -0.9143 -0.1330
    9MOL   H412 9068   3.796   7.911   3.206  0.2145  0.5846 -0.1449
    9MOL   H413 9069   3.973   8.014   3.069 -0.6297 -0.3601  2.4110
    9MOL   H414 9070   3.905   8.119   2.871 -1.0491  1.7863 -0.2415
    9MOL   H415 9071   3.877   0.102   2.792  0.1983 -0.7441 -1.7247
    9MOL   H416 9072   4.036   0.474   2.598  1.4428  0.2109 -1.8222
    9MOL   H417 9073   3.932   0.561   2.395 -1.9313  0.7134 -1.2977
    9MOL   H418 9074   3.901   0.295   2.072 -0.6426  0.0126 -2.1007
    9MOL   H419 9075   3.978   0.455   2.096 -0.3048  0.7850 -0.2944
    9MOL   H420 9076   3.852   0.447   1.990  1.3322 -0.5531 -0.4110
    9MOL   H421 9077   3.595   0.391   2.102 -0.4949 -0.9361 -1.1640
    9MOL   H422 9078   3.683   0.239   2.133  0.8460  0.4256  0.1569
    9MOL   H423 9079   3.579   0.328   2.249 -1.1666  0.1299 -1.3193
    9MOL   H424 9080   3.602   0.505   2.388 -2.7802  2.3567  1.3884
    9MOL   H425 9081   3.553   0.749   2.459 -0.8825  0.9665 -1.4726
    9MOL   H426 9082   3.820   0.882   2.160 -1.2934  2.3508  1.6222
    9MOL   H427 9083   3.864   0.657   2.092  0.0659  1.3413 -0.5718
    9MOL   H428 9084   3.825   0.161   2.284  2.9557 -1.2135  0.8620
    9MOL   H429 9085   3.939   0.068   2.478  0.8236 -0.2558 -1.6108
    9MOL   H430 9086   4.277   0.074   2.635  0.9932  2.0006  2.2909
    9MOL   H431 9087   4.293   8.097   2.693  0.0112 -0.2140  0.0944
    9MOL   H432 9088   3.945   7.695   2.787 -0.3815 -2.1365  0.5873
    9MOL   H433 9089   3.752   7.590   2.912 -2.0313 -0.2249  0.0443
    9MOL   C434 9090   3.542   1.012   2.266  0.6198  0.4342 -0.3226
    9MOL   C435 9091   3.557   1.143   2.212  1.1356  0.5118 -0.6599
    9MOL   C436 9092   3.462   1.200   2.134 -0.2949 -0.7752  0.1300
    9MOL   C437 9093   3.340   1.128   2.096  0.1601 -0.0116  0.2044
    9MOL   S438 9094   3.222   1.179   1.960  0.0938 -0.0425  0.4946
    9MOL   O439 9095   3.238   1.328   1.931 -0.4298 -0.7281 -0.2643
    9MOL   O440 9096   3.084   1.137   1.999  0.7620 -0.2220 -0.2097
    9MOL   C441 9097   3.287   1.083   1.816  0.6803  0.0093  0.4133
    9MOL   C442 9098   3.214   1.084   1.693 -0.5652 -0.6112  0.5363
    9MOL   C443 9099   3.269   1.028   1.577  0.7906  0.8875  0.1405
    9MOL   C444 9100   3.384   0.947   1.582 -0.5336 -0.0766 -0.3334
    9MOL   O445 9101   3.433   0.880   1.470 -0.2392 -0.2599  0.2995
    9MOL   C446 9102   3.395   0.746   1.459 -0.6441  0.1342 -0.5077
    9MOL   C447 9103   3.459   0.671   1.355 -0.0715  0.0611 -0.4132
    9MOL   C448 9104   3.421   0.534   1.334 -0.2597  0.3434  0.1295
    9MOL   C449 9105   3.318   0.474   1.414  0.2676 -0.4856  0.9278
    9MOL   C450 9106   3.269   0.329   1.387  0.6502  0.2013  0.8444
    9MOL   C451 9107   3.326   0.245   1.503 -0.6754 -0.1328  0.2799
    9MOL   C452 9108   3.106   0.323   1.396 -0.1596  0.3623  0.4278
    9MOL   C453 9109   3.322   0.260   1.262  0.2494 -0.1511  0.1486
    9MOL   C454 9110   3.450   0.204   1.249  0.1786  0.2862 -0.3431
    9MOL   C455 9111   3.491   0.149   1.125 -0.2833 -0.4981 -0.7705
    9MOL   C456 9112   3.405   0.147   1.014  0.0157  0.3011  0.3241
    9MOL   O457 9113   3.447   0.079   0.899  0.7549 -0.3393  0.5123
    9MOL   C458 9114   3.276   0.192   1.028  0.1667  0.2644 -0.2676
    9MOL   C459 9115   3.239   0.267   1.146  0.5337 -0.0250 -0.1319
    9MOL   C460 9116   3.256   0.555   1.519  0.7119 -0.0626 -0.1659
    9MOL   C461 9117   3.299   0.685   1.551 -0.5462 -0.0620  0.2560
    9MOL   C462 9118   3.450   0.939   1.709  0.1002 -0.5383 -0.6046
    9MOL   C463 9119   3.403   1.010   1.820 -1.2862  0.8457 -0.9232
    9MOL   C464 9120   3.319   0.996   2.151  0.3445 -0.8011  0.7556
    9MOL   C465 9121   3.418   0.948   2.240  1.2402  0.5300  0.0481
    9MOL   H466 9122   3.651   1.191   2.231  0.3006  3.3117 -3.2124
    9MOL   H467 9123   3.477   1.299   2.093 -2.3707  0.1378  1.4655
    9MOL   H468 9124   3.127   1.144   1.674 -1.5632 -1.6791  1.6461
    9MOL   H469 9125   3.206   1.037   1.490  0.0299 -2.0445  0.3350
    9MOL   H470 9126   3.532   0.716   1.288 -0.1845  1.1074  0.1607
    9MOL   H471 9127   3.460   0.487   1.244 -0.9189 -1.3268  0.6896
    9MOL   H472 9128   3.298   0.140   1.502  0.5160 -0.4573 -1.1103
    9MOL   H473 9129   3.280   0.286   1.593 -0.7210 -1.4486  0.8712
    9MOL   H474 9130   3.434   0.245   1.518 -0.7848 -4.7137  1.8798
    9MOL   H475 9131   3.070   0.222   1.379 -0.2743  0.3343  0.8330
    9MOL   H476 9132   3.064   0.355   1.492 -0.8522 -0.3935  0.3855
    9MOL   H477 9133   3.065   0.391   1.321  2.7649 -0.1611 -1.7284
    9MOL   H478 9134   3.520   0.194   1.330 -1.4690  0.6252  1.1653
    9MOL   H479 9135   3.593   0.116   1.118 -0.0961 -0.6728  2.0645
    9MOL   H480 9136   3.215   0.194   0.939  1.7768 -3.2261 -1.5414
    9MOL   H481 9137   3.139   0.306   1.134 -0.1384 -2.1523 -1.8372
    9MOL   H482 9138   3.170   0.516   1.572  0.6304 -0.6420 -0.7124
    9MOL   H483 9139   3.251   0.738   1.632  0.6681  0.1729  0.8428
    9MOL   H484 9140   3.549   0.896   1.712  0.0283 -0.6539  0.2858
    9MOL   H485 9141   3.467   0.993   1.904 -2.4088  0.1709 -0.1979
    9MOL   H486 9142   3.228   0.941   2.131  0.7942 -2.6400  3.4410
    9MOL   H487 9143   3.404   0.849   2.280 -2.5668  1.0614  0.2541
    9MOL   C488 9144   3.384   0.092   0.783 -0.5962  0.5560 -0.2289
    9MOL   C489 9145   3.279   0.004   0.747 -0.0384  0.1094 -0.2023
    9MOL   C490 9146   3.198   0.026   0.637 -0.3371  0.1430 -0.3301
    9MOL   C491 9147   3.236   0.134   0.557  0.7886 -0.0538 -0.3116
    9MOL   S492 9148   3.149   0.159   0.399 -0.1223  0.0495 -0.0313
    9MOL   O493 9149   3.140   0.304   0.368  0.2939 -0.1909 -0.2973
    9MOL   O494 9150   3.022   0.089   0.408 -0.1761  0.0504 -0.4007
    9MOL   C495 9151   3.269   0.078   0.290  0.8718 -0.3006 -0.4394
    9MOL   C496 9152   3.373   0.154   0.227  0.0272  0.7371 -0.9518
    9MOL   C497 9153   3.466   0.088   0.149 -0.3187 -0.2196  0.6130
    9MOL   C498 9154   3.462   8.197   0.129  0.4796  0.2118  1.0022
    9MOL   O499 9155   3.566   8.132   0.059  0.3122 -0.3966 -0.4367
    9MOL   C500 9156   3.666   8.080   0.134  0.8037  0.8284 -0.3025
    9MOL   C501 9157   3.686   7.938   0.148  0.0525  0.1144 -0.1412
    9MOL   C502 9158   3.794   7.884   0.219  0.5706 -0.5200 -0.0294
    9MOL   C503 9159   3.879   7.979   0.286 -0.6862  0.8869  0.3741
    9MOL   C504 9160   4.005   7.929   0.361  0.2879  0.4226  0.4248
    9MOL   C505 9161   4.030   7.774   0.333 -0.2938  0.4718 -0.0279
    9MOL   C506 9162   4.128   7.997   0.301 -0.9952  0.1039 -0.7428
    9MOL   C507 9163   3.991   7.944   0.515  0.5154 -0.2480  0.5474
    9MOL   C508 9164   4.104   7.925   0.602  0.0952  0.5434 -1.3408
    9MOL   C509 9165   4.096   7.948   0.741 -0.0329 -0.5055 -0.2458
    9MOL   C510 9166   3.976   7.985   0.803 -0.1057 -0.1912  0.0025
    9MOL   O511 9167   3.967   8.007   0.932  0.6256  0.0944 -1.0006
    9MOL   C512 9168   3.860   7.996   0.721  0.2858  0.4346  0.4493
    9MOL   C513 9169   3.868   7.975   0.585 -0.5175  0.1832  0.3074
    9MOL   C514 9170   3.853   8.115   0.279 -0.4132  0.1286  0.6276
    9MOL   C515 9171   3.749   8.168   0.203 -0.8747 -0.0106 -0.1412
    9MOL   C516 9172   3.355   8.123   0.186  0.2358 -0.2446 -0.3929
    9MOL   C517 9173   3.265   8.192   0.267 -0.0848  0.1252  0.1512
    9MOL   C518 9174   3.355   0.216   0.577  0.2845 -0.5316  0.7833
    9MOL   C519 9175   3.420   0.196   0.694  0.2975  0.3757  0.4636
    9MOL   H520 9176   3.262   8.163   0.798  0.4141 -0.2359 -0.6722
    9MOL   H521 9177   3.128   8.204   0.605 -1.0572  1.4777 -2.0005
    9MOL   H522 9178   3.364   0.261   0.236 -1.2893  0.4460  1.3348
    9MOL   H523 9179   3.545   0.136   0.093 -1.5073  0.6303 -0.3689
    9MOL   H524 9180   3.631   7.864   0.092 -1.2389  0.1814  0.9832
    9MOL   H525 9181   3.806   7.777   0.213 -0.4592 -0.6375  0.0096
    9MOL   H526 9182   3.941   7.715   0.353 -0.0889 -0.0269 -0.5806
    9MOL   H527 9183   4.113   7.730   0.389 -0.2370 -1.5153 -1.6445
    9MOL   H528 9184   4.068   7.763   0.232 -1.0928 -1.3700 -0.1496
    9MOL   H529 9185   4.217   7.958   0.351 -0.6941  0.1657 -1.2286
    9MOL   H530 9186   4.146   7.979   0.195 -1.4261 -0.7503 -0.6746
    9MOL   H531 9187   4.128   8.105   0.315  2.4916 -0.1098  1.3489
    9MOL   H532 9188   4.201   7.899   0.564  0.2182 -2.8724  1.0726
    9MOL   H533 9189   4.192   7.935   0.787 -0.8627 -0.4267  1.5310
    9MOL   H534 9190   3.767   8.019   0.772 -1.1184 -2.3146 -0.8045
    9MOL   H535 9191   3.782   7.975   0.519  0.5753 -0.9031 -1.1772
    9MOL   H536 9192   3.923   8.188   0.316  1.1108  0.6104 -3.0242
    9MOL   H537 9193   3.738   0.022   0.201 -0.1988  0.0696  0.2259
    9MOL   H538 9194   3.355   8.016   0.172  0.9859 -0.2127 -0.7007
    9MOL   H539 9195   3.183   8.138   0.311 -1.2321  1.2508 -0.5754
    9MOL   H540 9196   3.386   0.298   0.513 -0.7426 -0.1452  0.7685
    9MOL   H541 9197   3.504   0.256   0.724  1.4123 -0.6664 -0.4924
    9MOL   C542 9198   3.976   7.895   1.018 -0.9394 -0.1511  0.5253
    9MOL   C543 9199   4.008   7.769   0.965 -0.2537  0.3034 -0.3582
    9MOL   C544 9200   4.017   7.657   1.057 -0.0135 -0.0279  0.1295
    9MOL   C545 9201   3.986   7.681   1.199 -0.5231  0.5442 -0.1625
    9MOL   S546 9202   3.976   7.542   1.317 -0.3081 -0.5217 -0.3137
    9MOL   O547 9203   4.043   7.419   1.270 -0.0195  0.4239  0.0150
    9MOL   O548 9204   3.832   7.526   1.355 -0.3714 -0.3893 -0.1711
    9MOL   C549 9205   4.071   7.597   1.459 -0.6514 -0.0573 -0.0456
    9MOL   C550 9206   4.203   7.554   1.472 -0.2558 -0.6637  0.3663
    9MOL   C551 9207   4.281   7.593   1.590  0.0777 -0.0025 -0.5402
    9MOL   C552 9208   4.229   7.682   1.684  0.0087 -0.1775 -0.4913
    9MOL   O553 9209   4.295   7.719   1.799 -0.1348  0.6552  0.0638
    9MOL   C554 9210   4.428   7.752   1.782 -0.2281  0.0946  0.0141
    9MOL   C555 9211   4.468   7.879   1.739  0.0932 -0.2103 -0.5543
    9MOL   C556 9212   4.606   7.909   1.737  0.5153  0.5746  0.0184
    9MOL   C557 9213   4.702   7.812   1.770 -0.0405 -0.1875 -0.4257
    9MOL   C558 9214   4.857   7.853   1.768 -0.1138  0.4134 -1.1634
    9MOL   C559 9215   4.899   7.869   1.917 -0.0196 -0.2408 -0.0681
    9MOL   C560 9216   4.938   7.738   1.710 -0.2183 -0.3882  0.2234
    9MOL   C561 9217   4.881   7.986   1.693  0.6120  0.1298  0.1794
    9MOL   C562 9218   4.932   8.101   1.751 -0.0493  0.5462  0.0026
    9MOL   C563 9219   4.958   8.213   1.670 -0.7742 -0.4361 -0.7714
    9MOL   C564 9220   4.912   8.223   1.535 -0.0831 -0.8978 -0.6130
    9MOL   O565 9221   4.922   0.089   1.470  0.0498  0.0093 -0.7347
    9MOL   C566 9222   4.861   8.108   1.481 -0.4548 -0.2623 -0.1700
    9MOL   C567 9223   4.852   7.987   1.550 -0.1948  1.0230 -0.2078
    9MOL   C568 9224   4.664   7.682   1.812 -0.4615  0.0468  0.8225
    9MOL   C569 9225   4.528   7.651   1.816  0.4439  0.4158  0.0658
    9MOL   C570 9226   4.097   7.732   1.660 -0.6610 -0.1947  0.0628
    9MOL   C571 9227   4.013   7.684   1.555  0.7087  0.5895  0.1092
    9MOL   C572 9228   3.963   7.813   1.244 -0.3626  0.0201  0.1803
    9MOL   C573 9229   3.953   7.920   1.153  0.1914 -0.8285 -0.1615
    9MOL   H574 9230   4.025   7.743   0.862 -0.6843 -1.5691  0.0262
    9MOL   H575 9231   4.053   7.560   1.027 -0.0833  0.4599 -1.5521
    9MOL   H576 9232   4.253   7.492   1.399  0.5528  1.4855 -0.9472
    9MOL   H577 9233   4.379   7.548   1.591 -0.6594 -1.6262 -0.3210
    9MOL   H578 9234   4.394   7.957   1.727  2.0132  1.6730 -0.6483
    9MOL   H579 9235   4.633   8.012   1.726 -0.3554  0.9039  0.8651
    9MOL   H580 9236   4.841   7.949   1.963 -0.2090 -0.2853 -0.2283
    9MOL   H581 9237   5.007   7.874   1.932 -0.0391  1.6851 -0.4951
    9MOL   H582 9238   4.872   7.779   1.972 -2.6328  0.1658 -0.6033
    9MOL   H583 9239   5.038   7.774   1.736 -0.2152  0.4413 -0.8785
    9MOL   H584 9240   4.931   7.644   1.765  0.1469 -0.8385 -0.4973
    9MOL   H585 9241   4.933   7.724   1.602 -1.9884 -0.6422  0.3262
    9MOL   H586 9242   4.945   8.104   1.858  1.7965  0.2737 -0.2045
    9MOL   H587 9243   4.998   0.045   1.722  0.1221 -2.5000  2.0834
    9MOL   H588 9244   4.823   8.109   1.379 -1.4013  1.1262  0.1739
    9MOL   H589 9245   4.809   7.897   1.508 -1.5667  2.2127 -1.3810
    9MOL   H590 9246   4.730   7.597   1.819  0.9475  1.1091  0.6068
    9MOL   H591 9247   4.493   7.551   1.837 -0.3733  0.6761 -0.0294
    9MOL   H592 9248   4.040   7.803   1.718 -1.2035 -0.3323 -0.2916
    9MOL   H593 9249   3.913   7.725   1.549  0.8351  0.7763 -0.8401
    9MOL   H594 9250   3.920   7.837   1.340 -1.8393 -3.0436  0.3423
    9MOL   H595 9251   3.922   8.015   1.196 -2.4459 -1.6994 -0.0052
    9MOL   C596 9252   4.807   0.162   1.457  0.8020 -0.0103  0.5595
    9MOL   C597 9253   4.740   0.149   1.333 -0.8757  0.1779  0.2570
    9MOL   C598 9254   4.627   0.227   1.307  0.6616  0.6610  0.8990
    9MOL   C599 9255   4.573   0.310   1.407  0.6041 -0.5678  0.2681
    9MOL   S600 9256   4.417   0.394   1.377 -0.7191 -0.2424 -0.1698
    9MOL   O601 9257   4.339   0.410   1.501 -0.0245  0.1474 -0.4173
    9MOL   O602 9258   4.358   0.341   1.249  0.2442 -0.0377 -0.6587
    9MOL   C603 9259   4.484   0.562   1.340  0.0884  0.4153  0.4441
    9MOL   C604 9260   4.541   0.589   1.219 -0.6593 -0.2923  0.0607
    9MOL   C605 9261   4.602   0.715   1.201 -0.7218  0.3364  0.1434
    9MOL   C606 9262   4.616   0.806   1.305  1.0716  0.0351  0.0306
    9MOL   O607 9263   4.683   0.929   1.289 -0.5954  0.0760  0.0680
    9MOL   C608 9264   4.639   1.005   1.186  0.1837  0.0287  0.2238
    9MOL   C609 9265   4.708   1.015   1.065 -0.2869 -0.1271 -0.2002
    9MOL   C610 9266   4.650   1.087   0.958 -0.7216 -0.3826 -0.0080
    9MOL   C611 9267   4.517   1.143   0.974 -0.7318 -0.2317 -0.8669
    9MOL   C612 9268   4.445   1.208   0.861 -0.7958 -0.3203  0.5171
    9MOL   C613 9269   4.539   1.264   0.749 -1.2689  0.0135  0.5308
    9MOL   C614 9270   4.356   1.100   0.798 -0.0665 -0.3366 -0.1026
    9MOL   C615 9271   4.360   1.328   0.918 -0.0981 -0.1690 -0.4303
    9MOL   C616 9272   4.227   1.347   0.889 -0.4699 -0.5593  1.4923
    9MOL   C617 9273   4.158   1.464   0.916  0.0782  0.5099 -0.5138
    9MOL   C618 9274   4.227   1.567   0.981  0.2093 -0.5912 -0.9964
    9MOL   O619 9275   4.157   1.678   1.023 -0.5338 -0.4037  0.0125
    9MOL   C620 9276   4.359   1.548   1.023  0.7616 -0.2492  0.5932
    9MOL   C621 9277   4.429   1.432   0.984  0.5276  0.2142  0.2180
    9MOL   C622 9278   4.452   1.133   1.098  0.5017  0.5252  0.0424
    9MOL   C623 9279   4.514   1.069   1.207 -0.2303 -0.9528  0.0829
    9MOL   C624 9280   4.569   0.770   1.428 -0.0346  0.4595  0.2419
    9MOL   C625 9281   4.496   0.649   1.445  0.6768 -0.0091  0.0156
    9MOL   C626 9282   4.633   0.315   1.533 -0.2788 -0.7881  0.7337
    9MOL   C627 9283   4.746   0.236   1.557  0.5168  0.3208 -0.1585
    9MOL   H628 9284   4.777   0.083   1.256 -1.9497 -0.0604 -0.0655
    9MOL   H629 9285   4.578   0.221   1.212 -0.1212 -0.0548  1.3383
    9MOL   H630 9286   4.534   0.523   1.134  1.9164  1.8058 -1.8872
    9MOL   H631 9287   4.633   0.725   1.098  0.9072 -0.6524  0.5311
    9MOL   H632 9288   4.798   0.957   1.053  0.9725  1.2316  2.3847
    9MOL   H633 9289   4.698   1.086   0.861  0.0169  2.3514  0.2883
    9MOL   H634 9290   4.601   1.188   0.700 -2.3710 -0.3485 -0.3192
    9MOL   H635 9291   4.606   1.345   0.778 -1.3650 -0.1605  1.2288
    9MOL   H636 9292   4.478   1.309   0.670  0.4986 -1.5709 -1.8253
    9MOL   H637 9293   4.411   1.009   0.775 -2.0253 -1.3177 -1.0912
    9MOL   H638 9294   4.278   1.061   0.864 -1.2131  1.4213 -0.3587
    9MOL   H639 9295   4.311   1.124   0.702 -0.9009 -0.3154  0.2862
    9MOL   H640 9296   4.172   1.272   0.835  0.3193  1.4959 -2.3857
    9MOL   H641 9297   4.052   1.470   0.892  0.3141  1.1015 -1.4194
    9MOL   H642 9298   4.416   1.628   1.068  1.7744  0.1127 -1.2478
    9MOL   H643 9299   4.535   1.422   1.006  0.6576  1.6054  0.2516
    9MOL   H644 9300   4.356   1.180   1.116  0.1357 -0.1655 -0.0538
    9MOL   H645 9301   4.466   1.074   1.303 -0.2374  2.5913 -0.0544
    9MOL   H646 9302   4.584   0.823   1.520 -4.0679  1.2291  0.5440
    9MOL   H647 9303   4.455   0.610   1.537  0.4358  1.1665  0.4064
    9MOL   H648 9304   4.578   0.378   1.602 -0.5974  0.3857 -0.5532
    9MOL   H649 9305   4.789   0.242   1.656  1.6603  2.0188 -0.7347
    9MOL   C650 9306   4.129   1.692   1.157 -0.5097  0.2979  0.0189
    9MOL   C651 9307   4.230   1.736   1.248  0.6752 -0.2510 -0.2704
    9MOL   C652 9308   4.215   1.748   1.389 -0.6400 -0.2744  0.5498
    9MOL   C653 9309   4.085   1.714   1.435 -0.3797 -0.3202  0.3031
    9MOL   S654 9310   4.043   1.710   1.608  0.2158 -0.6595 -0.0236
    9MOL   O655 9311   4.068   1.576   1.668  0.2852  0.7248  0.0251
    9MOL   O656 9312   3.908   1.765   1.612 -0.5218 -0.5957 -0.9736
    9MOL   C657 9313   4.149   1.829   1.688 -0.6018  0.4173  0.4107
    9MOL   C658 9314   4.284   1.803   1.724  0.1616  0.7496  0.3099
    9MOL   C659 9315   4.365   1.899   1.789 -0.7282  0.3127 -0.7510
    9MOL   C660 9316   4.307   2.027   1.817 -0.2488  1.0796  0.8209
    9MOL   O661 9317   4.385   2.123   1.871 -0.1206  0.0813 -0.1386
    9MOL   C662 9318   4.433   2.114   1.999 -0.5668 -0.5131  0.3560
    9MOL   C663 9319   4.352   2.063   2.105  0.2803  0.1030 -0.4060
    9MOL   C664 9320   4.405   2.075   2.239 -0.5070 -0.0759  0.2646
    9MOL   C665 9321   4.534   2.120   2.264 -0.2999 -1.1597  0.4831
    9MOL   C666 9322   4.582   2.127   2.411 -0.2095 -0.0271  0.5713
    9MOL   C667 9323   4.594   1.986   2.469 -0.5533  0.2932 -0.4078
    9MOL   C668 9324   4.716   2.197   2.436  0.0245  0.7277  0.3614
    9MOL   C669 9325   4.480   2.207   2.506  0.0262  0.0451 -0.1916
    9MOL   C670 9326   4.463   2.179   2.643 -0.4549  0.1865 -0.3346
    9MOL   C671 9327   4.385   2.255   2.728  0.4007  0.3366  0.3085
    9MOL   C672 9328   4.308   2.362   2.672  0.1061 -0.5423  0.3917
    9MOL   O673 9329   4.214   2.432   2.739 -0.8967 -0.3379  0.4625
    9MOL   C674 9330   4.330   2.385   2.531 -0.2436 -0.1548 -0.4662
    9MOL   C675 9331   4.417   2.315   2.450  0.5386 -0.8947  0.1489
    9MOL   C676 9332   4.625   2.149   2.153 -0.3994  1.1313 -0.0545
    9MOL   C677 9333   4.573   2.144   2.017  0.7632 -0.5200  0.2426
    9MOL   C678 9334   4.174   2.059   1.776 -1.1151  0.4415  0.2864
    9MOL   C679 9335   4.097   1.957   1.710 -0.1299 -0.3408 -0.3769
    9MOL   C680 9336   3.984   1.667   1.348  0.4185  1.2311  0.7688
    9MOL   C681 9337   4.006   1.657   1.206 -1.0357  0.8809  0.0391
    9MOL   H682 9338   4.320   1.769   1.199  0.2946  1.4210  0.1290
    9MOL   H683 9339   4.298   1.783   1.449  0.2398 -0.5592 -0.4854
    9MOL   H684 9340   4.332   1.709   1.698 -2.3033 -0.4332 -0.0969
    9MOL   H685 9341   4.470   1.879   1.808 -0.8980 -0.8885 -1.0205
    9MOL   H686 9342   4.250   2.046   2.074 -0.1255  3.4068 -1.0754
    9MOL   H687 9343   4.331   2.050   2.314  1.6941 -0.8714  2.2425
    9MOL   H688 9344   4.647   1.988   2.564 -1.1738  0.3448 -0.0640
    9MOL   H689 9345   4.662   1.924   2.410 -1.3591 -0.6873 -0.3187
    9MOL   H690 9346   4.496   1.938   2.473 -0.5462  0.2705 -0.5055
    9MOL   H691 9347   4.745   2.186   2.540  1.3939  2.8265  0.2245
    9MOL   H692 9348   4.798   2.151   2.381 -1.1597 -0.4162 -0.4881
    9MOL   H693 9349   4.714   2.303   2.411  2.1824  1.1589  1.9142
    9MOL   H694 9350   4.509   2.093   2.689  0.8931  1.0779  0.0192
    9MOL   H695 9351   4.379   2.225   2.832 -1.6821 -2.0560 -0.4223
    9MOL   H696 9352   4.267   2.458   2.481 -2.9042 -1.3703  0.9836
    9MOL   H697 9353   4.438   2.357   2.353  0.3481  2.8414  1.6361
    9MOL   H698 9354   4.728   2.170   2.179  0.0574 -0.3430 -0.6270
    9MOL   H699 9355   4.637   2.162   1.932  1.7461 -0.2101  1.0379
    9MOL   H700 9356   4.138   2.161   1.780 -0.2286  0.7531  0.4969
    9MOL   H701 9357   3.996   1.983   1.682  0.6196 -0.3594 -3.3194
    9MOL   H702 9358   3.890   1.629   1.387  1.9693 -1.6664  1.7998
    9MOL   H703 9359   3.939   1.600   1.142  1.8284 -1.8337 -0.6780
    9MOL   C704 9360   4.230   2.454   2.871 -0.2571  0.2513  0.2321
    9MOL   C705 9361   4.188   2.356   2.961  0.4005  0.2158 -0.4750
    9MOL   C706 9362   4.220   2.372   3.091  0.1705  0.6392 -0.3586
    9MOL   C707 9363   4.282   2.484   3.142  0.1701  0.1008 -0.5702
    9MOL   S708 9364   4.312   2.494   3.324  0.1640 -0.2893  0.4617
    9MOL   O709 9365   4.299   2.639   3.365 -0.1096  0.7974  0.3333
    9MOL   O710 9366   4.447   2.426   3.335 -0.2881  0.0269 -0.0601
    9MOL   C711 9367   4.186   2.404   3.410 -1.0876  0.1127  0.4783
    9MOL   C712 9368   4.223   2.297   3.494 -0.5542  0.7334 -0.7161
    9MOL   C713 9369   4.140   2.203   3.552 -0.9141  0.0991  0.2571
    9MOL   C714 9370   4.000   2.215   3.520 -0.1293  0.1276  0.0418
    9MOL   O715 9371   3.913   2.121   3.560  0.4353  0.2842  0.7587
    9MOL   C716 9372   3.913   2.075   3.687 -0.4921 -0.2072  0.2387
    9MOL   C717 9373   3.979   1.956   3.718  0.9531 -0.0893  0.4625
    9MOL   C718 9374   3.968   1.901   3.848 -1.1022 -1.2022 -0.1226
    9MOL   C719 9375   3.878   1.956   3.943 -0.4159 -0.3798  1.0990
    9MOL   C720 9376   3.857   1.882   4.078  0.0517  0.0552 -0.2052
    9MOL   C721 9377   3.722   1.932   4.139  0.1522 -0.2492  0.7679
    9MOL   C722 9378   3.842   1.729   4.060  0.1536  0.2352 -0.0869
    9MOL   C723 9379   3.982   1.919   4.167 -0.8177 -0.3644  0.2254
    9MOL   C724 9380   4.080   1.823   4.197  0.1502  0.3084  0.1107
    9MOL   C725 9381   4.200   1.867   4.264  0.4898 -0.5730  0.7131
    9MOL   C726 9382   4.212   2.001   4.311 -0.0460  0.5598  0.5974
    9MOL   O727 9383   4.324   2.041   4.375 -0.4327 -0.2013  0.2617
    9MOL   C728 9384   4.111   2.092   4.282 -0.5148 -0.0096  0.1031
    9MOL   C729 9385   4.002   2.056   4.206  0.3741 -0.6055 -0.2149
    9MOL   C730 9386   3.817   2.084   3.904 -0.8066  0.3343 -0.4688
    9MOL   C731 9387   3.835   2.147   3.779  0.0616  0.4294 -0.3437
    9MOL   C732 9388   3.959   2.327   3.443  0.8218 -0.7891  0.0152
    9MOL   C733 9389   4.050   2.416   3.389  0.0330 -0.3199 -0.4002
    9MOL   C734 9390   4.313   2.591   3.056 -0.3742 -0.3328  0.3237
    9MOL   C735 9391   4.291   2.574   2.915 -0.6085 -0.1849  0.0949
    9MOL   H736 9392   4.148   2.260   2.930  0.4232  1.0804 -3.3420
    9MOL   H737 9393   4.203   2.290   3.159  2.4273 -0.9864 -1.7182
    9MOL   H738 9394   4.328   2.281   3.511 -0.5232 -1.3586 -2.6128
    9MOL   H739 9395   4.186   2.130   3.616 -1.5761 -0.8365 -0.3290
    9MOL   H740 9396   4.027   1.894   3.643  0.7467 -1.0297  1.1028
    9MOL   H741 9397   4.020   1.810   3.876  0.0442 -0.9737 -1.4645
    9MOL   H742 9398   3.639   1.920   4.070 -0.0395  0.1084  0.9372
    9MOL   H743 9399   3.721   2.037   4.168 -1.6912  0.3095 -1.2264
    9MOL   H744 9400   3.707   1.874   4.231 -1.4947 -1.1076 -0.0210
    9MOL   H745 9401   3.916   1.668   4.007 -0.4211  0.1486 -0.7965
    9MOL   H746 9402   3.832   1.676   4.155 -1.2948 -1.7141 -1.2964
    9MOL   H747 9403   3.752   1.709   4.002 -0.6247  1.8824  0.5265
    9MOL   H748 9404   4.074   1.720   4.163  1.8308  0.1180  0.3354
    9MOL   H749 9405   4.280   1.796   4.279 -0.2024 -0.8899  3.1819
    9MOL   H750 9406   4.122   2.197   4.308  0.0107 -0.5113  1.9814
    9MOL   H751 9407   3.938   2.138   4.181  2.2130  1.0753  0.4658
    9MOL   H752 9408   3.768   2.141   3.982  1.0911  0.7308  0.4433
    9MOL   H753 9409   3.785   2.241   3.759  0.3879  0.3992 -1.3231
    9MOL   H754 9410   3.855   2.336   3.415  0.5559 -1.6001  0.7007
    9MOL   H755 9411   4.017   2.506   3.338  0.3940 -1.4574 -2.7337
    9MOL   H756 9412   4.365   2.679   3.091  1.8440 -2.2727  2.0366
    9MOL   H757 9413   4.318   2.651   2.844  0.5108  1.0858  1.8602
    9MOL   C758 9414   4.407   2.124   4.302 -0.1968  0.9090 -0.6115
    9MOL   C759 9415   4.430   2.258   4.335  0.1634  0.3433 -0.1813
    9MOL   C760 9416   4.541   2.323   4.276  0.0207  0.1013 -0.5342
    9MOL   C761 9417   4.611   2.262   4.169  1.1774  0.2637 -0.1913
    9MOL   S762 9418   4.749   2.357   4.091  0.2192  0.2865  0.0321
    9MOL   O763 9419   4.756   2.325   3.947 -0.2684 -0.3855  0.5009
    9MOL   O764 9420   4.869   2.337   4.172  0.2150  0.1925  0.4161
    9MOL   C765 9421   4.695   2.529   4.102 -0.8470  0.5432  0.5378
    9MOL   C766 9422   4.760   2.605   4.194 -0.2080  0.0604 -0.5557
    9MOL   C767 9423   4.726   2.741   4.201  0.1446 -0.1528 -0.2908
    9MOL   C768 9424   4.626   2.790   4.116  0.2800 -0.5943 -0.9074
    9MOL   O769 9425   4.589   2.920   4.143  0.3664 -0.5066  0.0435
    9MOL   C770 9426   4.505   2.989   4.057 -0.1498 -0.3680  0.1988
    9MOL   C771 9427   4.558   3.037   3.934 -0.4306  0.8138 -0.5347
    9MOL   C772 9428   4.471   3.105   3.843 -0.2331  0.1841  0.5059
    9MOL   C773 9429   4.333   3.121   3.871  0.5101  0.8137 -0.3725
    9MOL   C774 9430   4.241   3.188   3.767 -0.0710 -0.4455 -0.0343
    9MOL   C775 9431   4.269   3.126   3.629 -0.0469 -0.2393  0.4412
    9MOL   C776 9432   4.093   3.157   3.788 -0.4677  0.6615 -0.2780
    9MOL   C777 9433   4.259   3.335   3.775  0.0411  0.3603  0.7932
    9MOL   C778 9434   4.243   3.424   3.666  0.2229  0.3025 -0.1139
    9MOL   C779 9435   4.244   3.562   3.686 -0.3530  0.4461 -0.6270
    9MOL   C780 9436   4.265   3.619   3.814  0.3643 -0.9023 -0.3119
    9MOL   O781 9437   4.253   3.755   3.837  0.2706  0.0327 -0.5256
    9MOL   C782 9438   4.275   3.537   3.923  0.1194  0.8036 -0.3628
    9MOL   C783 9439   4.277   3.401   3.899 -0.6088 -0.0704 -0.4448
    9MOL   C784 9440   4.282   3.066   3.991 -0.0670 -0.4317  0.7780
    9MOL   C785 9441   4.369   3.001   4.084  0.3171 -1.2117  0.5521
    9MOL   C786 9442   4.555   2.706   4.029  0.6112 -0.0772 -0.2419
    9MOL   C787 9443   4.592   2.573   4.018 -0.5022 -0.3309  0.2075
    9MOL   C788 9444   4.584   2.131   4.127  0.8208  1.0618  0.2675
    9MOL   C789 9445   4.488   2.055   4.197 -0.0383 -0.4807 -0.5714
    9MOL   H790 9446   4.380   2.298   4.422  0.7724 -1.4130  0.9997
    9MOL   H791 9447   4.559   2.427   4.298 -0.4307 -0.4230  2.6434
    9MOL   H792 9448   4.846   2.568   4.249  1.9940  2.3931 -2.3312
    9MOL   H793 9449   4.773   2.810   4.270 -1.8916 -0.7336  1.7382
    9MOL   H794 9450   4.664   3.034   3.916 -0.8487 -0.4518 -2.9069
    9MOL   H795 9451   4.528   3.161   3.770 -0.4435 -0.4807 -0.1717
    9MOL   H796 9452   4.261   3.018   3.640 -0.9289 -0.2286 -0.0935
    9MOL   H797 9453   4.369   3.155   3.596 -0.1179  1.9662  2.0468
    9MOL   H798 9454   4.193   3.174   3.568 -1.6111 -2.3042  0.7068
    9MOL   H799 9455   4.039   3.206   3.707 -4.6663 -2.4326  0.4783
    9MOL   H800 9456   4.076   3.050   3.803 -0.4024  0.7961  0.7939
    9MOL   H801 9457   4.066   3.214   3.877 -1.1833 -0.4927  0.2536
    9MOL   H802 9458   4.225   3.381   3.568 -1.9056 -0.3611  0.5674
    9MOL   H803 9459   4.238   3.633   3.605  0.1620  0.9972 -0.1869
    9MOL   H804 9460   4.279   3.572   4.025 -0.0068 -0.4824  0.0903
    9MOL   H805 9461   4.284   3.340   3.988  1.2492  1.8348  0.7609
    9MOL   H806 9462   4.177   3.080   4.013 -0.4270 -1.5512 -0.1823
    9MOL   H807 9463   4.331   2.964   4.178  0.3923 -0.8758  0.7131
    9MOL   H808 9464   4.481   2.753   3.966  2.5571  1.4881 -1.4342
    9MOL   H809 9465   4.542   2.503   3.952 -2.3456  0.9141  0.2603
    9MOL   H810 9466   4.623   2.092   4.034 -0.8372 -1.2679  0.5011
    9MOL   H811 9467   4.472   1.952   4.168 -0.8727 -0.6169  0.3420
    9MOL   C812 9468   4.343   3.843   3.773  0.3974 -0.4634 -0.0546
    9MOL   C813 9469   4.296   3.950   3.693  0.5198 -0.2475  0.5637
    9MOL   C814 9470   4.386   4.035   3.631 -1.1301 -0.5229  0.1085
    9MOL   C815 9471   4.524   4.027   3.659  0.1130  0.1505 -0.1663
    9MOL   S816 9472   4.637   4.140   3.576  0.5413 -0.0743  0.1160
    9MOL   O817 9473   4.554   4.225   3.487  0.2506  0.6635  0.0511
    9MOL   O818 9474   4.740   4.058   3.510 -0.2473  0.5135 -0.0977
    9MOL   C819 9475   4.719   4.245   3.698  0.5268  0.3137 -0.2035
    9MOL   C820 9476   4.711   4.386   3.677 -0.1964  0.9065 -0.5178
    9MOL   C821 9477   4.763   4.467   3.771  0.2358 -0.0142 -0.6311
    9MOL   C822 9478   4.820   4.420   3.896  0.0812 -0.2851  0.4406
    9MOL   O823 9479   4.868   4.516   3.983  0.3614 -0.1146  0.6437
    9MOL   C824 9480   4.787   4.583   4.070 -0.0005 -0.2859  0.1268
    9MOL   C825 9481   4.809   4.566   4.209  0.4943 -0.0902  0.4720
    9MOL   C826 9482   4.734   4.640   4.303  0.0773 -0.1148  1.3320
    9MOL   C827 9483   4.631   4.728   4.262  0.3695  0.4256 -0.2664
    9MOL   C828 9484   4.546   4.792   4.367 -0.1327  0.0668  0.6736
    9MOL   C829 9485   4.637   4.866   4.464  0.1940 -0.7208 -0.4002
    9MOL   C830 9486   4.448   4.896   4.308  0.1857 -0.1779  0.4513
    9MOL   C831 9487   4.456   4.690   4.435  0.0945  0.4012  0.9906
    9MOL   C832 9488   4.404   4.718   4.562 -0.7612 -0.6970  0.1671
    9MOL   C833 9489   4.321   4.629   4.630  0.0209 -0.1883  0.3921
    9MOL   C834 9490   4.275   4.508   4.564 -0.0810 -0.5439 -0.2330
    9MOL   O835 9491   4.175   4.435   4.612 -0.6657  0.2159 -0.0203
    9MOL   C836 9492   4.328   4.481   4.435 -0.3389  0.2073 -0.3642
    9MOL   C837 9493   4.423   4.567   4.372 -0.5191  0.3171  0.3391
    9MOL   C838 9494   4.612   4.750   4.122  0.4973  0.0742  0.3130
    9MOL   C839 9495   4.693   4.679   4.027 -0.5452 -0.2331 -0.9057
    9MOL   C840 9496   4.832   4.282   3.914  0.8361 -0.8707 -0.5701
    9MOL   C841 9497   4.783   4.196   3.814  0.1266  0.6700  0.0449
    9MOL   C842 9498   4.572   3.910   3.723 -0.2608 -0.6697  0.2865
    9MOL   C843 9499   4.480   3.823   3.789  0.0476 -0.2477 -0.4585
    9MOL   H844 9500   4.190   3.971   3.680  0.3734 -1.9071 -1.1141
    9MOL   H845 9501   4.348   4.115   3.569  0.3189  0.4588  0.4712
    9MOL   H846 9502   4.670   4.432   3.589  0.7857  0.8299 -1.0265
    9MOL   H847 9503   4.767   4.572   3.747  1.1512  0.2481  0.6301
    9MOL   H848 9504   4.892   4.503   4.238  1.4889  0.6414 -0.6959
    9MOL   H849 9505   4.753   4.623   4.408  2.1069  1.0410  1.1775
    9MOL   H850 9506   4.675   4.795   4.537 -0.7101 -1.3520 -0.5351
    9MOL   H851 9507   4.574   4.929   4.527  0.3965 -0.3369 -0.5826
    9MOL   H852 9508   4.720   4.923   4.422 -0.8506  0.5290 -0.8053
    9MOL   H853 9509   4.374   4.919   4.384  0.1249 -2.6843  1.2035
    9MOL   H854 9510   4.505   4.985   4.282  0.8142 -1.3429 -2.2986
    9MOL   H855 9511   4.392   4.855   4.224  1.8390 -1.0650 -0.2374
    9MOL   H856 9512   4.409   4.812   4.614  1.0338  0.1203 -1.4541
    9MOL   H857 9513   4.282   4.658   4.726  0.5605 -0.4378  0.6879
    9MOL   H858 9514   4.296   4.393   4.381 -0.6646 -0.3789  0.7580
    9MOL   H859 9515   4.476   4.536   4.283  0.2168 -1.0585  1.2429
    9MOL   H860 9516   4.528   4.808   4.088 -0.4703 -2.1582 -1.2551
    9MOL   H861 9517   4.687   4.697   3.921 -0.8722 -1.2235 -1.0586
    9MOL   H862 9518   4.880   4.249   4.005 -2.2012  1.3247  1.9816
    9MOL   H863 9519   4.780   4.089   3.831 -2.7484  0.2909 -2.3216
    9MOL   H864 9520   4.675   3.883   3.740 -0.5958 -1.2437  1.5342
    9MOL   H865 9521   4.512   3.745   3.856 -1.5452 -1.1386 -0.7243
    9MOL   C866 9522   4.197   4.360   4.724 -0.1713 -0.5125 -0.2883
    9MOL   C867 9523   4.121   4.377   4.838 -0.2241  0.4822  0.1296
    9MOL   C868 9524   4.149   4.302   4.955 -1.0878  0.2948  0.3900
    9MOL   C869 9525   4.253   4.209   4.947 -0.4233  0.1953 -0.2100
    9MOL   S870 9526   4.296   4.109   5.097  0.2355 -0.2101  0.2280
    9MOL   O871 9527   4.437   4.123   5.125  0.3866  0.0938  0.5798
    9MOL   O872 9528   4.241   3.976   5.085  0.2020  0.1403 -0.5211
    9MOL   C873 9529   4.223   4.194   5.245  0.1796  0.1706  0.9769
    9MOL   C874 9530   4.122   4.133   5.317  0.1648 -0.2324 -0.1602
    9MOL   C875 9531   4.052   4.202   5.416  0.1646 -0.0132  0.2502
    9MOL   C876 9532   4.078   4.336   5.433  0.3508  0.2322  0.9637
    9MOL   O877 9533   3.999   4.400   5.521 -0.6136  0.1691 -0.5674
    9MOL   C878 9534   3.979   4.540   5.517  0.2901  0.4401  0.0576
    9MOL   C879 9535   3.868   4.590   5.447  0.3351 -0.2419  0.9670
    9MOL   C880 9536   3.857   4.730   5.433 -0.3855 -0.4513  0.1816
    9MOL   C881 9537   3.947   4.820   5.485 -0.2106 -0.0016 -0.0981
    9MOL   C882 9538   3.936   4.970   5.450 -0.4830 -0.6213 -0.1742
    9MOL   C883 9539   3.792   5.010   5.474  0.0945  0.5486  0.4375
    9MOL   C884 9540   4.010   5.057   5.562 -0.0014 -1.1315 -0.1953
    9MOL   C885 9541   3.989   4.995   5.309 -0.0766 -0.6001 -0.5919
    9MOL   C886 9542   3.914   5.073   5.213  0.7628 -0.4380  0.2119
    9MOL   C887 9543   3.978   5.105   5.090  0.2947  0.2391  0.3140
    9MOL   C888 9544   4.116   5.060   5.065 -0.1769 -0.6841 -0.6346
    9MOL   O889 9545   4.170   5.129   4.960 -0.3553  0.1825  0.1243
    9MOL   C890 9546   4.183   4.976   5.157  0.0867 -0.4657  0.1506
    9MOL   C891 9547   4.119   4.939   5.277 -0.5290  0.7438  0.1400
    9MOL   C892 9548   4.056   4.766   5.562 -0.1541 -0.0990 -0.1306
    9MOL   C893 9549   4.071   4.625   5.580 -0.0305 -1.1503 -0.3170
    9MOL   C894 9550   4.186   4.398   5.368 -0.0281  0.3489  0.0876
    9MOL   C895 9551   4.255   4.331   5.269 -0.1962  0.3614  1.0095
    9MOL   C896 9552   4.328   4.184   4.834 -0.2588 -0.3181  0.4862
    9MOL   C897 9553   4.291   4.258   4.719 -0.3682  0.8502  0.5311
    9MOL   H898 9554   4.040   4.449   4.839 -0.8688 -0.2413  1.3525
    9MOL   H899 9555   4.093   4.330   5.043  2.0324  0.8698  2.2566
    9MOL   H900 9556   4.098   4.030   5.292  2.6895 -0.5958 -1.2390
    9MOL   H901 9557   3.985   4.155   5.487 -0.9637 -1.1038 -1.4864
    9MOL   H902 9558   3.798   4.523   5.397  1.1898 -0.6422  0.2945
    9MOL   H903 9559   3.775   4.767   5.374  0.9570  0.4125 -1.1920
    9MOL   H904 9560   3.755   4.990   5.574  1.1734  1.6191  1.0544
    9MOL   H905 9561   3.711   4.970   5.412 -0.1804  1.5912  0.1136
    9MOL   H906 9562   3.774   5.116   5.460  0.0664  0.5144  0.2046
    9MOL   H907 9563   3.987   5.163   5.549  0.6673 -0.5605  2.9088
    9MOL   H908 9564   3.987   5.025   5.663 -0.5078  1.7517  0.6297
    9MOL   H909 9565   4.116   5.040   5.538  0.9582  0.9408  2.3478
    9MOL   H910 9566   3.817   5.118   5.222  0.1012 -1.8033  0.0568
    9MOL   H911 9567   3.915   5.162   5.024 -1.6984 -0.3282  1.7043
    9MOL   H912 9568   4.278   4.926   5.148  0.6724  0.6841 -0.2052
    9MOL   H913 9569   4.164   4.865   5.341 -1.7239  0.4611  0.6748
    9MOL   H914 9570   4.129   4.833   5.606 -0.3139 -0.8310  1.2724
    9MOL   H915 9571   4.144   4.579   5.645 -1.0838 -1.7977  0.4162
    9MOL   H916 9572   4.201   4.505   5.375 -2.9313  1.0895 -3.6986
    9MOL   H917 9573   4.323   4.397   5.217 -0.5231 -0.6049 -0.7050
    9MOL   H918 9574   4.409   4.112   4.839  0.5415  0.3763 -1.7197
    9MOL   H919 9575   4.349   4.237   4.630 -1.7273  0.5751 -0.3135
    9MOL   C920 9576   4.228   5.251   4.987  0.2209 -0.4342 -0.6644
    9MOL   C921 9577   4.348   5.246   5.062  0.4336  0.2018  0.3712
    9MOL   C922 9578   4.416   5.370   5.094  0.5867  0.0428  0.4401
    9MOL   C923 9579   4.356   5.489   5.067  0.0607 -0.0339 -0.3036
    9MOL   S924 9580   4.436   5.637   5.129 -0.1399  0.5875 -0.0500
    9MOL   O925 9581   4.577   5.613   5.107  0.0495 -0.5163 -0.1086
    9MOL   O926 9582   4.385   5.664   5.264 -0.2792 -0.4345  0.9695
    9MOL   C927 9583   4.389   5.774   5.017 -0.5827  0.0077  0.2413
    9MOL   C928 9584   4.450   5.782   4.895 -0.2512 -0.4468  0.1944
    9MOL   C929 9585   4.410   5.880   4.807  0.3343 -0.2287 -0.4935
    9MOL   C930 9586   4.304   5.969   4.836 -0.5249 -0.1373  0.2193
    9MOL   O931 9587   4.262   6.062   4.751  0.3176  0.0523  0.1463
    9MOL   C932 9588   4.240   6.027   4.625  0.4790 -0.2765  0.0540
    9MOL   C933 9589   4.311   6.096   4.527  0.0649 -0.0921 -0.6075
    9MOL   C934 9590   4.294   6.072   4.393 -0.7215  0.3970 -0.7562
    9MOL   C935 9591   4.229   5.953   4.354 -0.3608  0.2779  0.5384
    9MOL   C936 9592   4.203   5.921   4.202 -0.6109  0.4762  0.5067
    9MOL   C937 9593   4.312   5.974   4.103 -0.1025  0.5706 -0.1927
    9MOL   C938 9594   4.197   5.766   4.181  0.3507 -0.8376  0.5434
    9MOL   C939 9595   4.072   5.998   4.154  0.3278  0.0387  0.2908
    9MOL   C940 9596   4.037   6.125   4.199 -0.3425  0.2029  0.0251
    9MOL   C941 9597   3.922   6.187   4.150 -0.1187 -0.2779 -0.2492
    9MOL   C942 9598   3.834   6.126   4.058 -0.1828  0.1348  0.3123
    9MOL   O943 9599   3.722   6.192   4.008 -0.3025  0.1359 -0.4951
    9MOL   C944 9600   3.860   5.993   4.021  0.4515 -0.3015 -0.0353
    9MOL   C945 9601   3.984   5.932   4.066 -0.0492 -0.3147 -0.2530
    9MOL   C946 9602   4.179   5.859   4.450  0.1180  0.1627 -0.6025
    9MOL   C947 9603   4.172   5.908   4.584 -0.0993  0.3577 -0.4012
    9MOL   C948 9604   4.249   5.963   4.966  0.7057  0.4625 -0.7020
    9MOL   C949 9605   4.291   5.866   5.057 -0.6110  0.6870  0.5649
    9MOL   C950 9606   4.230   5.495   4.999  0.1442 -0.2008  0.3519
    9MOL   C951 9607   4.174   5.378   4.953  0.9130  0.3317 -0.3349
    9MOL   H952 9608   4.405   5.155   5.071  0.5284  0.2028 -0.2383
    9MOL   H953 9609   4.510   5.376   5.146  0.8615  4.5108 -0.4387
    9MOL   H954 9610   4.523   5.707   4.868 -0.1791 -0.3599  0.1501
    9MOL   H955 9611   4.449   5.889   4.706  0.6560  2.8228 -0.1414
    9MOL   H956 9612   4.361   6.179   4.574  0.2480 -1.4559  1.6473
    9MOL   H957 9613   4.348   6.137   4.327  0.2993  0.4635  0.1304
    9MOL   H958 9614   4.288   5.957   3.999 -0.9569 -2.6792  0.4736
    9MOL   H959 9615   4.415   5.943   4.119 -0.9849 -1.7264  1.2784
    9MOL   H960 9616   4.311   6.082   4.118  2.7002  0.6653 -0.3293
    9MOL   H961 9617   4.276   5.715   4.236 -0.0835 -1.3544  0.6940
    9MOL   H962 9618   4.103   5.717   4.209 -1.6127  2.0258 -0.8493
    9MOL   H963 9619   4.193   5.746   4.074  0.7704  0.8302  0.2022
    9MOL   H964 9620   4.099   6.191   4.256  0.6582  0.3492 -1.2122
    9MOL   H965 9621   3.898   6.287   4.184 -0.6761 -0.5250  0.0858
    9MOL   H966 9622   3.797   5.950   3.944  0.2283  0.4425 -0.2720
    9MOL   H967 9623   4.009   5.833   4.031  1.2049  0.4259 -1.4767
    9MOL   H968 9624   4.149   5.758   4.427 -1.9346  0.5405  0.2755
    9MOL   H969 9625   4.130   5.842   4.659  4.1928 -2.8530 -0.6409
    9MOL   H970 9626   4.159   6.017   4.992  0.2815 -0.9337  0.8115
    9MOL   H971 9627   4.223   5.837   5.136 -0.7647 -0.8578 -0.1100
    9MOL   H972 9628   4.188   5.593   4.981  2.5018  0.7541 -0.0925
    9MOL   H973 9629   4.085   5.396   4.895 -0.8048  0.0747  2.1728
    9MOL   C974 9630   3.629   6.238   4.095  0.8430  0.9430  0.1706
    9MOL   C975 9631   3.559   6.147   4.181  0.0126  0.1470  0.0152
    9MOL   C976 9632   3.451   6.181   4.262  0.0596 -0.2922 -0.1503
    9MOL   C977 9633   3.413   6.316   4.270 -0.2221 -0.3600 -0.3993
    9MOL   S978 9634   3.288   6.367   4.386  0.3385 -0.2832  0.0811
    9MOL   O979 9635   3.260   6.507   4.350 -0.4175  0.5013 -0.9295
    9MOL   O980 9636   3.326   6.328   4.523  0.0074 -0.5887 -0.0784
    9MOL   C981 9637   3.146   6.261   4.344  0.2587 -1.6633 -0.2115
    9MOL   C982 9638   3.046   6.316   4.257 -0.2150 -0.6141 -0.0334
    9MOL   C983 9639   2.923   6.244   4.249 -0.4009  0.2432 -0.9713
    9MOL   C984 9640   2.904   6.120   4.313  0.7635  0.5576 -0.2209
    9MOL   O985 9641   2.783   6.043   4.317 -0.2974  0.2413 -0.0754
    9MOL   C986 9642   2.767   5.937   4.227  0.0118  0.6952 -0.7240
    9MOL   C987 9643   2.829   5.931   4.106  0.2266 -0.3149  0.1665
    9MOL   C988 9644   2.816   5.820   4.016 -0.0341  1.0338  0.1939
    9MOL   C989 9645   2.736   5.701   4.057 -0.1439 -0.7131 -0.4719
    9MOL   C990 9646   2.715   5.581   3.961 -0.1922  0.8873  0.2971
    9MOL   C991 9647   2.666   5.453   4.041  0.6200  0.4006  0.0855
    9MOL   C992 9648   2.591   5.614   3.867  0.0177 -0.3502 -0.0109
    9MOL   C993 9649   2.842   5.527   3.887 -0.4606  0.1828 -0.5284
    9MOL   C994 9650   2.956   5.488   3.960 -0.3356  0.5820 -0.9346
    9MOL   C995 9651   3.074   5.448   3.889  1.1205 -0.1553 -0.2373
    9MOL   C996 9652   3.079   5.446   3.746  1.1463 -0.1048 -0.1179
    9MOL   O997 9653   3.186   5.402   3.672  0.4347  0.2882 -0.1541
    9MOL   C998 9654   2.968   5.484   3.675  0.3607 -1.0025 -0.8021
    9MOL   C999 9655   2.852   5.531   3.747  0.3281  0.2597  0.6232
    9MOL     C1 9656   2.677   5.708   4.186  0.8051  0.0368 -0.5244
    9MOL     C2 9657   2.693   5.821   4.267 -0.3985 -0.1490  0.4969
    9MOL     C3 9658   3.009   6.073   4.396  1.1713  0.3554 -0.1140
    9MOL     C4 9659   3.131   6.140   4.408 -0.0585 -0.6885 -0.4429
    9MOL     C5 9660   3.494   6.410   4.197 -0.4501 -0.2828 -0.7537
    9MOL     C6 9661   3.594   6.375   4.104 -0.3187 -0.1649 -0.6428
    9MOL     H7 9662   3.581   6.043   4.196  2.8327  0.9434  1.8644
    9MOL     H8 9663   3.399   6.110   4.326  0.1755 -0.9634 -0.8011
    9MOL     H9 9664   3.055   6.418   4.223  0.5160 -1.1313 -1.4223
    9MOL    H10 9665   2.838   6.295   4.205  1.4996  2.6798 -1.9000
    9MOL    H11 9666   2.889   6.009   4.063 -1.9900  0.8887 -0.8165
    9MOL    H12 9667   2.863   5.827   3.920  1.0460 -1.3203  0.5205
    9MOL    H13 9668   2.737   5.417   4.115  0.6229 -1.3958 -0.7745
    9MOL    H14 9669   2.645   5.373   3.971  1.5824  0.1766  0.0484
    9MOL    H15 9670   2.564   5.467   4.079  0.4932 -1.0723  0.3219
    9MOL    H16 9671   2.548   5.536   3.804  0.6902 -0.4911 -0.3011
    9MOL    H17 9672   2.510   5.655   3.928  0.1965  1.3013 -0.8475
    9MOL    H18 9673   2.624   5.691   3.797  0.9056  0.0299  0.8028
    9MOL    H19 9674   2.948   5.496   4.068 -1.8590 -3.2680 -0.6629
    9MOL    H20 9675   3.156   5.405   3.945 -0.3316 -2.7145  0.0213
    9MOL    H21 9676   2.966   5.481   3.567  0.5649  0.5664 -0.8511
    9MOL    H22 9677   2.771   5.557   3.681  2.0841  1.0970 -1.2793
    9MOL    H23 9678   2.622   5.624   4.225  0.0510  0.2231 -1.1928
    9MOL    H24 9679   2.656   5.801   4.366 -1.0514 -1.3963  0.0101
    9MOL    H25 9680   3.005   5.984   4.457  0.8381  1.3433  1.3357
    9MOL    H26 9681   3.210   6.108   4.474 -0.8798 -0.7489  0.5067
    9MOL    H27 9682   3.477   6.516   4.211  0.6817 -0.4542  2.4282
    9MOL    H28 9683   3.646   6.449   4.044  0.8740 -0.3270  0.1598
    9MOL    C29 9684   3.257   5.293   3.701 -0.0983 -0.4323 -0.0915
    9MOL    C30 9685   3.393   5.307   3.669 -0.1223  0.4321 -1.1381
    9MOL    C31 9686   3.481   5.195   3.690 -0.8026 -0.0718  0.0414
    9MOL    C32 9687   3.433   5.082   3.758 -0.1051  0.2694  0.0553
    9MOL    S33 9688   3.552   4.960   3.807 -0.1110  0.2320 -0.3762
    9MOL    O34 9689   3.606   5.001   3.935 -0.5516  0.5579 -1.0534
    9MOL    O35 9690   3.642   4.953   3.692  0.3493  0.6748 -0.2632
    9MOL    C36 9691   3.475   4.790   3.822  0.2816 -1.1065  0.4285
    9MOL    C37 9692   3.453   4.734   3.944 -0.2252 -0.6562  0.3052
    9MOL    C38 9693   3.419   4.599   3.955  0.6637 -0.3957  0.4901
    9MOL    C39 9694   3.391   4.518   3.842  0.3709 -0.4148  0.5716
    9MOL    O40 9695   3.374   4.383   3.866 -0.6162 -0.4613  0.3901
    9MOL    C41 9696   3.286   4.302   3.800  0.4392  1.2256  0.0656
    9MOL    C42 9697   3.314   4.204   3.706 -0.1264  0.5482  0.6479
    9MOL    C43 9698   3.207   4.136   3.634 -0.1641 -0.2747 -0.3887
    9MOL    C44 9699   3.070   4.157   3.684  0.0607  0.2434  0.2122
    9MOL    C45 9700   2.949   4.087   3.616  0.0728  0.0286  0.7181
    9MOL    C46 9701   2.841   4.190   3.578 -0.4287  0.3072  0.0867
    9MOL    C47 9702   2.987   4.022   3.476  0.1507  0.4242  0.2542
    9MOL    C48 9703   2.900   3.972   3.700  0.0358 -0.0603 -0.0677
    9MOL    C49 9704   2.769   3.957   3.749 -0.3914  0.3314 -0.2869
    9MOL    C50 9705   2.730   3.856   3.834 -0.6843  0.6382 -0.0096
    9MOL    C51 9706   2.825   3.759   3.873 -0.2295  0.6539  0.6880
    9MOL    O52 9707   2.785   3.650   3.945 -0.2864  0.1787 -0.1558
    9MOL    C53 9708   2.960   3.779   3.837 -0.1723 -0.1373  0.1356
    9MOL    C54 9709   2.999   3.876   3.744 -0.4918  0.2762  0.2253
    9MOL    C55 9710   3.041   4.242   3.787 -0.1426 -0.1219 -0.4980
    9MOL    C56 9711   3.148   4.319   3.841  0.0307 -0.0988  0.6791
    9MOL    C57 9712   3.394   4.585   3.718 -0.2655 -0.7315 -0.0308
    9MOL    C58 9713   3.436   4.722   3.705 -0.1588  0.5577 -0.1589
    9MOL    C59 9714   3.295   5.073   3.795 -0.1811  0.0211  0.0289
    9MOL    C60 9715   3.211   5.174   3.760  0.5796 -0.3489 -0.8504
    9MOL    H61 9716   3.432   5.399   3.628  0.8307  0.6577  0.2328
    9MOL    H62 9717   3.584   5.206   3.659 -1.4660  1.1632 -1.8051
    9MOL    H63 9718   3.498   4.784   4.028  0.2809 -1.9156  0.7961
    9MOL    H64 9719   3.421   4.567   4.058  2.4151 -1.2601  0.2085
    9MOL    H65 9720   3.415   4.200   3.669 -0.1478 -0.7417  0.7306
    9MOL    H66 9721   3.235   4.078   3.547  0.1534 -1.2556  0.3693
    9MOL    H67 9722   2.741   4.160   3.545  0.0889 -0.4760 -0.7784
    9MOL    H68 9723   2.894   4.259   3.513  1.8982 -0.5138  1.0626
    9MOL    H69 9724   2.822   4.248   3.668  0.0107 -0.7567  0.8768
    9MOL    H70 9725   3.006   4.107   3.410  1.2228 -0.0722 -0.0858
    9MOL    H71 9726   3.077   3.963   3.488 -0.5266 -0.4347  1.1849
    9MOL    H72 9727   2.905   3.963   3.434  2.6201 -2.2089 -1.0003
    9MOL    H73 9728   2.699   4.032   3.717  1.1462  1.7412 -0.4424
    9MOL    H74 9729   2.629   3.848   3.870 -0.8706 -2.2198 -1.0359
    9MOL    H75 9730   3.033   3.703   3.860 -1.1796 -0.4375  2.5238
    9MOL    H76 9731   3.103   3.879   3.713 -0.5127  1.0735  0.2005
    9MOL    H77 9732   2.943   4.268   3.822 -0.0629  0.6780 -0.8557
    9MOL    H78 9733   3.121   4.381   3.924  2.1035  2.2951 -0.3683
    9MOL    H79 9734   3.373   4.528   3.629  1.6061 -0.7762 -0.4605
    9MOL    H80 9735   3.448   4.757   3.604 -0.8161 -0.6876 -0.6796
    9MOL    H81 9736   3.271   4.981   3.847  1.1185 -0.2515  0.1852
    9MOL    H82 9737   3.110   5.167   3.798  0.4924  1.6669 -0.6925
    9MOL    H83 9738   2.699   3.657   3.983 -0.3907  0.2302 -0.3953
   10MOL     C1 9739   8.228   3.834   0.659 -0.7355 -0.3227  0.5932
   10MOL     C2 9740   8.177   3.741   0.570  0.3839  0.0933 -0.6798
   10MOL     C3 9741   8.108   3.633   0.620 -0.7098 -0.2955 -0.3109
   10MOL     C4 9742   8.097   3.612   0.759 -0.0248 -0.1615 -0.4308
   10MOL     S5 9743   8.006   3.474   0.825  0.5117 -0.0559  0.1622
   10MOL     O6 9744   7.943   3.401   0.715  0.2683 -0.4960 -1.0513
   10MOL     O7 9745   7.925   3.514   0.940 -0.1469  0.7164  0.3898
   10MOL     C8 9746   8.110   3.356   0.901  0.1206  0.0762 -1.1194
   10MOL     C9 9747   8.055   3.239   0.958 -0.0905 -1.2681 -0.5339
   10MOL    C10 9748   8.137   3.145   1.022  0.2188 -0.4243  0.3106
   10MOL    C11 9749   0.025   3.158   1.037  0.4741 -0.1044 -0.0834
   10MOL    O12 9750   0.101   3.069   1.111 -0.0711  0.5804 -0.4918
   10MOL    C13 9751   0.076   2.934   1.089  0.6597 -0.2995  0.1421
   10MOL    C14 9752   8.252   2.849   1.177 -0.0780  0.1676  0.1448
   10MOL    C15 9753   8.239   2.708   1.155 -0.5349 -0.3458  0.2996
   10MOL    C16 9754   0.039   2.654   1.037  0.5171  0.0910 -0.7661
   10MOL    C17 9755   0.018   2.503   1.000 -0.9167  0.2740 -0.2595
   10MOL    C18 9756   8.137   2.453   1.070 -0.0192 -0.1461 -0.3904
   10MOL    C19 9757   0.005   2.492   0.840  0.7338 -0.3167 -0.6308
   10MOL    C20 9758   0.130   2.412   1.059  0.7245  0.0135 -0.1770
   10MOL    C21 9759   0.171   2.436   1.196  0.1127  0.7474  0.0925
   10MOL    C22 9760   0.263   2.348   1.253  0.3563  0.3168  0.4565
   10MOL    C23 9761   0.301   2.228   1.189  0.9413 -1.0653  0.3693
   10MOL    O24 9762   0.372   2.133   1.258  0.0278  0.0145  0.2064
   10MOL    C25 9763   0.258   2.201   1.057 -0.3555  0.5324 -0.1866
   10MOL    C26 9764   0.172   2.293   0.998  0.6660  0.9583 -0.2429
   10MOL    C27 9765   0.125   2.731   0.952 -0.4535 -0.0461 -0.4397
   10MOL    C28 9766   0.140   2.867   0.984  0.0165  0.3873  0.4929
   10MOL    C29 9767   0.078   3.274   0.985  0.4289  0.0307 -0.1744
   10MOL    C30 9768   8.252   3.370   0.915  0.3069 -0.4100 -0.8177
   10MOL    C31 9769   8.142   3.710   0.845  0.5331  1.1359  0.5897
   10MOL    C32 9770   8.212   3.821   0.799 -0.1019 -0.1695 -0.4634
   10MOL    H33 9771   8.188   3.758   0.464 -3.0864 -1.1760 -1.3059
   10MOL    H34 9772   8.057   3.564   0.554 -2.2398  0.5638 -0.0392
   10MOL    H35 9773   7.949   3.225   0.947 -0.2433 -0.2468 -0.3893
   10MOL    H36 9774   8.091   3.060   1.070  1.0296 -1.9230 -1.4705
   10MOL    H37 9775   8.204   2.899   1.260  2.6944  1.6008  0.9503
   10MOL    H38 9776   8.182   2.657   1.231  0.9795 -0.6622  1.2319
   10MOL    H39 9777   8.114   2.355   1.028 -0.8478  0.0981 -0.5074
   10MOL    H40 9778   8.048   2.514   1.060 -0.3669 -0.3328  1.3748
   10MOL    H41 9779   8.157   2.447   1.177  1.7064 -3.3179 -0.8348
   10MOL    H42 9780   0.106   2.488   0.800  0.4338 -0.4623 -1.3764
   10MOL    H43 9781   8.209   2.401   0.808  1.7761 -1.2432  0.3140
   10MOL    H44 9782   8.209   2.575   0.791 -1.2339 -2.6556 -2.7349
   10MOL    H45 9783   0.141   2.531   1.238 -0.3121  0.5402  0.2648
   10MOL    H46 9784   0.297   2.359   1.355  0.1884  0.7654  0.4642
   10MOL    H47 9785   0.301   2.119   1.002 -0.1894  0.8713 -0.5587
   10MOL    H48 9786   0.148   2.269   0.895 -2.4769  1.3441  0.3501
   10MOL    H49 9787   0.183   2.696   0.868  2.1122  0.5264  1.0191
   10MOL    H50 9788   0.196   2.925   0.912 -1.6072  2.1851  0.6585
   10MOL    H51 9789   0.185   3.277   1.000  0.5652  1.3782 -1.3562
   10MOL    H52 9790   0.041   3.456   0.865 -0.9620  1.7355  1.6802
   10MOL    H53 9791   8.143   3.703   0.953 -1.7243 -0.8233  0.5256
   10MOL    H54 9792   0.005   3.889   0.869 -2.2191 -0.2346  1.0229
   10MOL    H55 9793   0.049   3.904   0.624 -1.1467 -1.0251 -1.7273
   10MOL    C56 9794   0.302   2.022   1.295 -0.4533  1.1136 -0.7533
   10MOL    C57 9795   0.298   1.910   1.213  0.5887  0.6311 -0.1275
   10MOL    C58 9796   0.234   1.796   1.262 -0.5748  0.1423 -0.6117
   10MOL    C59 9797   0.162   1.800   1.381  0.2137  0.4323  0.2152
   10MOL    S60 9798   0.099   1.642   1.432 -0.7873  0.4116  0.1967
   10MOL    O61 9799   0.212   1.575   1.502 -0.0059 -0.4272 -0.6082
   10MOL    O62 9800   0.040   1.582   1.315 -0.0175  0.2990 -0.2783
   10MOL    C63 9801   8.226   1.677   1.561  0.1659  0.5474  0.4160
   10MOL    C64 9802   8.132   1.772   1.533 -0.0823 -0.2814  0.4115
   10MOL    C65 9803   8.018   1.782   1.615  1.3667 -0.1842  0.1753
   10MOL    C66 9804   7.997   1.684   1.712 -0.1043  0.0198  0.2686
   10MOL    O67 9805   7.876   1.673   1.773 -0.1995  0.0209 -0.2953
   10MOL    C68 9806   7.841   1.748   1.879  0.0694  0.7734  0.0825
   10MOL    C69 9807   7.905   1.861   1.926 -0.1607 -0.8205 -0.8851
   10MOL    C70 9808   7.848   1.933   2.036 -0.1195 -0.0611  0.3450
   10MOL    C71 9809   7.736   1.881   2.111  0.0347  0.0652 -0.1779
   10MOL    C72 9810   7.704   1.947   2.248 -0.9447  0.1964 -0.1371
   10MOL    C73 9811   7.574   1.903   2.307 -0.1107  0.0292  0.7570
   10MOL    C74 9812   7.813   1.892   2.340  0.5559 -0.6371  0.0043
   10MOL    C75 9813   7.709   2.100   2.233  0.3070  0.1372  0.4652
   10MOL    C76 9814   7.813   2.182   2.282 -0.9300 -0.1751  0.7796
   10MOL    C77 9815   7.816   2.321   2.258 -0.7004  0.1613 -0.2685
   10MOL    C78 9816   7.715   2.380   2.175 -0.6410 -0.3784 -0.3783
   10MOL    O79 9817   7.712   2.513   2.151  0.0079  0.1601 -0.2261
   10MOL    C80 9818   7.606   2.305   2.131  0.6049 -0.3358 -0.0718
   10MOL    C81 9819   7.605   2.164   2.155 -0.0387 -0.0975 -0.5172
   10MOL    C82 9820   7.678   1.761   2.070 -0.4183  0.1108 -0.1426
   10MOL    C83 9821   7.725   1.701   1.953 -0.4231 -0.2343 -0.0757
   10MOL    C84 9822   8.101   1.596   1.751 -0.1560 -0.6017 -0.5316
   10MOL    C85 9823   8.218   1.591   1.672  0.1033  0.0524  0.2956
   10MOL    C86 9824   0.154   1.919   1.454  0.3022 -0.4072  0.0689
   10MOL    C87 9825   0.229   2.030   1.416 -0.6700 -0.3454 -0.4518
   10MOL    H88 9826   0.353   1.897   1.121 -0.7434 -1.9052 -0.6195
   10MOL    H89 9827   0.241   1.704   1.207  1.0219  0.2590 -0.6344
   10MOL    H90 9828   8.132   1.832   1.444  0.3086 -0.4903  0.2680
   10MOL    H91 9829   7.939   1.852   1.593 -0.8391 -3.1274 -1.5752
   10MOL    H92 9830   7.999   1.899   1.888  0.5129 -1.3010  0.2722
   10MOL    H93 9831   7.899   2.022   2.070  0.0456 -0.7660  1.9815
   10MOL    H94 9832   7.571   1.796   2.327 -0.9275 -0.5290 -2.1607
   10MOL    H95 9833   7.489   1.928   2.243  0.5440  1.7878  0.5420
   10MOL    H96 9834   7.553   1.954   2.401  2.6004 -3.7782  3.5726
   10MOL    H97 9835   7.808   1.783   2.332 -1.2079 -0.6746  1.2565
   10MOL    H98 9836   7.913   1.920   2.308  1.1632  1.1766  3.1958
   10MOL    H99 9837   7.795   1.921   2.444  3.0091  1.3679 -0.0999
   10MOL   H100 9838   7.890   2.146   2.349  1.7617  0.4889 -1.8623
   10MOL   H101 9839   7.898   2.378   2.299  1.5074 -2.8100 -0.3735
   10MOL   H102 9840   7.521   2.348   2.079  0.0982 -1.8361 -0.5015
   10MOL   H103 9841   7.532   2.092   2.120 -0.3103 -2.2122  3.9871
   10MOL   H104 9842   7.593   1.718   2.119 -0.0969  1.4398  1.6479
   10MOL   H105 9843   7.667   1.621   1.911 -1.8422  0.6013  0.2707
   10MOL   H106 9844   8.081   1.524   1.830  0.9124 -1.1657 -0.7630
   10MOL   H107 9845   0.043   1.518   1.689  1.7216  1.5892 -0.4123
   10MOL   H108 9846   0.099   1.914   1.547 -0.1088  0.8362 -0.0985
   10MOL   H109 9847   0.231   2.124   1.470  0.2708 -0.1916 -0.7624
   10MOL   C110 9848   7.809   2.563   2.063 -0.5241 -0.2122 -0.7108
   10MOL   C111 9849   7.800   2.533   1.926 -0.7716 -0.5218 -0.1868
   10MOL   C112 9850   7.896   2.583   1.836 -0.6408  1.6904  0.5333
   10MOL   C113 9851   7.992   2.671   1.886 -0.4704 -0.8306  0.1081
   10MOL   S114 9852   8.121   2.731   1.772 -0.1994  0.0149 -0.0487
   10MOL   O115 9853   8.133   2.622   1.675  1.1897  0.0401 -0.4556
   10MOL   O116 9854   8.231   2.770   1.859 -0.9499 -0.2257  0.0358
   10MOL   C117 9855   8.051   2.867   1.684  0.5224  0.2658  0.2803
   10MOL   C118 9856   7.993   2.970   1.757 -0.2847  0.1597  0.4123
   10MOL   C119 9857   7.939   3.079   1.688 -0.0769 -0.3224  0.3570
   10MOL   C120 9858   7.931   3.083   1.549  0.5935 -0.4738  0.6217
   10MOL   O121 9859   7.860   3.186   1.489 -0.0827 -0.4787  0.3291
   10MOL   C122 9860   7.934   3.292   1.447 -0.3349 -0.9240 -0.6403
   10MOL   C123 9861   7.961   3.400   1.529  0.9892 -0.0624 -0.3044
   10MOL   C124 9862   8.058   3.488   1.487  0.4140 -0.2888  0.5629
   10MOL   C125 9863   8.108   3.497   1.354 -0.5715 -0.1398  0.8163
   10MOL   C126 9864   8.215   3.594   1.317  0.5511  0.2121  0.2559
   10MOL   C127 9865   0.044   3.637   1.443  0.0185 -0.4460  0.2645
   10MOL   C128 9866   0.065   3.530   1.223 -0.2870  0.2487 -0.8939
   10MOL   C129 9867   8.163   3.719   1.241 -0.1869  0.0959 -0.1875
   10MOL   C130 9868   0.004   3.831   1.220 -0.1981 -0.0639  0.1770
   10MOL   C131 9869   8.209   3.942   1.151  0.5016  0.0816 -0.9143
   10MOL   C132 9870   8.069   3.951   1.118 -0.0237  0.4478  0.3721
   10MOL   O133 9871   8.010   4.063   1.064 -0.1084 -0.5444 -0.4107
   10MOL   C134 9872   7.983   3.841   1.139 -0.3436  0.5414 -0.2998
   10MOL   C135 9873   8.030   3.726   1.199 -0.0308 -0.1524 -0.8833
   10MOL   C136 9874   8.063   3.397   1.264 -0.3540  0.3901  0.4371
   10MOL   C137 9875   7.982   3.291   1.313  0.8346  0.3425 -0.4312
   10MOL   C138 9876   7.998   2.984   1.475 -0.3921 -0.4952 -0.5240
   10MOL   C139 9877   8.053   2.875   1.542 -0.1644  0.1210 -0.1898
   10MOL   C140 9878   7.996   2.702   2.017  0.5205 -0.0209  0.6730
   10MOL   C141 9879   7.907   2.655   2.109 -0.0003  0.1070  0.0638
   10MOL   H142 9880   7.726   2.463   1.891 -0.4490 -1.4522  0.9521
   10MOL   H143 9881   7.890   2.556   1.731  0.5845  2.1424  0.3309
   10MOL   H144 9882   7.987   2.969   1.865 -0.3260 -0.0560  0.4084
   10MOL   H145 9883   7.878   3.145   1.748 -3.2707 -1.7225 -1.1920
   10MOL   H146 9884   7.919   3.401   1.628 -0.3676  0.0761 -0.8677
   10MOL   H147 9885   8.098   3.553   1.563  0.6509 -0.6823  0.7723
   10MOL   H148 9886   0.083   3.558   1.508 -0.7547 -0.7144  0.4060
   10MOL   H149 9887   8.239   3.698   1.513 -0.1812 -1.4935  1.0295
   10MOL   H150 9888   0.126   3.703   1.416 -0.2876 -0.7265 -1.3857
   10MOL   H151 9889   0.080   3.429   1.260 -0.8383  0.0629 -1.1701
   10MOL   H152 9890   0.029   3.517   1.121  0.2575 -1.5209 -0.8652
   10MOL   H153 9891   0.162   3.578   1.210 -0.6711  1.1597 -0.4897
   10MOL   H154 9892   0.110   3.844   1.238  0.0021 -1.3832 -0.0345
   10MOL   H155 9893   0.021   4.027   1.138 -0.4179  0.7090 -1.4816
   10MOL   H156 9894   7.882   3.846   1.102 -0.8828 -0.4746  0.9676
   10MOL   H157 9895   7.960   3.644   1.202  0.7496 -0.7973 -0.0328
   10MOL   H158 9896   8.093   3.401   1.160 -0.3211 -1.0873  0.3795
   10MOL   H159 9897   7.939   3.215   1.250 -1.7997  0.9431  0.5786
   10MOL   H160 9898   8.013   2.977   1.368 -1.5977  1.1902 -0.8197
   10MOL   H161 9899   8.099   2.797   1.483 -0.2592  1.1169 -1.5999
   10MOL   H162 9900   8.077   2.766   2.048  0.1388  0.9396 -0.3029
   10MOL   H163 9901   7.921   2.673   2.215  0.4002  0.1774  0.0009
   10MOL   C164 9902   8.041   4.190   1.114  0.7334 -0.3834 -0.7394
   10MOL   C165 9903   8.087   4.210   1.253 -0.1249 -0.6571  0.4307
   10MOL   C166 9904   8.152   4.333   1.287  0.2421 -0.1902 -0.0948
   10MOL   C167 9905   8.144   4.444   1.198  0.6010  0.1252 -0.1590
   10MOL   S168 9906   8.216   4.602   1.255  0.0470 -0.0964 -0.0034
   10MOL   O169 9907   0.104   4.572   1.283 -0.2461 -0.4480 -0.6370
   10MOL   O170 9908   8.132   4.656   1.362 -0.2674 -0.2953  0.0465
   10MOL   C171 9909   8.209   4.706   1.111  0.2361  0.3925  0.2063
   10MOL   C172 9910   8.113   4.805   1.102  0.0085 -0.0983 -0.3243
   10MOL   C173 9911   8.110   4.893   0.988 -0.0132  0.2612  0.3016
   10MOL   C174 9912   8.207   4.880   0.890 -0.5685  0.0011  0.0967
   10MOL   O175 9913   8.211   4.962   0.777  0.4264 -0.4681 -0.0119
   10MOL   C176 9914   0.039   5.067   0.780  0.5843 -0.9700  0.5139
   10MOL   C177 9915   0.150   5.072   0.695 -0.3322 -0.3050 -0.2935
   10MOL   C178 9916   0.221   5.189   0.670  0.2183  0.2541 -0.3992
   10MOL   C179 9917   0.177   5.316   0.723  0.8157 -0.2331  0.1841
   10MOL   C180 9918   0.235   5.453   0.687 -0.8396  0.4145  0.3797
   10MOL   C181 9919   0.391   5.439   0.676 -0.3110 -0.5656 -0.3741
   10MOL   C182 9920   0.185   5.486   0.544 -0.3266 -0.4374 -0.6761
   10MOL   C183 9921   0.210   5.565   0.789  0.2978 -0.9062  0.3428
   10MOL   C184 9922   0.262   5.557   0.920 -0.3906  0.1449  0.6900
   10MOL   C185 9923   0.247   5.659   1.013 -0.1240 -0.5913 -0.1192
   10MOL   C186 9924   0.166   5.770   0.978  0.6502 -0.7428  0.0133
   10MOL   O187 9925   0.130   5.875   1.058  0.4938  0.1306 -0.1349
   10MOL   C188 9926   0.099   5.774   0.857  0.5338  0.5105 -0.4903
   10MOL   C189 9927   0.126   5.675   0.755  0.8370  0.1170 -0.5175
   10MOL   C190 9928   0.066   5.306   0.812  0.0148 -0.5501 -0.1965
   10MOL   C191 9929   0.002   5.188   0.845 -0.2665 -0.2390  0.0679
   10MOL   C192 9930   0.058   4.783   0.905 -0.3332  0.1656 -0.0424
   10MOL   C193 9931   0.055   4.693   1.010  0.1849 -0.3879 -0.4502
   10MOL   C194 9932   8.079   4.426   1.071  0.2513  0.0903  0.0029
   10MOL   C195 9933   8.033   4.301   1.026 -0.4515  0.5662 -0.0882
   10MOL   H196 9934   8.102   4.133   1.327  0.6836 -2.2703 -1.3580
   10MOL   H197 9935   8.184   4.353   1.388 -1.9045  2.3151  0.1356
   10MOL   H198 9936   8.056   4.820   1.193 -1.2960  0.4142 -1.2137
   10MOL   H199 9937   8.048   4.981   0.984 -0.4864 -0.1178 -1.0123
   10MOL   H200 9938   0.178   4.988   0.632  0.9495  1.1602 -1.7529
   10MOL   H201 9939   0.305   5.186   0.603  0.2274 -0.9368 -0.3455
   10MOL   H202 9940   0.438   5.383   0.757  0.6499 -1.5571 -1.6182
   10MOL   H203 9941   0.449   5.530   0.661 -1.1365  0.1324  0.5670
   10MOL   H204 9942   0.410   5.378   0.588 -1.5602 -2.8261  0.8524
   10MOL   H205 9943   0.228   5.578   0.506 -0.9587 -0.5131 -1.6109
   10MOL   H206 9944   0.222   5.411   0.474  2.3883 -1.6663  1.9843
   10MOL   H207 9945   0.076   5.495   0.537 -0.4418 -2.3995 -1.9061
   10MOL   H208 9946   0.315   5.466   0.946  1.3566  0.2408 -2.2995
   10MOL   H209 9947   0.280   5.650   1.115 -0.2710 -0.5706 -0.0689
   10MOL   H210 9948   0.029   5.854   0.838 -0.6043 -0.2342  0.5076
   10MOL   H211 9949   0.074   5.673   0.660 -1.7824 -3.4304  0.8820
   10MOL   H212 9950   0.033   5.393   0.867  3.7803  0.6307  0.3756
   10MOL   H213 9951   8.178   5.177   0.920  1.0047  3.3535  2.0182
   10MOL   H214 9952   0.146   4.795   0.843  0.2536 -1.1512  0.5207
   10MOL   H215 9953   0.142   4.631   1.024  0.0886 -0.5969 -0.7785
   10MOL   H216 9954   8.068   4.504   0.997 -1.4789 -0.1098  0.0403
   10MOL   H217 9955   7.994   4.286   0.926 -0.8028  0.4024  0.0758
   10MOL   C218 9956   0.053   5.852   1.170  0.4940 -0.5435  0.1892
   10MOL   C219 9957   8.169   5.875   1.164 -0.7034 -0.5204  0.3461
   10MOL   C220 9958   8.085   5.855   1.273 -0.1234  0.4908 -0.3165
   10MOL   C221 9959   8.137   5.788   1.385  0.4359 -0.9035  0.5256
   10MOL   S222 9960   8.024   5.728   1.506  0.2135  0.2646  0.0007
   10MOL   O223 9961   7.892   5.760   1.454  0.0956 -0.0718  0.1794
   10MOL   O224 9962   8.063   5.766   1.642 -0.5710 -0.1555  1.0690
   10MOL   C225 9963   8.054   5.553   1.492 -0.5570 -0.7882 -0.5235
   10MOL   C226 9964   8.112   5.483   1.602  0.6476 -0.3236  0.6847
   10MOL   C227 9965   8.129   5.340   1.596 -0.1740  0.0301 -0.0558
   10MOL   C228 9966   8.090   5.274   1.479  0.1288 -0.8497  0.5344
   10MOL   O229 9967   8.112   5.138   1.467  0.8037  0.1030  0.1085
   10MOL   C230 9968   8.232   5.097   1.408 -0.8011  0.5165 -0.2652
   10MOL   C231 9969   0.092   5.104   1.491 -0.0814  0.1243  0.2803
   10MOL   C232 9970   0.214   5.071   1.435  0.2899 -0.1313 -0.3147
   10MOL   C233 9971   0.232   5.033   1.296 -0.1366  0.7096 -0.0778
   10MOL   C234 9972   0.369   4.986   1.247 -0.0821 -0.1512  0.5820
   10MOL   C235 9973   0.365   4.928   1.102 -0.2317 -0.7255 -0.1668
   10MOL   C236 9974   0.454   5.110   1.247  0.0085  0.3199 -0.9299
   10MOL   C237 9975   0.422   4.877   1.344  0.5320 -0.0579 -0.1113
   10MOL   C238 9976   0.334   4.765   1.372  0.2327 -0.1465  0.1950
   10MOL   C239 9977   0.387   4.660   1.447 -0.3219  0.3085  0.3888
   10MOL   C240 9978   0.520   4.665   1.494 -0.0519 -0.0080 -0.3911
   10MOL   O241 9979   0.568   4.570   1.577  0.5081  0.7186 -0.5560
   10MOL   C242 9980   0.604   4.771   1.462  0.2067  0.1471  0.2950
   10MOL   C243 9981   0.552   4.875   1.381  0.4453  0.0703  0.2380
   10MOL   C244 9982   0.112   5.028   1.218 -0.0943 -0.7782  0.1746
   10MOL   C245 9983   8.238   5.059   1.273 -0.0310  0.7189  0.0017
   10MOL   C246 9984   8.028   5.339   1.366  0.0169  0.3234 -0.2889
   10MOL   C247 9985   8.012   5.482   1.377 -0.1681  0.0688 -0.6571
   10MOL   C248 9986   0.022   5.762   1.393 -0.6695 -0.2157  0.0533
   10MOL   C249 9987   0.110   5.796   1.290  0.1048 -0.2218  0.0498
   10MOL   H250 9988   8.132   5.910   1.069  1.6708  0.2550 -0.3198
   10MOL   H251 9989   7.981   5.883   1.274 -0.5959 -1.1979 -0.6137
   10MOL   H252 9990   8.142   5.527   1.696  0.7136  1.5098 -0.1899
   10MOL   H253 9991   8.178   5.286   1.675  0.0433 -0.1926 -0.3427
   10MOL   H254 9992   0.089   5.132   1.595 -2.3812 -0.7339  0.4703
   10MOL   H255 9993   0.299   5.058   1.500 -0.8170 -1.5164  0.8687
   10MOL   H256 9994   0.301   4.840   1.093 -0.7926 -0.1591 -1.9450
   10MOL   H257 9995   0.456   4.885   1.060 -0.6554 -3.1931  1.2998
   10MOL   H258 9996   0.326   4.991   1.022  1.1391 -1.4446 -1.4392
   10MOL   H259 9997   0.555   5.101   1.206  0.1619  0.4188 -0.5795
   10MOL   H260 9998   0.414   5.186   1.181  2.1630 -0.1367 -2.8340
   10MOL   H261 9999   0.460   5.156   1.346  0.7615 -0.3802 -0.6413
   10MOL   H26210000   0.233   4.777   1.335  1.0351 -0.2032 -2.0425
   10MOL   H26310001   0.313   4.590   1.483 -0.6900  1.2752  1.5547
   10MOL   H26410002   0.709   4.764   1.488  0.1570  0.7311  0.6568
   10MOL   H26510003   0.604   4.963   1.348 -0.6006  0.6805  0.2000
   10MOL   H26610004   0.107   4.983   1.120 -0.4963  0.9744 -0.6390
   10MOL   H26710005   8.153   5.052   1.207 -0.3681 -0.9220  0.6029
   10MOL   H26810006   8.015   5.279   1.277  0.3695 -2.5448  1.5057
   10MOL   H26910007   7.966   5.537   1.296  0.1465  0.5181 -0.5266
   10MOL   H27010008   0.054   5.701   1.476  1.9364 -0.7696 -1.2914
   10MOL   H27110009   0.217   5.787   1.298  0.1935 -0.0685 -0.8084
   10MOL   C27210010   0.585   4.595   1.711  0.4221 -0.0652  0.2856
   10MOL   C27310011   0.670   4.503   1.785 -0.1709 -0.7334 -0.6179
   10MOL   C27410012   0.700   4.526   1.919  0.4389  1.0392 -1.0852
   10MOL   C27510013   0.641   4.630   1.986  0.2951 -0.1361  0.4058
   10MOL   S27610014   0.682   4.650   2.156 -0.1415 -0.2762 -0.1743
   10MOL   O27710015   0.819   4.596   2.173  0.2975 -0.8307  0.1004
   10MOL   O27810016   0.566   4.597   2.229  0.3417  0.4575  0.5189
   10MOL   C27910017   0.699   4.821   2.193 -0.1030 -0.0965  1.0747
   10MOL   C28010018   0.767   4.909   2.107 -0.0400 -0.1761  0.0641
   10MOL   C28110019   0.779   5.045   2.135  0.0726 -0.4005  0.1627
   10MOL   C28210020   0.710   5.095   2.251 -0.1962  0.2035 -0.0168
   10MOL   O28310021   0.706   5.235   2.269 -0.2318 -0.3405  0.0362
   10MOL   C28410022   0.595   5.297   2.217 -0.4693 -0.5783  0.3014
   10MOL   C28510023   0.588   5.330   2.082  0.0806  0.0342  0.1679
   10MOL   C28610024   0.468   5.383   2.028 -0.8318 -0.3699  0.2884
   10MOL   C28710025   0.356   5.414   2.104  0.2689 -0.2709  0.4075
   10MOL   C28810026   0.227   5.493   2.050  0.4285 -0.3496  0.1870
   10MOL   C28910027   0.098   5.425   2.087  0.1042  0.0180  0.1534
   10MOL   C29010028   0.235   5.628   2.119  0.1023 -0.8126 -0.2524
   10MOL   C29110029   0.253   5.497   1.894  0.6188 -0.3914  0.2072
   10MOL   C29210030   0.231   5.394   1.801 -0.0977  0.2099 -0.4619
   10MOL   C29310031   0.245   5.415   1.663  0.2289  0.1186 -0.0496
   10MOL   C29410032   0.290   5.539   1.612 -0.5575 -0.5608 -0.6004
   10MOL   O29510033   0.309   5.567   1.478 -0.4690  0.1837 -0.5330
   10MOL   C29610034   0.317   5.645   1.704 -0.5159 -0.5069  0.0171
   10MOL   C29710035   0.301   5.623   1.840  0.3592  1.0436  0.0492
   10MOL   C29810036   0.366   5.381   2.240  0.6759  0.1791 -0.2599
   10MOL   C29910037   0.480   5.316   2.298 -0.6394  0.3814  0.2866
   10MOL   C30010038   0.637   5.010   2.334  0.4503 -0.0589 -0.3170
   10MOL   C30110039   0.631   4.870   2.304 -0.0084  0.5470 -0.5071
   10MOL   C30210040   0.555   4.717   1.914  0.3739 -0.2687 -0.1368
   10MOL   C30310041   0.532   4.704   1.776  0.4439  0.8893  0.0336
   10MOL   H30410042   0.711   4.416   1.735  0.2755 -0.5407 -0.5849
   10MOL   H30510043   0.765   4.460   1.974  0.4684  0.2381 -2.0618
   10MOL   H30610044   0.809   4.873   2.014 -0.7370  0.5435 -0.5364
   10MOL   H30710045   0.824   5.110   2.063 -2.1646 -1.3791 -2.2006
   10MOL   H30810046   0.668   5.314   2.011  0.5701 -3.2499  1.3900
   10MOL   H30910047   0.474   5.396   1.921 -1.0675 -0.3349  0.2795
   10MOL   H31010048   0.012   5.450   2.025  0.4258  1.8557  0.4034
   10MOL   H31110049   0.069   5.452   2.189 -0.1680 -0.9233  0.3271
   10MOL   H31210050   0.125   5.321   2.069  3.4580  0.9979 -0.7895
   10MOL   H31310051   0.226   5.609   2.226  1.4012 -1.0104 -0.1623
   10MOL   H31410052   0.333   5.672   2.099  0.2315 -1.3045 -0.7298
   10MOL   H31510053   0.157   5.695   2.083  1.0802 -0.8817 -2.5745
   10MOL   H31610054   0.198   5.301   1.844  1.2685  1.3310  3.1905
   10MOL   H31710055   0.233   5.330   1.597  1.8050 -0.2605  0.1188
   10MOL   H31810056   0.362   5.735   1.664 -1.3538 -0.2738 -0.4297
   10MOL   H31910057   0.306   5.712   1.901  1.1503  0.5325  0.7400
   10MOL   H32010058   0.277   5.394   2.299  1.1302 -0.6224  0.6136
   10MOL   H32110059   0.481   5.285   2.402  0.4285  0.4414  0.3030
   10MOL   H32210060   0.591   5.054   2.421  1.1983  0.0140  0.0478
   10MOL   H32310061   0.573   4.794   2.353 -0.3394 -0.6137 -2.6403
   10MOL   H32410062   0.522   4.807   1.963  2.9280 -0.0484  1.2435
   10MOL   H32510063   0.482   4.781   1.719  0.5678  0.7444 -0.2682
   10MOL   C32610064   0.423   5.531   1.417 -0.0769  0.1288  0.2249
   10MOL   C32710065   0.553   5.557   1.469  0.6731  0.0658 -0.2696
   10MOL   C32810066   0.665   5.527   1.389  0.5483 -0.2356 -0.0731
   10MOL   C32910067   0.649   5.470   1.261  0.5054  0.0255 -0.2975
   10MOL   S33010068   0.788   5.435   1.156 -0.1594 -0.0674 -0.3339
   10MOL   O33110069   0.895   5.529   1.200 -0.3204 -0.8091 -0.2368
   10MOL   O33210070   0.750   5.411   1.019  0.1196  0.0932 -0.7837
   10MOL   C33310071   0.853   5.282   1.218 -0.2031  0.2122 -0.1120
   10MOL   C33410072   0.908   5.189   1.127  0.3058  0.1038  0.5715
   10MOL   C33510073   0.963   5.072   1.179  0.6813  0.1234  0.3209
   10MOL   C33610074   0.954   5.038   1.316  0.0184 -0.0373  0.2778
   10MOL   O33710075   1.007   4.927   1.372 -0.2508 -0.2490 -0.3623
   10MOL   C33810076   0.983   4.798   1.323  0.3061  0.3291 -0.1978
   10MOL   C33910077   0.859   4.758   1.259  0.0300  0.1665  1.0121
   10MOL   C34010078   0.828   4.623   1.227  0.3652  0.7258  0.1260
   10MOL   C34110079   0.932   4.528   1.242 -0.1180 -0.5876 -0.0089
   10MOL   C34210080   0.906   4.384   1.209  0.1855 -0.2204 -0.3462
   10MOL   C34310081   0.871   4.309   1.339  0.1286 -0.8215  0.4434
   10MOL   C34410082   0.792   4.360   1.117 -0.0431 -0.2884  0.6486
   10MOL   C34510083   1.034   4.322   1.147 -0.0927  0.1255  0.1685
   10MOL   C34610084   1.077   4.371   1.021 -0.1645  0.1467  0.2968
   10MOL   C34710085   1.197   4.321   0.963 -0.5068 -0.0961 -0.3570
   10MOL   C34810086   1.267   4.212   1.018  0.2664 -0.0714  0.4738
   10MOL   O34910087   1.367   4.137   0.961  0.2661 -0.1614 -0.3677
   10MOL   C35010088   1.225   4.171   1.150  0.2965 -0.4536 -0.0819
   10MOL   C35110089   1.112   4.221   1.210 -0.0342 -0.0394 -0.5273
   10MOL   C35210090   1.053   4.566   1.309  0.2550  0.0146  0.4935
   10MOL   C35310091   1.070   4.697   1.351 -0.0512  0.2918 -0.4246
   10MOL   C35410092   0.896   5.127   1.405 -0.6499  0.4410  0.6831
   10MOL   C35510093   0.847   5.253   1.353 -0.5936  0.3584 -0.0508
   10MOL   C35610094   0.524   5.440   1.215  0.4382  1.0879  0.0714
   10MOL   C35710095   0.412   5.473   1.290 -0.3824  0.6751 -0.0328
   10MOL   H35810096   0.551   5.607   1.565 -0.2483 -0.7905  0.1643
   10MOL   H35910097   0.762   5.559   1.423  0.5897 -0.1594 -0.2635
   10MOL   H36010098   0.906   5.204   1.020 -0.0520  0.6146  0.6532
   10MOL   H36110099   1.005   5.000   1.110  0.4389  0.8245 -0.5724
   10MOL   H36210100   0.785   4.836   1.247  0.9988  0.8495 -0.8950
   10MOL   H36310101   0.731   4.603   1.184  0.1004  2.7208 -0.2547
   10MOL   H36410102   0.852   4.203   1.323  1.1300 -1.2902  2.1175
   10MOL   H36510103   0.779   4.350   1.382  1.5089  2.3365  0.5610
   10MOL   H36610104   0.952   4.309   1.412  0.3340  1.3290  0.2497
   10MOL   H36710105   0.694   4.382   1.160 -0.0365 -1.1735  1.1231
   10MOL   H36810106   0.806   4.410   1.021  1.9019 -0.3552  0.8924
   10MOL   H36910107   0.786   4.255   1.090 -1.6199 -0.3286  1.1017
   10MOL   H37010108   1.011   4.446   0.981  0.9895  0.5656 -0.8731
   10MOL   H37110109   1.226   4.361   0.867  1.1082  1.9238  0.9385
   10MOL   H37210110   1.281   4.092   1.197  1.8513  0.3859 -0.4975
   10MOL   H37310111   1.084   4.176   1.304 -0.4834 -0.1916 -0.7321
   10MOL   H37410112   1.129   4.492   1.327 -0.6830 -0.6881  1.6070
   10MOL   H37510113   1.162   4.729   1.399  0.3831 -1.4535 -0.0583
   10MOL   H37610114   0.894   5.102   1.510  0.6090  2.0213  1.1033
   10MOL   H37710115   0.792   5.314   1.423 -0.3285 -1.2081  1.5700
   10MOL   H37810116   0.503   5.404   1.116  2.9726  0.6956 -0.3720
   10MOL   H37910117   0.318   5.441   1.246 -1.2333  1.8246  0.9276
   10MOL   C38010118   1.341   4.093   0.836 -0.5794  0.7041  0.3959
   10MOL   C38110119   1.255   3.982   0.819 -0.1486  0.6820 -0.6137
   10MOL   C38210120   1.234   3.931   0.690  0.6488 -0.4365 -0.6189
   10MOL   C38310121   1.296   3.997   0.578  0.4914 -0.0069  0.0395
   10MOL   S38410122   1.266   3.946   0.403  0.2295  0.2779  0.4239
   10MOL   O38510123   1.302   4.057   0.314 -0.0764 -0.1069 -0.2116
   10MOL   O38610124   1.138   3.887   0.395 -0.7134 -0.1407 -0.8029
   10MOL   C38710125   1.389   3.818   0.389  0.2695  0.6140 -0.0361
   10MOL   C38810126   1.518   3.827   0.449  0.1172 -0.1664 -0.2913
   10MOL   C38910127   1.603   3.719   0.428  0.3603 -0.0994 -0.2405
   10MOL   C39010128   1.579   3.613   0.336  0.2492  0.0162  0.2396
   10MOL   O39110129   1.662   3.510   0.309 -0.5113  0.3665  0.0214
   10MOL   C39210130   1.764   3.520   0.213  0.0479  0.1627 -0.1352
   10MOL   C39310131   1.746   3.563   0.080 -0.3895  0.5215 -0.0009
   10MOL   C39410132   1.840   3.557   8.231 -0.1127  0.4502  0.2525
   10MOL   C39510133   1.968   3.512   0.006 -0.0608  0.3775  0.5752
   10MOL   C39610134   2.079   3.506   8.150  0.0235  0.6058 -0.2429
   10MOL   C39710135   2.116   3.647   8.115  0.2266 -0.6228  0.6565
   10MOL   C39810136   2.220   3.451   8.201 -0.3280 -0.2650  0.4059
   10MOL   C39910137   2.041   3.416   8.033 -0.3742 -0.2184 -0.8872
   10MOL   C40010138   2.076   3.449   7.903 -0.0583 -0.4721 -0.1343
   10MOL   C40110139   2.042   3.361   7.796  0.4266 -0.6595 -0.7643
   10MOL   C40210140   1.982   3.238   7.821  0.6027  0.1564  0.2210
   10MOL   O40310141   1.944   3.153   7.720  0.3220  0.1181  0.1836
   10MOL   C40410142   1.940   3.211   7.957 -0.2377  0.1248  0.1429
   10MOL   C40510143   1.960   3.303   8.062  0.1961 -0.0988 -0.2634
   10MOL   C40610144   1.990   3.454   0.136  0.9706  0.1688 -0.3493
   10MOL   C40710145   1.894   3.470   0.244 -0.1690 -0.4278 -0.0241
   10MOL   C40810146   1.452   3.613   0.276 -0.9571 -0.2152  0.0774
   10MOL   C40910147   1.363   3.722   0.292  0.7909  0.1288  0.2174
   10MOL   C41010148   1.383   4.111   0.598  0.4893  0.1431 -0.4655
   10MOL   C41110149   1.398   4.161   0.730  0.2774  0.0085  0.6515
   10MOL   H41210150   1.202   3.927   0.895  2.4552  0.0673  0.8375
   10MOL   H41310151   1.165   3.848   0.682 -0.3758 -0.0639  3.3327
   10MOL   H41410152   1.536   3.898   0.528 -0.0036 -1.2162  0.6948
   10MOL   H41510153   1.697   3.721   0.483  0.8670 -3.1918 -0.8947
   10MOL   H41610154   1.650   3.598   0.045  0.3907  0.9487 -1.7103
   10MOL   H41710155   1.834   3.586   8.128  0.6624 -0.5683 -0.0841
   10MOL   H41810156   2.040   3.697   8.055 -1.8765 -2.7673  1.4225
   10MOL   H41910157   2.213   3.648   8.065 -0.7674 -2.7586 -1.4311
   10MOL   H42010158   2.111   3.711   8.203 -0.3118 -0.8456  0.7927
   10MOL   H42110159   2.235   3.512   0.037  0.7007 -1.6095  1.1641
   10MOL   H42210160   2.213   3.345   8.224 -0.9109 -0.0313  1.3438
   10MOL   H42310161   2.306   3.459   8.134  0.6152  2.0722  1.8076
   10MOL   H42410162   2.131   3.537   7.871  0.1526 -0.9297 -1.0363
   10MOL   H42510163   2.071   3.399   7.699  2.2377  0.8465  0.3082
   10MOL   H42610164   1.889   3.117   7.978 -0.2891 -0.3292 -1.9343
   10MOL   H42710165   1.936   3.270   8.162 -4.7327  0.9456 -0.9739
   10MOL   H42810166   2.078   3.395   0.158  0.2425  0.0720  2.4419
   10MOL   H42910167   1.925   3.424   0.336  0.5042  1.2865  0.6404
   10MOL   H43010168   1.420   3.537   0.206 -0.3050  0.4152 -0.9085
   10MOL   H43110169   1.277   3.732   0.227  0.5513 -3.6881 -0.2013
   10MOL   H43210170   1.426   4.159   0.512  0.6575  0.5798 -0.1383
   10MOL   H43310171   1.459   4.249   0.743 -0.4945  0.6389  0.1276
   10MOL   C43410172   2.034   3.051   7.687  0.6751  0.6653 -0.0690
   10MOL   C43510173   2.001   2.916   7.717 -0.3994 -0.3065 -0.0766
   10MOL   C43610174   2.091   2.813   7.691 -0.6218  0.5476 -0.7700
   10MOL   C43710175   2.215   2.846   7.630 -0.0136  0.1623  0.7339
   10MOL   S43810176   2.346   2.729   7.599  0.2104  0.2957 -0.1252
   10MOL   O43910177   2.294   2.604   7.648  0.2673  0.3882 -0.1408
   10MOL   O44010178   2.473   2.790   7.657  0.4506 -0.3000 -0.1629
   10MOL   C44110179   2.375   2.700   7.421 -0.3343 -0.2323  0.2641
   10MOL   C44210180   2.309   2.597   7.357  0.0560  0.0384 -0.0695
   10MOL   C44310181   2.343   2.567   7.220 -0.4383 -0.0172 -0.3886
   10MOL   C44410182   2.432   2.648   7.147 -0.0669 -0.0075 -0.3336
   10MOL   O44510183   2.464   2.621   7.020 -0.1828  0.5843  0.5164
   10MOL   C44610184   2.388   2.654   6.911  0.3304 -0.4309  0.1518
   10MOL   C44710185   2.427   2.751   6.817 -0.2500  0.0413 -0.0869
   10MOL   C44810186   2.351   2.758   6.700  1.1493  0.0421  0.3184
   10MOL   C44910187   2.236   2.685   6.680 -1.1371  0.3710  0.0887
   10MOL   C45010188   2.165   2.681   6.541 -0.1844 -0.0221 -0.1235
   10MOL   C45110189   2.260   2.727   6.436  0.6458 -0.4382 -0.0177
   10MOL   C45210190   2.135   2.533   6.504  0.5483  0.0280 -0.7029
   10MOL   C45310191   2.039   2.765   6.536  0.7129 -0.3168  0.0437
   10MOL   C45410192   1.923   2.727   6.475  0.8397 -0.1827  0.1928
   10MOL   C45510193   1.808   2.810   6.471  0.9767  0.2287 -0.4434
   10MOL   C45610194   1.813   2.934   6.533 -0.9591  0.3408  0.2924
   10MOL   O45710195   1.701   3.014   6.528  0.1518 -0.2294  0.1561
   10MOL   C45810196   1.932   2.972   6.602 -0.4568 -0.0040  0.0874
   10MOL   C45910197   2.043   2.891   6.592 -0.1260  0.0986  0.4121
   10MOL   C46010198   2.188   2.606   6.783  0.0009  0.2591  0.1681
   10MOL   C46110199   2.268   2.586   6.897  0.6986  0.1235 -0.2414
   10MOL   C46210200   2.507   2.746   7.217 -0.4149  0.3198  0.0658
   10MOL   C46310201   2.483   2.766   7.354  0.0805 -0.1340 -0.6062
   10MOL   C46410202   2.249   2.976   7.604 -0.2073 -0.0184  0.2345
   10MOL   C46510203   2.161   3.079   7.634  0.8399  0.6899  0.7832
   10MOL   H46610204   1.915   2.894   7.778  0.8481 -1.2242  1.3978
   10MOL   H46710205   2.075   2.710   7.718  1.5791  0.3253 -0.2153
   10MOL   H46810206   2.239   2.530   7.403  0.5143 -0.7100 -0.4538
   10MOL   H46910207   2.303   2.481   7.167 -0.6838  0.2453 -0.6311
   10MOL   H47010208   2.517   2.812   6.821  0.0642 -0.1018 -3.7354
   10MOL   H47110209   2.376   2.830   6.623 -0.8944  0.7100  0.2613
   10MOL   H47210210   2.272   2.835   6.448 -1.6597 -0.2362  0.6352
   10MOL   H47310211   2.214   2.720   6.337  2.3033 -0.8934 -0.7752
   10MOL   H47410212   2.349   2.664   6.432  1.8350  1.1483  0.9532
   10MOL   H47510213   2.060   2.489   6.569  1.1051 -0.2867 -0.2668
   10MOL   H47610214   2.089   2.530   6.405  0.4855 -0.7963 -0.6493
   10MOL   H47710215   2.217   2.461   6.498 -0.7274 -1.4141 -1.2798
   10MOL   H47810216   1.921   2.624   6.443  1.2857 -1.0546  2.8514
   10MOL   H47910217   1.716   2.786   6.421  1.0740  0.0556 -0.5373
   10MOL   H48010218   1.947   3.066   6.651 -3.1193 -0.0490  1.0940
   10MOL   H48110219   2.134   2.924   6.640 -1.1506  0.5233  2.1148
   10MOL   H48210220   2.093   2.556   6.773  0.5631 -1.4665  2.9297
   10MOL   H48310221   2.234   2.507   6.963 -4.4120  2.0108 -0.3722
   10MOL   H48410222   2.582   2.799   7.160 -0.0826 -1.1709 -0.9366
   10MOL   H48510223   2.528   2.847   7.410 -0.0400 -0.1564 -0.4776
   10MOL   H48610224   2.337   3.004   7.548  0.9269 -1.4521  1.2680
   10MOL   H48710225   2.194   3.180   7.614 -0.8986  1.0243 -0.4365
   10MOL   C48810226   1.651   3.069   6.414 -0.1637  0.2201 -0.3306
   10MOL   C48910227   1.714   3.050   6.288  0.2797 -0.0873 -0.0232
   10MOL   C49010228   1.651   3.087   6.168 -0.3552  0.2479  0.9724
   10MOL   C49110229   1.528   3.159   6.175 -0.1854  0.2921  0.0055
   10MOL   S49210230   1.458   3.213   6.023 -0.5826  0.0974 -0.1592
   10MOL   O49310231   1.315   3.239   6.047 -0.1015 -0.0045  0.1581
   10MOL   O49410232   1.492   3.112   5.921 -0.4590 -0.1435  0.0035
   10MOL   C49510233   1.529   3.365   5.973  0.1467  0.4595 -0.6383
   10MOL   C49610234   1.661   3.395   5.995 -0.5123  0.8185  0.1622
   10MOL   C49710235   1.713   3.518   5.975  0.4272 -0.2296  0.6703
   10MOL   C49810236   1.636   3.618   5.912  0.1415  0.0736  0.3969
   10MOL   O49910237   1.682   3.744   5.881  0.1979 -0.1243  0.1185
   10MOL   C50010238   1.813   3.760   5.847  0.0316  0.2322  0.2293
   10MOL   C50110239   1.859   3.767   5.713  0.2805 -0.3185  0.0646
   10MOL   C50210240   1.995   3.769   5.684 -0.2814 -0.3311 -0.9798
   10MOL   C50310241   2.093   3.778   5.782 -0.5721  0.2256  0.0118
   10MOL   C50410242   2.240   3.768   5.757 -0.2600  0.4653  0.3531
   10MOL   C50510243   2.275   3.744   5.608 -0.6605 -0.0462  0.1394
   10MOL   C50610244   2.299   3.911   5.805  0.0765 -0.2599  0.5604
   10MOL   C50710245   2.298   3.651   5.844 -0.3422  1.4050  0.5490
   10MOL   C50810246   2.225   3.525   5.849 -0.1182  1.2592 -0.7320
   10MOL   C50910247   2.277   3.408   5.914  0.1386  0.1274  0.2759
   10MOL   C51010248   2.401   3.415   5.971 -0.1656 -0.6488  0.5421
   10MOL   O51110249   2.453   3.305   6.028 -0.3259 -0.0114 -0.3352
   10MOL   C51210250   2.480   3.532   5.948 -0.3274 -0.1112 -1.1384
   10MOL   C51310251   2.429   3.648   5.891  0.7756 -0.3838  0.0511
   10MOL   C51410252   2.041   3.779   5.915 -0.2705  0.4869  0.2052
   10MOL   C51510253   1.904   3.772   5.949  0.2735 -0.7753 -0.0510
   10MOL   C51610254   1.506   3.590   5.881  0.1781 -0.0152 -0.1317
   10MOL   C51710255   1.445   3.466   5.919  0.3766 -0.4763  0.7141
   10MOL   C51810256   1.470   3.184   6.302  0.3713 -0.5282  0.4332
   10MOL   C51910257   1.531   3.134   6.421  0.0737  1.2227  0.6402
   10MOL   H52010258   1.809   3.000   6.277 -0.1868 -1.0513  0.2884
   10MOL   H52110259   1.689   3.068   6.069 -1.0475 -1.3125  0.9800
   10MOL   H52210260   1.736   3.327   6.033 -0.0295  0.8597 -0.7045
   10MOL   H52310261   1.814   3.544   6.000  1.0226 -2.1146  0.3681
   10MOL   H52410262   1.794   3.755   5.628  1.4156  0.1783 -0.8913
   10MOL   H52510263   2.019   3.754   5.579 -0.1003 -0.6993 -0.8875
   10MOL   H52610264   2.382   3.737   5.587 -0.8183  1.5714 -1.3082
   10MOL   H52710265   2.233   3.823   5.546 -0.1366  0.2563  0.1633
   10MOL   H52810266   2.227   3.652   5.574 -1.1592 -0.6359  2.3528
   10MOL   H52910267   2.407   3.913   5.787 -0.4273  0.5496 -2.5037
   10MOL   H53010268   2.247   3.989   5.751 -0.6654 -0.8807  0.3780
   10MOL   H53110269   2.284   3.921   5.913 -1.4007  3.5819  0.0849
   10MOL   H53210270   2.126   3.514   5.809 -0.0356 -1.3127 -0.2981
   10MOL   H53310271   2.234   3.310   5.927  2.4236 -0.9082  0.2562
   10MOL   H53410272   2.586   3.523   5.968 -0.2079  0.5270 -1.4538
   10MOL   H53510273   2.491   3.737   5.893 -0.4842  0.5056  0.5150
   10MOL   H53610274   2.110   3.799   5.996  1.8652 -0.4240 -1.3262
   10MOL   H53710275   1.878   3.768   6.054 -0.5214 -1.0510 -0.2544
   10MOL   H53810276   1.444   3.660   5.828 -0.5476  0.2152  1.0092
   10MOL   H53910277   1.341   3.451   5.893  1.2168 -0.5278 -2.9413
   10MOL   H54010278   1.369   3.223   6.301  0.7194  0.4628  1.5767
   10MOL   H54110279   1.482   3.148   6.517 -0.5313  1.2880  0.3264
   10MOL   C54210280   2.427   3.287   6.161 -0.0555 -0.2722 -0.0997
   10MOL   C54310281   2.463   3.161   6.211 -0.7853  0.0236  0.1836
   10MOL   C54410282   2.449   3.139   6.344  0.3814 -0.2558  0.5758
   10MOL   C54510283   2.406   3.241   6.433  0.4308 -0.1277 -0.0930
   10MOL   S54610284   2.388   3.200   6.608 -0.2026 -0.0439 -0.2930
   10MOL   O54710285   2.307   3.076   6.617  0.0570  0.3510  1.0394
   10MOL   O54810286   2.339   3.318   6.681  0.2351  0.0956 -0.0586
   10MOL   C54910287   2.553   3.169   6.680 -0.3104 -0.0677  0.9378
   10MOL   C55010288   2.665   3.229   6.610  0.3632 -0.7306 -0.3603
   10MOL   C55110289   2.795   3.217   6.655 -0.0417  0.2230  0.8738
   10MOL   C55210290   2.819   3.144   6.772  0.6466  0.3814  0.4061
   10MOL   O55310291   2.948   3.127   6.823 -0.1448 -0.2573  0.0780
   10MOL   C55410292   3.031   3.236   6.858  0.4283 -0.0802 -0.3152
   10MOL   C55510293   3.159   3.206   6.886 -0.0713 -0.2427 -0.5159
   10MOL   C55610294   3.243   3.309   6.938 -0.4076  0.7470 -0.7126
   10MOL   C55710295   3.194   3.439   6.947 -0.1350 -0.6699  0.0101
   10MOL   C55810296   3.292   3.550   6.992  0.0228 -0.0620  0.7709
   10MOL   C55910297   3.426   3.542   6.909  0.1973 -0.2608 -0.4274
   10MOL   C56010298   3.228   3.690   6.962 -0.3213  0.7588 -0.2703
   10MOL   C56110299   3.326   3.538   7.142  0.2327 -1.2317  0.2059
   10MOL   C56210300   3.459   3.524   7.192  0.4067  0.1974  0.4227
   10MOL   C56310301   3.493   3.532   7.329 -0.2684  1.1678  0.1871
   10MOL   C56410302   3.390   3.531   7.416 -0.2847 -0.0934  0.6873
   10MOL   O56510303   3.419   3.534   7.546 -0.1237  0.1143  0.0096
   10MOL   C56610304   3.260   3.544   7.378 -0.0665  1.0258 -0.3767
   10MOL   C56710305   3.221   3.541   7.241  0.4013 -0.5215 -0.3261
   10MOL   C56810306   3.058   3.466   6.917 -1.0575  0.4502 -0.3716
   10MOL   C56910307   2.973   3.365   6.871  0.3110 -0.4914  0.0351
   10MOL   C57010308   2.711   3.065   6.831  0.9312  0.0740  0.0247
   10MOL   C57110309   2.580   3.085   6.789 -0.5697  0.4428  0.3559
   10MOL   C57210310   2.369   3.369   6.389 -0.4157 -0.4911 -0.1684
   10MOL   C57310311   2.382   3.393   6.252  0.6632 -0.1647  0.9545
   10MOL   H57410312   2.501   3.077   6.155 -1.8012  0.7720 -1.6397
   10MOL   H57510313   2.472   3.043   6.389 -0.7068  0.1458  2.0273
   10MOL   H57610314   2.652   3.290   6.522 -2.0619 -1.5932 -0.6376
   10MOL   H57710315   2.885   3.262   6.614  0.0411  1.0349  1.9343
   10MOL   H57810316   3.197   3.106   6.873  2.4114  0.5665  0.3401
   10MOL   H57910317   3.342   3.281   6.971  0.3906  3.9618 -0.2083
   10MOL   H58010318   3.490   3.629   6.923 -0.0382 -0.3865  1.5414
   10MOL   H58110319   3.400   3.540   6.803  1.4489 -1.1766 -0.7316
   10MOL   H58210320   3.487   3.453   6.923  0.3788 -0.1543 -0.5442
   10MOL   H58310321   3.147   3.728   7.024 -0.7615  1.6023 -1.3411
   10MOL   H58410322   3.310   3.761   6.971  1.8327 -1.7199  0.5081
   10MOL   H58510323   3.194   3.698   6.859 -0.7432  2.1307 -0.0302
   10MOL   H58610324   3.538   3.512   7.120  0.0215  0.3708 -0.0296
   10MOL   H58710325   3.596   3.525   7.361  0.4633 -0.2237 -2.3078
   10MOL   H58810326   3.178   3.569   7.443 -0.7018 -0.6452 -0.5355
   10MOL   H58910327   3.116   3.530   7.220  0.0873  1.5787  0.0502
   10MOL   H59010328   3.022   3.566   6.936 -2.4228  0.1638 -1.3593
   10MOL   H59110329   2.873   3.399   6.848 -0.3172 -1.1325  1.8178
   10MOL   H59210330   2.738   2.998   6.911 -0.4684  0.4841  0.8446
   10MOL   H59310331   2.499   3.036   6.841 -1.8323  1.4380 -0.6218
   10MOL   H59410332   2.340   3.456   6.446  2.4062  0.9240 -0.7729
   10MOL   H59510333   2.372   3.494   6.216 -2.4193 -1.1721 -1.2463
   10MOL   C59610334   3.402   3.415   7.613 -0.3476  0.0523  1.0367
   10MOL   C59710335   3.449   3.288   7.580 -0.3213  0.1796  0.4473
   10MOL   C59810336   3.417   3.178   7.662 -0.2426  0.0689  0.3205
   10MOL   C59910337   3.360   3.193   7.789 -0.7795 -0.0678 -0.1145
   10MOL   S60010338   3.351   3.058   7.894 -0.2801  0.3987 -0.4261
   10MOL   O60110339   3.375   3.103   8.034 -0.1783 -0.0550  0.2141
   10MOL   O60210340   3.444   2.959   7.848  0.0556 -1.2201 -0.1625
   10MOL   C60310341   3.187   2.982   7.891 -0.1337 -0.4801 -0.2324
   10MOL   C60410342   3.076   3.055   7.859 -0.3378  0.0890 -0.0457
   10MOL   C60510343   2.943   3.001   7.876  0.4988 -0.9967  0.3348
   10MOL   C60610344   2.926   2.868   7.921 -0.9941  0.6134 -0.1137
   10MOL   O60710345   2.799   2.810   7.929 -0.4604 -0.0053 -0.3026
   10MOL   C60810346   2.785   2.715   7.836  0.2206  0.3769 -0.1859
   10MOL   C60910347   2.782   2.756   7.702  0.0059 -0.1629 -0.0450
   10MOL   C61010348   2.771   2.660   7.594 -0.0198 -0.2880  0.3096
   10MOL   C61110349   2.770   2.522   7.629  0.0626  0.2273  0.1168
   10MOL   C61210350   2.747   2.414   7.523  0.0883  0.6001 -0.4315
   10MOL   C61310351   2.594   2.382   7.538 -0.2435  0.3142 -0.0396
   10MOL   C61410352   2.765   2.467   7.383 -0.3946 -0.5492 -0.4134
   10MOL   C61510353   2.834   2.290   7.548 -0.2780 -0.5392 -0.5500
   10MOL   C61610354   2.964   2.280   7.493  0.0793  0.5688 -0.3931
   10MOL   C61710355   3.043   2.173   7.523 -0.6535  0.1957  0.5252
   10MOL   C61810356   3.002   2.072   7.616  0.0395  0.3548 -0.1367
   10MOL   O61910357   3.080   1.964   7.648 -0.0300 -0.6110 -1.2828
   10MOL   C62010358   2.877   2.087   7.674  0.0030 -0.0028  1.1914
   10MOL   C62110359   2.797   2.195   7.644  0.6630 -0.2406 -0.2708
   10MOL   C62210360   2.773   2.489   7.770  0.0722  0.4665  0.1024
   10MOL   C62310361   2.777   2.581   7.875 -0.1445 -0.0738  0.4732
   10MOL   C62410362   3.041   2.790   7.951 -0.3367  0.2499  0.2570
   10MOL   C62510363   3.172   2.849   7.939 -0.6583 -0.7963  0.5310
   10MOL   C62610364   3.317   3.320   7.827 -0.2333 -0.2446 -0.4632
   10MOL   C62710365   3.332   3.426   7.740  0.0637 -0.6971 -0.2836
   10MOL   H62810366   3.505   3.264   7.491 -0.6456  1.5770 -0.1436
   10MOL   H62910367   3.445   3.077   7.633 -0.5557 -0.4011  1.6344
   10MOL   H63010368   3.090   3.160   7.837 -4.1788  0.5125 -0.8982
   10MOL   H63110369   2.856   3.061   7.855 -0.1610 -1.9842  0.2102
   10MOL   H63210370   2.791   2.862   7.681 -0.4769 -0.2660 -0.7947
   10MOL   H63310371   2.759   2.705   7.497  0.2793 -0.4462  0.1991
   10MOL   H63410372   2.567   2.367   7.642  0.4701  0.6603  0.1965
   10MOL   H63510373   2.558   2.291   7.491 -0.4449 -1.2943  3.1292
   10MOL   H63610374   2.523   2.459   7.509 -1.5537 -0.7090  0.4333
   10MOL   H63710375   2.691   2.543   7.359  0.2866  0.1203 -0.4473
   10MOL   H63810376   2.862   2.517   7.377 -0.3112 -0.6544  0.0240
   10MOL   H63910377   2.738   2.387   7.315 -1.4121 -1.3123  0.8573
   10MOL   H64010378   3.003   2.346   7.417  0.0397  0.5291 -0.4483
   10MOL   H64110379   3.134   2.152   7.469 -0.5933  0.9805  0.3075
   10MOL   H64210380   2.849   2.020   7.754 -3.0438  0.6869  0.7497
   10MOL   H64310381   2.706   2.200   7.702  1.6139  3.0234  1.0630
   10MOL   H64410382   2.742   2.390   7.801 -0.4694  1.1154  1.7218
   10MOL   H64510383   2.788   2.559   7.980  0.6560  0.9953  0.6150
   10MOL   H64610384   3.041   2.686   7.982  0.5365 -1.1359 -4.0001
   10MOL   H64710385   3.255   2.789   7.976 -0.4794  0.1037  1.6142
   10MOL   H64810386   3.274   3.334   7.925  0.1949  0.0614 -0.3185
   10MOL   H64910387   3.295   3.521   7.778  1.5901 -0.5652  0.9046
   10MOL   C65010388   3.220   1.982   7.657  0.1322  0.3289  0.6379
   10MOL   C65110389   3.275   2.060   7.757 -0.1614 -0.1026  0.1658
   10MOL   C65210390   3.415   2.073   7.773  0.1698  0.4341 -0.4379
   10MOL   C65310391   3.498   2.007   7.684  0.7978  0.1829  0.1447
   10MOL   S65410392   3.683   2.020   7.708 -0.0813  0.5263 -0.2144
   10MOL   O65510393   3.740   1.898   7.653 -0.4672 -0.0404 -0.8307
   10MOL   O65610394   3.714   2.068   7.841 -0.0650 -1.0388  0.1990
   10MOL   C65710395   3.707   2.148   7.583 -0.1240  0.3812 -0.2284
   10MOL   C65810396   3.717   2.109   7.447  0.3262  0.2047 -0.7119
   10MOL   C65910397   3.730   2.211   7.350 -0.1800 -0.4081  0.2561
   10MOL   C66010398   3.743   2.347   7.393  0.2633  0.2416  0.3368
   10MOL   O66110399   3.764   2.439   7.292 -0.1058  0.4478 -0.4445
   10MOL   C66210400   3.690   2.552   7.283 -0.3239  0.5313  0.3876
   10MOL   C66310401   3.774   2.665   7.282 -0.3785  0.3942  0.5448
   10MOL   C66410402   3.712   2.791   7.268 -0.1903  0.6908  0.0585
   10MOL   C66510403   3.572   2.803   7.249  0.3771  0.8151 -0.9466
   10MOL   C66610404   3.512   2.945   7.228  0.4950 -0.9365 -0.2757
   10MOL   C66710405   3.494   2.951   7.081 -0.5803  0.1798  0.7358
   10MOL   C66810406   3.379   2.964   7.300 -0.0198 -0.2962  0.2534
   10MOL   C66910407   3.612   3.052   7.288 -0.2376  0.1914 -0.3331
   10MOL   C67010408   3.657   3.162   7.214  0.4170 -0.2855 -0.0532
   10MOL   C67110409   3.745   3.257   7.274 -0.7018  0.0493  0.8635
   10MOL   C67210410   3.803   3.234   7.401  0.5760  0.2813  0.0907
   10MOL   O67310411   3.890   3.323   7.451  0.2471 -0.2367 -0.0356
   10MOL   C67410412   3.754   3.123   7.473  1.0920 -0.2991 -0.3847
   10MOL   C67510413   3.657   3.038   7.422  0.9035 -0.2954  0.3391
   10MOL   C67610414   3.488   2.688   7.248  0.0086  0.1115  0.4754
   10MOL   C67710415   3.548   2.561   7.258 -0.1812  0.1492 -0.8242
   10MOL   C67810416   3.748   2.386   7.527  0.4754 -0.2871  0.3864
   10MOL   C67910417   3.718   2.282   7.623  0.0464  0.4476 -0.4512
   10MOL   C68010418   3.443   1.930   7.579  0.4837 -0.4780  0.3506
   10MOL   C68110419   3.305   1.920   7.562  0.3799 -0.2450 -0.0038
   10MOL   H68210420   3.219   2.117   7.830  2.5339  1.1719  1.2834
   10MOL   H68310421   3.450   2.140   7.850  1.9384 -1.0554  0.0885
   10MOL   H68410422   3.708   2.002   7.429  0.9263 -0.1864  1.2123
   10MOL   H68510423   3.766   2.188   7.250  1.5521 -0.0728  0.7885
   10MOL   H68610424   3.880   2.657   7.302 -0.2105 -4.7841 -1.6216
   10MOL   H68710425   3.786   2.869   7.280 -0.5866  0.9429  0.9410
   10MOL   H68810426   3.430   3.037   7.060 -0.0766  1.0408  2.6576
   10MOL   H68910427   3.454   2.858   7.039  0.0739  0.0498  0.3943
   10MOL   H69010428   3.593   2.952   7.036 -0.6839 -1.3051  0.4301
   10MOL   H69110429   3.300   2.900   7.262  0.3246 -0.2906 -0.4776
   10MOL   H69210430   3.396   2.964   7.408  1.6318 -1.8954  0.0276
   10MOL   H69310431   3.328   3.060   7.296 -0.1652 -0.2003  3.1455
   10MOL   H69410432   3.638   3.178   7.109 -0.8384 -0.2780  0.1688
   10MOL   H69510433   3.774   3.337   7.207 -0.2022  0.6015  1.7152
   10MOL   H69610434   3.791   3.109   7.573 -0.7736 -1.5408  0.1448
   10MOL   H69710435   3.615   2.958   7.481  0.0346 -1.4248 -1.7634
   10MOL   H69810436   3.380   2.685   7.240 -0.0447  1.0395  0.7750
   10MOL   H69910437   3.484   2.474   7.259 -0.8865  0.6066 -3.0886
   10MOL   H70010438   3.773   2.485   7.562  1.6094 -0.9356  1.4519
   10MOL   H70110439   3.717   2.304   7.729 -0.5961 -0.2745 -0.3078
   10MOL   H70210440   3.509   1.868   7.520  0.3986 -0.6931  0.4815
   10MOL   H70310441   3.263   1.860   7.482 -1.8193 -0.5615  1.3354
   10MOL   C70410442   3.848   3.440   7.507  0.0689 -0.1317  0.7710
   10MOL   C70510443   3.747   3.441   7.610  0.4986 -0.5689  0.3138
   10MOL   C70610444   3.717   3.560   7.683 -0.6506 -0.4176 -0.5093
   10MOL   C70710445   3.782   3.676   7.644 -0.5737  0.6910  0.1630
   10MOL   S70810446   3.739   3.841   7.715  0.0181 -0.2028  0.1464
   10MOL   O70910447   3.862   3.921   7.713 -0.2863 -0.5538 -0.1794
   10MOL   O71010448   3.659   3.822   7.834 -0.3353  0.1518 -0.4599
   10MOL   C71110449   3.629   3.916   7.586  0.9256 -0.1617 -0.0343
   10MOL   C71210450   3.495   3.875   7.565  0.0695  0.0892  0.7737
   10MOL   C71310451   3.412   3.933   7.468  0.0048 -0.5067 -0.4506
   10MOL   C71410452   3.471   4.029   7.387  1.5178  0.2116 -1.0894
   10MOL   O71510453   3.393   4.086   7.294  0.4959 -0.7204  0.3967
   10MOL   C71610454   3.429   4.090   7.157  0.6396  0.0829 -0.3432
   10MOL   C71710455   3.442   4.214   7.088  0.4276 -0.6263 -0.3088
   10MOL   C71810456   3.503   4.228   6.963  0.0942 -0.0458 -0.0584
   10MOL   C71910457   3.532   4.107   6.890 -0.1648  0.0345  1.1452
   10MOL   C72010458   3.581   4.105   6.737 -0.7621 -0.6396 -0.7620
   10MOL   C72110459   3.555   4.233   6.662  0.2741 -0.2948 -0.2630
   10MOL   C72210460   3.731   4.091   6.738  0.0677  0.1993  0.1239
   10MOL   C72310461   3.507   3.993   6.661  0.2719 -0.2832  0.7021
   10MOL   C72410462   3.569   3.916   6.562  0.2752  0.2164 -0.4310
   10MOL   C72510463   3.498   3.813   6.505  0.2207 -0.3777  0.3933
   10MOL   C72610464   3.367   3.782   6.547  0.2084  0.4747 -0.1417
   10MOL   O72710465   3.312   3.667   6.491 -0.2791  0.0519 -0.1620
   10MOL   C72810466   3.293   3.875   6.621 -0.1080 -0.5321 -0.6960
   10MOL   C72910467   3.371   3.975   6.685  0.2486 -0.8381 -0.5495
   10MOL   C73010468   3.522   3.979   6.953  0.3730  0.3521  0.2134
   10MOL   C73110469   3.465   3.970   7.085 -1.0759  0.5130 -0.7046
   10MOL   C73210470   3.601   4.074   7.411 -0.5448 -0.7814  0.7745
   10MOL   C73310471   3.681   4.021   7.508 -0.3404  1.4538  0.2334
   10MOL   C73410472   3.882   3.671   7.538 -0.3898  0.1731 -0.3892
   10MOL   C73510473   3.923   3.553   7.473 -0.2636 -0.2467 -0.7357
   10MOL   H73610474   3.709   3.346   7.645  0.5331 -0.2386  1.2676
   10MOL   H73710475   3.641   3.561   7.760 -0.5878 -1.4968 -0.4272
   10MOL   H73810476   3.466   3.802   7.639  0.8557 -0.3359  0.6682
   10MOL   H73910477   3.317   3.886   7.445 -0.5249  0.0326  0.5856
   10MOL   H74010478   3.419   4.307   7.138  2.6545  0.9135 -2.0679
   10MOL   H74110479   3.518   4.326   6.919  2.1660  1.1568  3.0942
   10MOL   H74210480   3.450   4.255   6.646 -0.2059 -2.3842 -0.0650
   10MOL   H74310481   3.584   4.234   6.557  0.0262 -1.2336 -0.3404
   10MOL   H74410482   3.598   4.322   6.709 -0.9750 -0.5068  1.3183
   10MOL   H74510483   3.755   3.992   6.775 -1.9442 -0.7036 -0.8878
   10MOL   H74610484   3.776   4.102   6.640  2.0878 -0.5060  0.9435
   10MOL   H74710485   3.775   4.154   6.816 -0.5574  0.0773  0.5836
   10MOL   H74810486   3.673   3.918   6.534 -0.5042 -0.2793 -3.5507
   10MOL   H74910487   3.546   3.750   6.431 -0.3571 -1.2308  0.7372
   10MOL   H75010488   3.186   3.870   6.632 -0.1061  2.5227  1.5093
   10MOL   H75110489   3.325   4.055   6.742  1.7047  0.1024 -0.6829
   10MOL   H75210490   3.549   3.890   6.896 -0.3223 -0.5657  1.3011
   10MOL   H75310491   3.470   3.874   7.133 -0.1797  1.7852  1.8243
   10MOL   H75410492   3.644   4.156   7.355 -2.7651 -0.0884  0.0589
   10MOL   H75510493   3.780   4.061   7.526 -0.0265  0.4889  0.7074
   10MOL   H75610494   3.946   3.757   7.529  0.9009 -0.9408 -2.2102
   10MOL   H75710495   3.996   3.558   7.394 -1.0894  2.3054 -1.3671
   10MOL   C75810496   3.341   3.539   6.528  0.1675 -0.5660  0.4896
   10MOL   C75910497   3.238   3.451   6.551 -0.1040  0.0495 -0.1148
   10MOL   C76010498   3.267   3.316   6.593  0.1712 -0.5530 -0.0221
   10MOL   C76110499   3.397   3.273   6.593 -0.2922 -0.0123  0.5521
   10MOL   S76210500   3.435   3.097   6.615 -0.5330 -0.4390 -0.1923
   10MOL   O76310501   3.318   3.030   6.671 -0.1543  0.0603  0.0280
   10MOL   O76410502   3.566   3.093   6.685  0.3546  0.3530  0.7081
   10MOL   C76510503   3.462   3.037   6.451 -0.4891 -0.8541 -0.4715
   10MOL   C76610504   3.570   2.945   6.428 -0.0134 -0.4745  0.2756
   10MOL   C76710505   3.599   2.897   6.303  0.3796 -0.2700  0.4068
   10MOL   C76810506   3.510   2.937   6.202 -0.4554 -0.0984  0.0932
   10MOL   O76910507   3.541   2.889   6.072  0.0449 -0.0082 -0.3171
   10MOL   C77010508   3.578   2.991   5.986 -0.1110  0.1662  0.3006
   10MOL   C77110509   3.482   3.057   5.911  0.1300 -0.2069 -0.1927
   10MOL   C77210510   3.522   3.147   5.811 -0.7549 -0.1483  0.4604
   10MOL   C77310511   3.657   3.172   5.782 -0.5094 -0.8711  0.3126
   10MOL   C77410512   3.710   3.271   5.680  0.9428 -0.2706 -0.3572
   10MOL   C77510513   3.587   3.355   5.622  0.5281 -0.0420 -0.4112
   10MOL   C77610514   3.815   3.364   5.740 -0.0974 -0.2226 -0.1697
   10MOL   C77710515   3.769   3.190   5.560 -0.5124  0.1701  0.6021
   10MOL   C77810516   3.735   3.052   5.533  0.5620  0.0108 -0.2620
   10MOL   C77910517   3.773   2.999   5.407  1.0337 -0.0466 -0.1902
   10MOL   C78010518   3.851   3.061   5.312  0.5395 -0.1378 -0.3171
   10MOL   O78110519   3.890   3.008   5.196 -1.1835 -0.0040 -0.0232
   10MOL   C78210520   3.887   3.191   5.345  0.0355  0.1238  0.2047
   10MOL   C78310521   3.851   3.254   5.465  0.3308  0.4358 -0.5317
   10MOL   C78410522   3.755   3.100   5.860 -0.2352  0.6675 -0.7863
   10MOL   C78510523   3.710   3.010   5.960 -0.0476 -0.4340 -0.0775
   10MOL   C78610524   3.396   3.016   6.230 -0.2445 -0.5616  0.6706
   10MOL   C78710525   3.373   3.066   6.349 -0.1653  0.2675  0.4416
   10MOL   C78810526   3.499   3.358   6.577 -0.3554 -0.0736  0.0271
   10MOL   C78910527   3.475   3.489   6.537 -0.2062 -0.2760 -0.1700
   10MOL   H79010528   3.131   3.469   6.543 -0.3061 -0.7642  0.8060
   10MOL   H79110529   3.195   3.239   6.616  1.6878 -1.9856  0.0115
   10MOL   H79210530   3.639   2.919   6.506  0.9690 -1.2224 -0.8211
   10MOL   H79310531   3.685   2.841   6.271  1.0356  0.6064  0.5927
   10MOL   H79410532   3.378   3.040   5.932  0.6236  0.6340  3.2293
   10MOL   H79510533   3.444   3.206   5.765  1.0404  0.7726 -1.5195
   10MOL   H79610534   3.536   3.415   5.697 -1.1658  0.7123 -2.1080
   10MOL   H79710535   3.515   3.294   5.568  0.8248 -0.8536  0.1161
   10MOL   H79810536   3.628   3.426   5.550  0.8177 -2.1429 -2.3647
   10MOL   H79910537   3.910   3.318   5.766 -0.0759  0.4349  0.9505
   10MOL   H80010538   3.851   3.446   5.679 -0.8464 -0.5804 -1.1054
   10MOL   H80110539   3.778   3.423   5.824  0.7972 -0.4617  0.3964
   10MOL   H80210540   3.681   2.993   5.605  3.0662 -0.9645  0.8525
   10MOL   H80310541   3.751   2.895   5.390  0.6934 -0.2423  1.3926
   10MOL   H80410542   3.946   3.242   5.270  0.3020 -1.7389 -0.8796
   10MOL   H80510543   3.896   3.351   5.476 -0.6208  0.9766 -1.2894
   10MOL   H80610544   3.860   3.120   5.840 -0.6442  1.0513 -2.6377
   10MOL   H80710545   3.783   2.960   6.022 -1.3943 -0.3197  1.6491
   10MOL   H80810546   3.328   3.043   6.150  0.3752  0.2711  0.4248
   10MOL   H80910547   3.286   3.129   6.361 -0.7776  0.0046 -2.4424
   10MOL   H81010548   3.603   3.331   6.588  0.0391  0.3242 -2.5694
   10MOL   H81110549   3.560   3.548   6.507 -0.1603 -1.7201 -3.0508
   10MOL   C81210550   4.023   2.989   5.179  0.2855 -0.1229 -0.6045
   10MOL   C81310551   4.079   2.999   5.047 -0.3534  0.3436  0.0916
   10MOL   C81410552   4.211   2.962   5.027  0.9683 -0.1408 -0.2085
   10MOL   C81510553   4.294   2.920   5.134 -0.2109 -0.0536  0.0236
   10MOL   S81610554   4.475   2.905   5.099  0.5193 -0.0192  0.0938
   10MOL   O81710555   4.504   2.782   5.026 -0.1256  0.0188  0.7206
   10MOL   O81810556   4.538   2.921   5.231  0.5500  0.2610 -0.0576
   10MOL   C81910557   4.526   3.041   4.995 -0.5947  0.1370 -0.3078
   10MOL   C82010558   4.594   3.019   4.871  0.0953  0.1414  0.1637
   10MOL   C82110559   4.655   3.131   4.808  0.5281  0.8276 -0.2236
   10MOL   C82210560   4.645   3.259   4.855  0.0844 -0.2799 -0.1752
   10MOL   O82310561   4.699   3.363   4.788  0.0114 -0.1451 -0.6883
   10MOL   C82410562   4.837   3.376   4.794  1.0020 -0.3055 -0.1775
   10MOL   C82510563   4.916   3.319   4.693  0.5470  0.1014 -0.2207
   10MOL   C82610564   5.059   3.324   4.707 -0.2631 -0.1493  0.3417
   10MOL   C82710565   5.125   3.380   4.819  0.9661  0.2618 -0.1350
   10MOL   C82810566   5.278   3.376   4.831 -0.1207 -0.0496 -0.4496
   10MOL   C82910567   5.327   3.473   4.720 -0.3090 -0.0662  0.5405
   10MOL   C83010568   5.330   3.440   4.962  0.7288 -0.3659 -0.5993
   10MOL   C83110569   5.330   3.230   4.813  0.1179 -0.4585  0.4884
   10MOL   C83210570   5.387   3.188   4.688  0.4190  0.4090  0.2182
   10MOL   C83310571   5.404   3.045   4.663  0.4901 -0.1522  0.1645
   10MOL   C83410572   5.370   2.955   4.767  0.4250 -0.0774 -0.3307
   10MOL   O83510573   5.381   2.819   4.743 -0.2435 -0.6192 -0.9245
   10MOL   C83610574   5.321   2.998   4.890 -0.3271  0.5657 -0.2266
   10MOL   C83710575   5.303   3.133   4.912 -0.0715 -0.2188 -0.0545
   10MOL   C83810576   5.045   3.443   4.912  0.7506 -0.7568  0.4671
   10MOL   C83910577   4.902   3.432   4.907 -0.5566  0.8364 -0.1598
   10MOL   C84010578   4.581   3.286   4.974  0.5220  0.0635 -0.4266
   10MOL   C84110579   4.525   3.173   5.043  0.0649 -0.2479  0.5067
   10MOL   C84210580   4.237   2.896   5.259 -0.1675  0.0070 -0.2935
   10MOL   C84310581   4.103   2.932   5.282  0.2524 -0.3625  0.4567
   10MOL   H84410582   4.020   3.031   4.962 -0.7720  1.2183  0.6993
   10MOL   H84510583   4.256   2.974   4.929  0.5106  0.2083 -0.3795
   10MOL   H84610584   4.597   2.923   4.821  0.1413 -1.2543  2.7766
   10MOL   H84710585   4.705   3.116   4.713 -1.4357  0.9577 -1.3056
   10MOL   H84810586   4.874   3.265   4.609 -1.0944 -0.0486  0.6629
   10MOL   H84910587   5.124   3.271   4.638  0.9815 -0.5973  1.8155
   10MOL   H85010588   5.281   3.569   4.743  0.4637  0.4107  0.1020
   10MOL   H85110589   5.291   3.444   4.622 -3.3768  0.1846  1.5438
   10MOL   H85210590   5.435   3.466   4.730 -0.3882 -2.6545  0.0836
   10MOL   H85310591   5.292   3.541   4.977 -0.2796 -1.0828  2.0697
   10MOL   H85410592   5.287   3.388   5.048  1.6882 -0.2130 -0.0122
   10MOL   H85510593   5.439   3.441   4.961  0.7107  0.0931 -2.8498
   10MOL   H85610594   5.404   3.256   4.606 -0.3737  0.3607  0.0050
   10MOL   H85710595   5.443   3.013   4.567 -0.3223  1.5185 -0.7301
   10MOL   H85810596   5.270   2.932   4.957  0.7748 -1.7379 -1.5810
   10MOL   H85910597   5.252   3.166   5.002 -0.2379  0.6968 -0.4729
   10MOL   H86010598   5.089   3.502   4.991 -1.1634  1.0715  0.2036
   10MOL   H86110599   4.846   3.490   4.979 -0.1762  0.1203  0.7164
   10MOL   H86210600   4.570   3.389   5.006 -1.2885  0.1174 -1.1831
   10MOL   H86310601   4.478   3.190   5.139  1.8621  0.5574  1.2552
   10MOL   H86410602   4.299   2.849   5.335 -2.3624 -2.8323 -0.1894
   10MOL   H86510603   4.055   2.903   5.375 -0.6939 -1.0026 -0.2206
   10MOL   C86610604   5.478   2.755   4.809  0.4740  0.3723  0.2281
   10MOL   C86710605   5.466   2.698   4.938  0.3161  0.4315 -0.5475
   10MOL   C86810606   5.578   2.649   5.008 -0.3012  0.4584  0.2174
   10MOL   C86910607   5.704   2.657   4.947  0.3076  0.5858 -0.5360
   10MOL   S87010608   5.839   2.574   5.022  0.0029  0.0451 -0.5437
   10MOL   O87110609   5.848   2.616   5.163 -0.0873 -0.1591  0.0093
   10MOL   O87210610   5.953   2.595   4.936  0.2226 -0.3503 -0.0813
   10MOL   C87310611   5.807   2.399   5.014  0.4597 -0.2726 -0.0222
   10MOL   C87410612   5.690   2.350   4.948  0.1271 -0.6232 -1.0921
   10MOL   C87510613   5.667   2.209   4.946  0.0172  0.0285 -0.3539
   10MOL   C87610614   5.752   2.123   5.017  0.2336 -0.6812  0.3594
   10MOL   O87710615   5.730   1.986   5.011 -0.0207  0.0112  0.4769
   10MOL   C87810616   5.688   1.919   5.125 -0.2931 -0.6137 -0.5094
   10MOL   C87910617   5.759   1.804   5.162 -0.3194  0.0779 -0.1856
   10MOL   C88010618   5.704   1.727   5.269  0.1197 -0.1588 -0.3401
   10MOL   C88110619   5.594   1.771   5.351  0.9562  0.2161  0.1274
   10MOL   C88210620   5.548   1.678   5.468  0.6982 -0.0543 -0.2583
   10MOL   C88310621   5.577   1.524   5.442  0.0451  0.0831  0.3215
   10MOL   C88410622   5.612   1.722   5.603 -0.3518  0.2201  0.6804
   10MOL   C88510623   5.393   1.687   5.470  0.1245 -0.3458 -0.5127
   10MOL   C88610624   5.310   1.633   5.364  0.7624  0.6301  0.5116
   10MOL   C88710625   5.173   1.652   5.362  0.4342 -0.2536 -0.2479
   10MOL   C88810626   5.106   1.727   5.464  0.6016 -0.9536  0.6329
   10MOL   O88910627   4.966   1.734   5.463  0.2517 -0.5030  0.0341
   10MOL   C89010628   5.184   1.789   5.564  0.4831 -0.8969  0.0844
   10MOL   C89110629   5.323   1.765   5.566 -0.3848 -0.1109  0.1174
   10MOL   C89210630   5.520   1.883   5.306  0.2872 -0.3084  0.6273
   10MOL   C89310631   5.570   1.962   5.197  0.4609 -0.2221 -0.2285
   10MOL   C89410632   5.854   2.182   5.090 -0.1778 -0.1196  0.0255
   10MOL   C89510633   5.891   2.317   5.086  0.6131 -0.9961  0.0903
   10MOL   C89610634   5.719   2.704   4.823 -0.1206  0.2814 -0.3390
   10MOL   C89710635   5.611   2.751   4.749 -0.4918 -0.1114 -0.1705
   10MOL   H89810636   5.367   2.690   4.981 -0.0690  1.9402 -1.1561
   10MOL   H89910637   5.573   2.621   5.113  3.3097  2.2075  0.9262
   10MOL   H90010638   5.621   2.416   4.898  0.5578  1.8682  1.5015
   10MOL   H90110639   5.575   2.180   4.897 -1.2544 -1.0914  2.5485
   10MOL   H90210640   5.854   1.783   5.115  0.4437 -0.5002  1.5845
   10MOL   H90310641   5.756   1.635   5.294 -1.7893 -0.9263  0.9168
   10MOL   H90410642   5.520   1.455   5.503 -1.1475  1.2016  0.5059
   10MOL   H90510643   5.678   1.495   5.469 -0.2052 -0.1237  1.0403
   10MOL   H90610644   5.562   1.489   5.340  0.4915 -1.4328  0.7609
   10MOL   H90710645   5.557   1.669   5.681 -4.2296 -0.7277 -2.5348
   10MOL   H90810646   5.720   1.706   5.609 -0.4821 -1.1292 -0.4376
   10MOL   H90910647   5.594   1.828   5.624 -0.3579 -0.0812  2.3005
   10MOL   H91010648   5.351   1.575   5.283 -2.7958 -1.1670 -0.0964
   10MOL   H91110649   5.115   1.616   5.278  0.4919 -2.2005  0.5367
   10MOL   H91210650   5.131   1.836   5.647  0.8323 -0.5707  0.1273
   10MOL   H91310651   5.381   1.808   5.647  1.2453  0.5671 -1.3920
   10MOL   H91410652   5.426   1.906   5.355  0.3220 -1.4226  1.2332
   10MOL   H91510653   5.523   2.049   5.152  1.8255  0.8956  0.4503
   10MOL   H91610654   5.907   2.118   5.160  1.4186  2.6388  1.4520
   10MOL   H91710655   5.972   2.355   5.147 -1.9959  1.6540  2.0932
   10MOL   H91810656   5.816   2.706   4.776  0.4478  0.0222  0.8216
   10MOL   H91910657   5.623   2.792   4.650 -1.6550 -2.9271 -1.5298
   10MOL   C92010658   4.897   1.841   5.521  0.6537 -0.6762 -0.0214
   10MOL   C92110659   4.874   1.960   5.439 -0.3376  0.1032 -0.6552
   10MOL   C92210660   4.809   2.074   5.500  0.5969  0.4788  1.0196
   10MOL   C92310661   4.766   2.060   5.632  1.0948 -0.4599  0.0189
   10MOL   S92410662   4.659   2.193   5.688 -0.1481  0.0810  0.2013
   10MOL   O92510663   4.629   2.171   5.834 -0.0814 -0.1458  0.0253
   10MOL   O92610664   4.551   2.206   5.593 -0.1439  0.3772  0.2284
   10MOL   C92710665   4.746   2.350   5.693  0.1569 -0.3158  0.0069
   10MOL   C92810666   4.775   2.414   5.573  0.3322 -0.0694  0.1569
   10MOL   C92910667   4.845   2.531   5.571  0.3383 -0.1554 -0.1451
   10MOL   C93010668   4.895   2.583   5.692  0.4259  0.4520 -0.6313
   10MOL   O93110669   4.962   2.707   5.691  0.2902 -0.0759  0.1962
   10MOL   C93210670   4.935   2.805   5.596 -0.2732 -0.0187 -0.3303
   10MOL   C93310671   5.023   2.819   5.493 -0.2180 -0.0595 -0.1367
   10MOL   C93410672   4.997   2.917   5.397 -0.1984  0.0942 -0.1295
   10MOL   C93510673   4.890   3.006   5.410 -0.1786  0.3491  0.3992
   10MOL   C93610674   4.883   3.127   5.316  0.2604 -0.3238  0.6783
   10MOL   C93710675   4.900   3.076   5.172 -0.1280  0.7043  0.3810
   10MOL   C93810676   4.741   3.192   5.321  0.0429  0.4964 -0.3898
   10MOL   C93910677   4.979   3.238   5.352 -0.3666  0.0563 -0.6165
   10MOL   C94010678   4.990   3.270   5.490 -0.0926 -0.5447  0.6876
   10MOL   C94110679   5.068   3.386   5.535  0.0781  0.6221  0.3075
   10MOL   C94210680   5.138   3.464   5.444 -0.3972 -0.3328 -0.2722
   10MOL   O94310681   5.217   3.573   5.472 -0.0963 -0.2619  0.1926
   10MOL   C94410682   5.129   3.425   5.306  0.3906  0.4569 -0.1403
   10MOL   C94510683   5.057   3.316   5.260 -0.4980  0.6993 -0.9120
   10MOL   C94610684   4.793   2.981   5.514 -0.3272  0.0795  0.0506
   10MOL   C94710685   4.817   2.878   5.606  0.6714  0.6269 -0.5658
   10MOL   C94810686   4.868   2.528   5.820 -0.4277 -0.5240  0.5659
   10MOL   C94910687   4.789   2.416   5.816  0.3457 -0.4752  0.3581
   10MOL   C95010688   4.781   1.938   5.707 -0.0147  0.4911 -0.1563
   10MOL   C95110689   4.857   1.835   5.657  0.1190 -0.2491  0.0522
   10MOL   H95210690   4.915   1.970   5.340 -0.9035  0.9892 -0.8038
   10MOL   H95310691   4.795   2.162   5.439  0.2814  0.5823  1.2392
   10MOL   H95410692   4.736   2.377   5.479 -0.1327  0.8170 -0.0003
   10MOL   H95510693   4.852   2.585   5.477  0.7483  0.9771  0.5348
   10MOL   H95610694   5.100   2.744   5.481 -1.0054 -1.2723  2.1571
   10MOL   H95710695   5.073   2.917   5.320 -0.0090  1.2709  0.0509
   10MOL   H95810696   4.872   3.152   5.098  1.8472  1.2313  0.1641
   10MOL   H95910697   4.858   2.978   5.149  0.1315  0.8544 -0.7725
   10MOL   H96010698   5.006   3.054   5.168 -0.2152  0.4183 -0.5415
   10MOL   H96110699   4.734   3.279   5.257 -0.2470  1.7087  1.2577
   10MOL   H96210700   4.653   3.132   5.298  0.3854  0.5571 -1.8707
   10MOL   H96310701   4.728   3.239   5.419  2.8524  0.2980  0.1273
   10MOL   H96410702   4.931   3.214   5.561 -1.3623 -0.5197 -0.3163
   10MOL   H96510703   5.059   3.417   5.638 -0.8237 -0.5567  0.6011
   10MOL   H96610704   5.175   3.489   5.233 -0.8688  1.2091 -0.3004
   10MOL   H96710705   5.043   3.293   5.155  1.2492 -1.7116 -0.6480
   10MOL   H96810706   4.698   3.031   5.525 -0.6163 -0.5728  0.5619
   10MOL   H96910707   4.752   2.861   5.690  0.7425 -2.0255 -1.0175
   10MOL   H97010708   4.893   2.565   5.919 -0.9682 -0.7856  0.8007
   10MOL   H97110709   4.763   2.364   5.907 -2.2925 -0.9917 -0.6572
   10MOL   H97210710   4.754   1.945   5.812  1.4996 -0.9754  0.3455
   10MOL   H97310711   4.890   1.752   5.718 -1.7644 -1.8806 -1.0613
   10MOL   C97410712   5.301   3.553   5.577 -0.2581  0.3407  0.3030
   10MOL   C97510713   5.268   3.606   5.702  0.0300  0.6540  0.1941
   10MOL   C97610714   5.359   3.594   5.810 -0.7527 -0.0222 -0.3242
   10MOL   C97710715   5.468   3.505   5.802 -0.1869 -0.0065  0.3671
   10MOL   S97810716   5.548   3.473   5.962  0.1416 -0.2490  0.1439
   10MOL   O97910717   5.445   3.423   6.052 -0.1547  0.1711  0.5239
   10MOL   O98010718   5.615   3.602   5.993  0.0475  0.2247 -0.2710
   10MOL   C98110719   5.673   3.343   5.946  0.3196 -0.4390  0.4003
   10MOL   C98210720   5.638   3.214   5.912 -0.1657  0.2525  0.0488
   10MOL   C98310721   5.743   3.126   5.886  0.2939 -0.6955  0.1149
   10MOL   C98410722   5.877   3.164   5.905  0.3613 -0.3355 -0.2276
   10MOL   O98510723   5.984   3.079   5.883 -0.4642  0.2897 -0.6699
   10MOL   C98610724   6.041   3.103   5.767  0.4243  0.4891 -0.3622
   10MOL   C98710725   6.177   3.144   5.768 -0.1876  0.4058  0.5142
   10MOL   C98810726   6.233   3.170   5.640  0.4700 -0.3251 -0.0287
   10MOL   C98910727   6.158   3.169   5.516 -0.1719  0.1500 -0.0966
   10MOL   C99010728   6.238   3.206   5.385  0.0726 -0.2954 -0.4615
   10MOL   C99110729   6.308   3.079   5.333 -0.4015  0.1290 -0.0146
   10MOL   C99210730   6.147   3.239   5.273 -0.6278 -0.3373  0.4769
   10MOL   C99310731   6.339   3.323   5.416 -0.2914 -0.0553 -0.4319
   10MOL   C99410732   6.293   3.442   5.480  0.4857 -0.5658 -0.8135
   10MOL   C99510733   6.383   3.539   5.521  0.5546  0.4344  0.1106
   10MOL   C99610734   6.517   3.537   5.479  0.0613 -0.4549  0.2385
   10MOL   O99710735   6.607   3.628   5.523  0.3242 -0.2962  0.2325
   10MOL   C99810736   6.563   3.433   5.398 -0.1258 -0.8969  0.1352
   10MOL   C99910737   6.472   3.326   5.371 -0.0767  0.2852 -0.4855
   10MOL     C110738   6.022   3.134   5.522  1.0347 -0.2287  0.4086
   10MOL     C210739   5.964   3.103   5.646  0.2615 -0.6205  0.4814
   10MOL     C310740   5.915   3.295   5.948 -0.6184 -0.0223 -0.7207
   10MOL     C410741   5.805   3.384   5.966  0.7643  0.2868 -0.4395
   10MOL     C510742   5.494   3.446   5.678 -0.3183  0.5251 -0.6780
   10MOL     C610743   5.415   3.471   5.560  0.2084 -0.0467  0.3470
   10MOL     H710744   5.179   3.667   5.707 -0.7142 -0.5075  1.1858
   10MOL     H810745   5.340   3.657   5.895  0.9040 -0.2249  0.2172
   10MOL     H910746   5.534   3.185   5.912  0.0464 -0.5716 -1.0872
   10MOL    H1010747   5.721   3.024   5.860  0.5580 -0.8908  0.6478
   10MOL    H1110748   6.238   3.150   5.857 -0.0188  1.3749  0.3309
   10MOL    H1210749   6.334   3.209   5.639  0.9434 -1.4762  1.5976
   10MOL    H1310750   6.374   3.044   5.413 -1.7730  0.8856  1.4807
   10MOL    H1410751   6.367   3.097   5.243 -0.6176 -0.2547 -0.2344
   10MOL    H1510752   6.248   2.993   5.303 -1.1398  1.3162 -2.0504
   10MOL    H1610753   6.210   3.268   5.189 -0.6426  1.6877  1.1371
   10MOL    H1710754   6.075   3.163   5.241 -0.9878  0.3778 -0.4478
   10MOL    H1810755   6.094   3.326   5.311  1.6075  1.3075 -0.0685
   10MOL    H1910756   6.196   3.438   5.526  1.4092 -3.3913  0.9848
   10MOL    H2010757   6.354   3.621   5.587 -0.2003 -0.2858  0.6899
   10MOL    H2110758   6.665   3.428   5.365 -0.8427 -0.3713 -2.2712
   10MOL    H2210759   6.505   3.242   5.312 -1.1284 -1.4841  1.4069
   10MOL    H2310760   5.961   3.124   5.433 -0.8308 -1.7048  1.7976
   10MOL    H2410761   5.861   3.071   5.654  0.7465 -2.2860  0.2599
   10MOL    H2510762   6.021   3.314   5.963 -0.2662 -1.6081 -1.0777
   10MOL    H2610763   5.819   3.488   5.989 -3.1026  0.7153  0.3286
   10MOL    H2710764   5.571   3.371   5.668 -0.9677 -0.6472  2.3654
   10MOL    H2810765   5.435   3.422   5.467 -5.0116 -0.0303 -0.9295
   10MOL    C2910766   6.668   3.611   5.645 -1.1286 -0.5556 -0.5129
   10MOL    C3010767   6.771   3.701   5.688  0.5068 -0.1624  0.3064
   10MOL    C3110768   6.839   3.688   5.808  0.1547  0.3343 -0.0579
   10MOL    C3210769   6.807   3.573   5.892  0.2851 -0.2420  0.7083
   10MOL    S3310770   6.902   3.542   6.040 -0.2649 -0.3690  0.1336
   10MOL    O3410771   6.811   3.476   6.129 -0.6198 -0.1825  0.0096
   10MOL    O3510772   6.956   3.669   6.090  0.2286  0.0271  0.0504
   10MOL    C3610773   7.038   3.434   5.990 -0.6940  0.0324  0.6025
   10MOL    C3710774   7.024   3.341   5.888 -0.5432  0.0790  0.2600
   10MOL    C3810775   7.128   3.262   5.848  0.3364 -0.6262  0.0177
   10MOL    C3910776   7.249   3.273   5.918 -1.1592  0.0700 -0.0620
   10MOL    O4010777   7.358   3.200   5.872 -0.0464  0.2905  0.4997
   10MOL    C4110778   7.350   3.063   5.892  0.0794  0.3509  0.3311
   10MOL    C4210779   7.407   3.011   6.008  0.0674 -0.0787  0.3752
   10MOL    C4310780   7.407   2.872   6.027 -1.1204  0.3524  0.1088
   10MOL    C4410781   7.350   2.786   5.929 -1.2082  1.2619 -0.4453
   10MOL    C4510782   7.344   2.634   5.963  0.1154 -0.0091  0.2447
   10MOL    C4610783   7.233   2.558   5.893 -0.1613 -0.9098 -0.4315
   10MOL    C4710784   7.476   2.567   5.910  0.4074  0.0411 -0.1455
   10MOL    C4810785   7.309   2.617   6.116  0.2246  0.2769  1.4796
   10MOL    C4910786   7.379   2.526   6.190 -0.7411 -0.1954 -0.0034
   10MOL    C5010787   7.345   2.501   6.327  0.2687 -0.2373  0.1116
   10MOL    C5110788   7.232   2.568   6.384  0.2750 -1.1391  0.3185
   10MOL    O5210789   7.192   2.543   6.515 -0.6706 -0.7183  0.0933
   10MOL    C5310790   7.165   2.668   6.308  0.1255 -0.0502  0.5777
   10MOL    C5410791   7.199   2.687   6.172  0.4775  0.5457  0.3007
   10MOL    C5510792   7.301   2.834   5.808 -0.4170  0.0220 -0.3120
   10MOL    C5610793   7.305   2.979   5.791  0.5729 -0.1117 -0.5252
   10MOL    C5710794   7.264   3.362   6.026 -0.2662 -0.1540 -0.3429
   10MOL    C5810795   7.157   3.447   6.058  0.2582  0.2897  0.1906
   10MOL    C5910796   6.707   3.484   5.853  0.4381 -0.2612 -0.0575
   10MOL    C6010797   6.642   3.500   5.729 -0.1427  0.1963  0.2011
   10MOL    H6110798   6.792   3.785   5.623 -1.5293 -0.0344 -0.2260
   10MOL    H6210799   6.920   3.757   5.825  0.3190  0.2702 -0.5863
   10MOL    H6310800   6.937   3.338   5.824  0.1171 -0.2199 -0.6366
   10MOL    H6410801   7.111   3.191   5.768 -2.2946 -0.6107  0.5296
   10MOL    H6510802   7.461   3.074   6.077 -0.0381  0.8856 -0.4088
   10MOL    H6610803   7.458   2.836   6.114 -0.2809  1.3249  0.0363
   10MOL    H6710804   7.134   2.598   5.915 -0.2938 -0.2076 -2.2416
   10MOL    H6810805   7.235   2.459   5.940 -1.4357 -0.9311 -0.4152
   10MOL    H6910806   7.242   2.551   5.785 -1.4977 -0.0430 -0.6084
   10MOL    H7010807   7.484   2.567   5.801  0.6398 -1.8719 -0.1419
   10MOL    H7110808   7.553   2.635   5.947  0.1033  0.4975 -0.3473
   10MOL    H7210809   7.489   2.465   5.945  1.0586  0.7998  1.8751
   10MOL    H7310810   7.459   2.459   6.159  0.1154  0.3568  0.9799
   10MOL    H7410811   7.395   2.428   6.388 -1.7951 -1.7988  0.0005
   10MOL    H7510812   7.086   2.727   6.351  0.4140  0.4732  0.3892
   10MOL    H7610813   7.136   2.756   6.117  3.1449  2.8429  0.0200
   10MOL    H7710814   7.263   2.769   5.731 -2.2973 -1.5581  1.8970
   10MOL    H7810815   7.278   3.012   5.691  1.3544 -1.2986 -1.1409
   10MOL    H7910816   7.359   3.359   6.076 -0.4398 -3.0613 -0.0885
   10MOL    H8010817   7.167   3.531   6.125  3.2739  0.2085 -0.1017
   10MOL    H8110818   6.698   3.405   5.926  1.8572 -1.1020 -0.7694
   10MOL    H8210819   6.569   3.426   5.700 -0.0399  0.3132 -0.3740
   10MOL    H8310820   7.122   2.599   6.544  1.1865  1.3252  0.7391
   11MOL     C110821   4.739   5.909   7.382  0.6259 -0.1857 -0.0817
   11MOL     C210822   4.833   6.013   7.358  0.0435 -0.4654  0.3323
   11MOL     C310823   4.906   6.014   7.241 -0.0694  0.1030 -0.5790
   11MOL     C410824   4.884   5.918   7.140 -0.3669 -0.3738 -0.2029
   11MOL     S510825   4.974   5.923   6.985 -0.1905  0.0105  0.1481
   11MOL     O610826   4.885   5.882   6.878  0.3137  0.3045 -0.4660
   11MOL     O710827   5.100   5.847   7.009  0.4024  0.8171  0.1639
   11MOL     C810828   5.026   6.093   6.948  0.0325  0.8102 -0.3951
   11MOL     C910829   5.150   6.115   6.894  0.0450 -0.4876 -0.1221
   11MOL    C1010830   5.201   6.241   6.856 -0.2333  0.5737 -0.8529
   11MOL    C1110831   5.115   6.349   6.872  0.1981 -0.1722  0.2398
   11MOL    O1210832   5.151   6.476   6.838  0.5483  0.3138 -0.0371
   11MOL    C1310833   5.225   6.489   6.726  1.0462 -0.3919 -0.3165
   11MOL    C1410834   5.156   6.494   6.606 -0.1966  0.3483  0.9148
   11MOL    C1510835   5.226   6.502   6.484 -0.0938 -0.5329  0.8163
   11MOL    C1610836   5.369   6.511   6.484 -0.2243 -0.2591  0.0633
   11MOL    C1710837   5.452   6.523   6.357 -0.2447 -0.2022 -0.2677
   11MOL    C1810838   5.419   6.662   6.308  0.4781 -0.2921 -0.2995
   11MOL    C1910839   5.607   6.525   6.382  0.4142 -0.7648 -0.1917
   11MOL    C2010840   5.423   6.414   6.254  0.3840 -1.1641  0.3923
   11MOL    C2110841   5.451   6.440   6.114  0.9566  0.0398  0.2267
   11MOL    C2210842   5.423   6.342   6.023 -0.0839 -0.6719  0.0315
   11MOL    C2310843   5.373   6.217   6.065  0.2842 -0.7150 -0.2381
   11MOL    O2410844   5.329   6.133   5.960  0.2544  0.0198 -0.4547
   11MOL    C2510845   5.353   6.186   6.200  0.7051 -0.3547 -0.0888
   11MOL    C2610846   5.383   6.285   6.295  0.3605  0.0914 -0.2883
   11MOL    C2710847   5.433   6.504   6.606 -0.7298 -0.1737 -1.0420
   11MOL    C2810848   5.365   6.494   6.729 -0.5037 -0.6004  0.1642
   11MOL    C2910849   4.994   6.338   6.944  0.1834 -0.6391 -0.2076
   11MOL    C3010850   4.949   6.209   6.983 -0.0694 -0.0131  0.3081
   11MOL    C3110851   4.786   5.821   7.152 -0.3571 -0.0933 -0.9634
   11MOL    C3210852   4.725   5.812   7.279  0.3501 -0.4322  0.0749
   11MOL    H3310853   4.841   6.092   7.431  1.3807 -1.1548  0.9527
   11MOL    H3410854   4.988   6.084   7.233  0.9919 -1.0430  0.1168
   11MOL    H3510855   5.215   6.031   6.875 -1.1933 -1.2232 -1.2276
   11MOL    H3610856   5.295   6.252   6.805 -0.9733 -2.5107 -3.0486
   11MOL    H3710857   5.049   6.484   6.610 -0.1152 -2.1866 -1.8378
   11MOL    H3810858   5.172   6.510   6.390  1.0698  1.7936  0.2963
   11MOL    H3910859   5.320   6.658   6.263  0.2252 -1.4485  0.3265
   11MOL    H4010860   5.481   6.697   6.226  0.7157  0.7175  0.3078
   11MOL    H4110861   5.417   6.737   6.387 -0.3955  0.5289 -1.0846
   11MOL    H4210862   5.640   6.430   6.422 -0.6780 -1.4454 -0.8637
   11MOL    H4310863   5.664   6.542   6.290 -0.4348 -1.8599 -0.9424
   11MOL    H4410864   5.636   6.610   6.444 -0.7095 -0.9098  0.5515
   11MOL    H4510865   5.471   6.541   6.081  1.6646 -0.3240 -0.4701
   11MOL    H4610866   5.440   6.361   5.918 -0.9560  0.7522  0.1376
   11MOL    H4710867   5.309   6.095   6.239  1.3012 -0.5580  0.1058
   11MOL    H4810868   5.359   6.264   6.398 -0.7132  2.4083 -0.0086
   11MOL    H4910869   5.541   6.503   6.614 -0.8913 -0.3913  1.6992
   11MOL    H5010870   5.412   6.491   6.826  0.1607 -2.5634 -0.1936
   11MOL    H5110871   4.928   6.423   6.958 -0.5634 -1.5401  1.9744
   11MOL    H5210872   4.854   6.201   7.034 -0.2614 -0.9510 -0.1801
   11MOL    H5310873   4.774   5.749   7.073  1.3449 -0.8471 -0.5735
   11MOL    H5410874   4.670   5.720   7.292  1.3082 -1.2368 -1.3714
   11MOL    H5510875   4.689   5.899   7.478 -0.5116 -1.5714 -0.8151
   11MOL    C5610876   5.216   6.056   5.971  0.5625 -1.0150  0.4998
   11MOL    C5710877   5.102   6.084   6.044  0.0727  0.2231  0.6519
   11MOL    C5810878   4.997   5.995   6.041  0.4057  0.4760  0.2167
   11MOL    C5910879   5.010   5.874   5.972  0.5808  0.3725 -0.0847
   11MOL    S6010880   4.868   5.768   5.963  0.2105  0.5345 -0.4167
   11MOL    O6110881   4.772   5.824   5.869  0.6408  0.2187  0.4295
   11MOL    O6210882   4.838   5.736   6.104 -0.3679 -0.4767  0.3175
   11MOL    C6310883   4.916   5.612   5.882  0.2853 -0.5166  0.6478
   11MOL    C6410884   4.947   5.502   5.964 -0.2080  0.6744 -0.1914
   11MOL    C6510885   4.982   5.376   5.904 -0.4527 -0.0302 -0.3346
   11MOL    C6610886   4.977   5.364   5.760  0.6785 -0.4431  0.4505
   11MOL    O6710887   5.012   5.245   5.702 -0.3611  0.1105 -0.1386
   11MOL    C6810888   4.923   5.175   5.624  0.0559  0.5258  0.3400
   11MOL    C6910889   4.953   5.152   5.488 -0.6671  0.2860  0.0725
   11MOL    C7010890   4.857   5.085   5.404  0.2472  0.1102 -0.4334
   11MOL    C7110891   4.734   5.039   5.465 -0.0799 -0.0369 -0.0177
   11MOL    C7210892   4.631   4.957   5.387 -0.1237  0.2369 -0.2397
   11MOL    C7310893   4.496   5.038   5.397  0.3715 -0.3005  0.5783
   11MOL    C7410894   4.659   4.927   5.237 -0.0548  0.5935  0.5614
   11MOL    C7510895   4.617   4.824   5.457 -0.6319  0.4995 -0.5671
   11MOL    C7610896   4.735   4.751   5.484  0.1727  0.2448 -0.9669
   11MOL    C7710897   4.730   4.623   5.541  0.6190 -0.4550 -0.2963
   11MOL    C7810898   4.605   4.559   5.565 -0.3365 -0.5676 -0.3720
   11MOL    O7910899   4.586   4.429   5.601 -0.8760 -0.5462 -0.3284
   11MOL    C8010900   4.486   4.635   5.545 -0.2628  0.7783  0.4043
   11MOL    C8110901   4.498   4.764   5.491 -0.0091 -0.2412 -0.2205
   11MOL    C8210902   4.709   5.074   5.596  0.8149  0.8126 -0.1459
   11MOL    C8310903   4.794   5.148   5.674  0.0067  0.0267 -0.4086
   11MOL    C8410904   4.935   5.473   5.679  0.3502  0.1967  0.2639
   11MOL    C8510905   4.917   5.596   5.741 -0.7153 -0.1881 -0.0338
   11MOL    C8610906   5.125   5.846   5.900 -0.5421 -0.1493  0.5343
   11MOL    C8710907   5.234   5.936   5.898  0.4584 -0.7885  0.3563
   11MOL    H8810908   5.102   6.179   6.096  0.3945  1.4463 -1.5428
   11MOL    H8910909   4.905   6.001   6.096  0.8049 -4.5601  1.7379
   11MOL    H9010910   4.953   5.526   6.069  1.2192  0.6142 -0.2556
   11MOL    H9110911   5.014   5.289   5.958  0.3366 -0.5151 -1.5841
   11MOL    H9210912   5.052   5.159   5.445 -0.4836 -0.3207  0.3868
   11MOL    H9310913   4.890   5.070   5.303  0.5286  1.6850 -0.5819
   11MOL    H9410914   4.416   5.007   5.330 -1.2813 -0.2051  2.4599
   11MOL    H9510915   4.515   5.142   5.369  1.1934 -0.9085 -1.1932
   11MOL    H9610916   4.453   5.041   5.497  0.9842  1.3121  0.8189
   11MOL    H9710917   4.752   4.871   5.224  0.5722  1.0528  2.8533
   11MOL    H9810918   4.583   4.859   5.198 -1.2204  2.2779 -0.1500
   11MOL    H9910919   4.660   5.017   5.176 -1.0243 -0.6038 -1.2679
   11MOL   H10010920   4.832   4.787   5.453 -0.1262  1.4886 -0.4921
   11MOL   H10110921   4.821   4.567   5.558  1.6216  1.2800  0.1514
   11MOL   H10210922   4.386   4.597   5.560 -0.5351  0.6174 -1.6820
   11MOL   H10310923   4.406   4.819   5.478  1.6373  2.7435  0.3653
   11MOL   H10410924   4.622   5.020   5.631  0.4363  1.2167 -0.4724
   11MOL   H10510925   4.772   5.173   5.777  1.1282  1.4537 -0.4806
   11MOL   H10610926   4.923   5.454   5.573 -0.8276 -1.4493  0.6687
   11MOL   H10710927   4.885   5.674   5.674  0.2159 -3.2724 -4.2701
   11MOL   H10810928   5.133   5.762   5.832 -0.9513  0.5695 -0.4133
   11MOL   H10910929   5.323   5.910   5.843 -0.9289 -0.3780 -2.1640
   11MOL   C11010930   4.645   4.338   5.517 -0.1069 -0.3570  0.0374
   11MOL   C11110931   4.754   4.255   5.564  0.0883 -0.0793  0.3332
   11MOL   C11210932   4.828   4.176   5.473  0.2246 -0.1888 -0.1728
   11MOL   C11310933   4.786   4.182   5.336 -0.3582  0.6795 -0.1352
   11MOL   S11410934   4.877   4.072   5.223  0.0584 -0.2732 -0.0185
   11MOL   O11510935   5.003   4.043   5.293  0.1569 -0.5326 -0.1592
   11MOL   O11610936   4.882   4.132   5.087  0.5836  0.5876  0.2110
   11MOL   C11710937   4.794   3.922   5.202  0.0384  0.0915 -0.5573
   11MOL   C11810938   4.835   3.810   5.277 -0.2458  0.5948 -0.1536
   11MOL   C11910939   4.767   3.692   5.258 -0.5073 -0.2772 -0.4761
   11MOL   C12010940   4.649   3.685   5.180  0.2481 -0.0202  0.3248
   11MOL   O12110941   4.573   3.574   5.181  0.2909 -0.1620  0.6481
   11MOL   C12210942   4.485   3.577   5.288 -0.0162  0.5371  1.1098
   11MOL   C12310943   4.521   3.503   5.404 -0.1801 -0.0203 -0.4816
   11MOL   C12410944   4.440   3.505   5.519  0.8457 -0.3781 -0.2569
   11MOL   C12510945   4.322   3.582   5.524  0.2873 -0.6607  0.0152
   11MOL   C12610946   4.254   3.614   5.653  0.7007  0.4493 -0.0986
   11MOL   C12710947   4.114   3.550   5.652  0.3240  0.7145 -1.0646
   11MOL   C12810948   4.337   3.574   5.775 -0.2228 -0.0665  0.2205
   11MOL   C12910949   4.247   3.766   5.660  0.3092 -0.0359 -0.2598
   11MOL   C13010950   4.132   3.849   5.678 -0.1093  0.5020 -0.3406
   11MOL   C13110951   4.136   3.991   5.674  0.0536 -0.3388  0.0490
   11MOL   C13210952   4.255   4.061   5.659 -0.2129  0.1929  0.0899
   11MOL   O13310953   4.264   4.195   5.650 -0.0816  0.0980 -0.1918
   11MOL   C13410954   4.370   3.983   5.642 -0.5406  0.1181  0.0479
   11MOL   C13510955   4.364   3.841   5.628  0.0465  0.5268 -0.4861
   11MOL   C13610956   4.282   3.645   5.403  0.3390 -0.8511 -0.3268
   11MOL   C13710957   4.362   3.646   5.284 -0.0609 -0.0768  0.0698
   11MOL   C13810958   4.609   3.802   5.106 -0.3191 -0.1557 -0.1492
   11MOL   C13910959   4.688   3.914   5.107 -0.1159  0.5856 -0.1537
   11MOL   C14010960   4.677   4.253   5.288  0.4325  0.1553  0.2870
   11MOL   C14110961   4.610   4.334   5.382  0.5031 -0.0897 -0.5316
   11MOL   H14210962   4.776   4.240   5.668  0.3582  1.4618  0.5110
   11MOL   H14310963   4.910   4.120   5.514  0.1611 -0.2375 -0.1123
   11MOL   H14410964   4.919   3.834   5.341 -0.0852 -0.0252 -0.1335
   11MOL   H14510965   4.796   3.610   5.322  2.1373 -2.0533 -3.7790
   11MOL   H14610966   4.611   3.442   5.409  0.3809  0.8657  0.3840
   11MOL   H14710967   4.470   3.444   5.603  0.9748  0.2125  0.1270
   11MOL   H14810968   4.043   3.589   5.579 -1.4512  0.5205  0.5218
   11MOL   H14910969   4.058   3.548   5.746  1.3240 -0.5739 -0.4796
   11MOL   H15010970   4.119   3.444   5.629 -1.9348  0.0582  1.2416
   11MOL   H15110971   4.431   3.628   5.787  0.6264 -1.4875  0.0289
   11MOL   H15210972   4.279   3.600   5.864  1.2596  1.4064  0.7891
   11MOL   H15310973   4.348   3.466   5.775  1.7175  0.1033  0.9658
   11MOL   H15410974   4.036   3.799   5.690 -0.7377  1.9908  1.0156
   11MOL   H15510975   4.041   4.038   5.695 -1.3929 -3.4384  0.5927
   11MOL   H15610976   4.468   4.026   5.625 -0.4136 -0.8665 -1.8054
   11MOL   H15710977   4.456   3.785   5.629  0.0033  0.4341  2.8382
   11MOL   H15810978   4.201   3.717   5.406  1.6356  0.5928  1.1814
   11MOL   H15910979   4.325   3.703   5.199 -2.2108  1.3114  1.8861
   11MOL   H16010980   4.522   3.797   5.041 -0.4211  0.0269 -0.0257
   11MOL   H16110981   4.670   4.006   5.053  3.8875  0.7133 -1.4367
   11MOL   H16210982   4.651   4.252   5.184  1.1415  0.2226  0.1042
   11MOL   H16310983   4.526   4.390   5.346 -0.5448  0.1224  2.0950
   11MOL   C16410984   4.278   4.276   5.766  0.9989 -0.0184  0.2422
   11MOL   C16510985   4.167   4.359   5.791 -0.4527 -0.0324  0.1515
   11MOL   C16610986   4.178   4.448   5.900 -0.1169 -0.4430 -0.3346
   11MOL   C16710987   4.297   4.453   5.977 -0.6037 -0.1000  0.4797
   11MOL   S16810988   4.305   4.571   6.116  0.1244  0.5607  0.8638
   11MOL   O16910989   4.426   4.543   6.194  0.2805 -0.1223 -0.0836
   11MOL   O17010990   4.174   4.579   6.186 -0.0959 -0.0180  0.3921
   11MOL   C17110991   4.326   4.725   6.020 -0.0534  0.3234  0.0280
   11MOL   C17210992   4.439   4.733   5.940 -1.0265  0.4227 -0.3312
   11MOL   C17310993   4.457   4.845   5.863  1.3295 -0.5979  0.0650
   11MOL   C17410994   4.357   4.949   5.860  0.1351 -0.2153 -0.1956
   11MOL   O17510995   4.369   5.050   5.775 -0.0211  0.1155  0.4047
   11MOL   C17610996   4.407   5.161   5.838  0.7618 -0.0023 -0.2012
   11MOL   C17710997   4.531   5.176   5.900 -0.4695 -0.1103  0.5419
   11MOL   C17810998   4.563   5.300   5.969 -0.6748 -0.2750 -0.2926
   11MOL   C17910999   4.466   5.395   6.001  1.1784  0.6665 -0.1610
   11MOL   C18011000   4.489   5.522   6.085  0.0807  0.3887 -0.4828
   11MOL   C18111001   4.623   5.513   6.162 -0.1190 -0.3422 -0.1929
   11MOL   C18211002   4.488   5.634   5.978 -0.3819 -0.4837  0.2987
   11MOL   C18311003   4.375   5.537   6.186 -0.0974 -0.7501 -0.5609
   11MOL   C18411004   4.319   5.426   6.247 -0.2288 -0.3547  0.2380
   11MOL   C18511005   4.217   5.440   6.342  0.2282 -0.0087 -0.4357
   11MOL   C18611006   4.177   5.561   6.392  0.0070 -0.8839  0.7356
   11MOL   O18711007   4.087   5.577   6.499 -0.5303  0.2870  0.3655
   11MOL   C18811008   4.223   5.677   6.325  0.0126  1.3535 -0.5126
   11MOL   C18911009   4.319   5.669   6.217  0.4654 -0.4291 -0.1849
   11MOL   C19011010   4.338   5.374   5.930 -0.8390  0.8479 -0.1495
   11MOL   C19111011   4.310   5.261   5.855  0.0338  0.2291  0.8676
   11MOL   C19211012   4.246   4.941   5.940  1.0426 -1.0926  0.0297
   11MOL   C19311013   4.234   4.832   6.022 -0.0583 -0.1484  0.5435
   11MOL   C19411014   4.410   4.364   5.952  0.6588 -0.1350 -0.3003
   11MOL   C19511015   4.389   4.275   5.844  0.0838 -0.0369  0.0958
   11MOL   H19611016   4.073   4.355   5.737 -1.1560 -1.3144  1.4257
   11MOL   H19711017   4.098   4.511   5.936 -0.5512 -0.4067 -1.3407
   11MOL   H19811018   4.515   4.657   5.951 -0.3074  1.2657  0.7066
   11MOL   H19911019   4.542   4.862   5.798  0.6371  1.1556 -0.4140
   11MOL   H20011020   4.597   5.092   5.885  1.4212  1.5290 -0.6784
   11MOL   H20111021   4.666   5.313   5.998 -0.8484  1.1099 -0.2650
   11MOL   H20211022   4.630   5.419   6.215 -0.1713 -0.0110  0.4057
   11MOL   H20311023   4.650   5.593   6.232 -2.0305  1.0371 -0.9816
   11MOL   H20411024   4.708   5.521   6.093  1.1621 -3.4176  0.9536
   11MOL   H20511025   4.573   5.616   5.912  0.8107 -1.9570  2.1919
   11MOL   H20611026   4.397   5.657   5.924 -0.2326  0.8171  0.5613
   11MOL   H20711027   4.521   5.727   6.026  1.0876 -0.9741  0.2592
   11MOL   H20811028   4.343   5.324   6.222 -0.4938  0.3495 -3.1205
   11MOL   H20911029   4.166   5.353   6.381  0.6733 -0.3320 -0.5749
   11MOL   H21011030   4.189   5.774   6.359 -0.4651  1.3909 -1.0761
   11MOL   H21111031   4.361   5.757   6.170 -0.3230 -1.2619 -2.5504
   11MOL   H21211032   4.266   5.453   5.942  0.2752  1.7265  0.8464
   11MOL   H21311033   4.215   5.241   5.809  1.1142  2.2291 -2.4183
   11MOL   H21411034   4.173   5.021   5.932  1.6985 -0.5387 -0.4257
   11MOL   H21511035   4.136   4.824   6.068  0.2666 -1.0845  1.0802
   11MOL   H21611036   4.495   4.364   6.018 -0.3548 -1.8179  1.0530
   11MOL   H21711037   4.456   4.193   5.822 -0.3919  0.2012 -2.3526
   11MOL   C21811038   4.101   5.486   6.598 -0.1174 -0.9978 -0.0333
   11MOL   C21911039   4.199   5.511   6.697 -0.6027  0.6412  0.3569
   11MOL   C22011040   4.213   5.426   6.799 -0.6518  0.2892 -0.0909
   11MOL   C22111041   4.139   5.308   6.805 -0.2986  0.6341  0.0436
   11MOL   S22211042   4.179   5.187   6.940 -0.1462  0.3712 -0.0237
   11MOL   O22311043   4.193   5.266   7.063  0.5491  0.1855  1.0249
   11MOL   O22411044   4.299   5.114   6.900  0.2620  0.7223  0.2954
   11MOL   C22511045   4.032   5.079   6.960  0.7404 -0.6567  0.0437
   11MOL   C22611046   3.922   5.124   7.041 -0.6893 -0.4016 -0.0297
   11MOL   C22711047   3.812   5.041   7.056  0.5841 -0.3831 -0.0336
   11MOL   C22811048   3.805   4.924   6.982 -0.4236  0.9533 -0.1168
   11MOL   O22911049   3.688   4.848   6.984 -0.2632  0.1378  0.4045
   11MOL   C23011050   3.675   4.783   7.105 -0.8213  0.0959  0.2852
   11MOL   C23111051   3.752   4.672   7.149 -0.1980 -0.0901  0.1604
   11MOL   C23211052   3.729   4.618   7.276  0.1332  0.0533 -0.3306
   11MOL   C23311053   3.627   4.665   7.362  0.7226  0.5711 -0.6596
   11MOL   C23411054   3.597   4.592   7.489 -0.2846  0.1206 -0.5304
   11MOL   C23511055   3.503   4.680   7.588  0.0808  0.4353  0.4007
   11MOL   C23611056   3.509   4.473   7.447 -0.1641  0.3901  0.1220
   11MOL   C23711057   3.737   4.558   7.555  0.4270  0.4457 -1.6083
   11MOL   C23811058   3.820   4.657   7.605 -0.0617  0.1024  0.5511
   11MOL   C23911059   3.948   4.627   7.653  0.1999 -0.8405 -0.0442
   11MOL   C24011060   3.987   4.490   7.674  0.1032  0.1138 -0.3059
   11MOL   O24111061   4.110   4.459   7.719  0.2666 -0.0784 -0.1404
   11MOL   C24211062   3.897   4.392   7.626  0.1303  0.1656 -0.9842
   11MOL   C24311063   3.777   4.423   7.569  0.1214 -0.1163  0.1314
   11MOL   C24411064   3.553   4.779   7.318  0.2013 -0.0952 -0.0203
   11MOL   C24511065   3.569   4.831   7.184 -0.0761  0.2390 -0.5035
   11MOL   C24611066   3.917   4.876   6.909  0.2353  0.3496 -0.0553
   11MOL   C24711067   4.032   4.955   6.903 -1.3234 -0.4899 -0.2938
   11MOL   C24811068   4.039   5.275   6.714  0.6344 -0.4663 -0.0369
   11MOL   C24911069   4.018   5.374   6.610  0.1962  1.1273 -0.5997
   11MOL   H25011070   4.254   5.604   6.690 -1.0778  0.9044  0.1301
   11MOL   H25111071   4.287   5.449   6.875 -0.5070 -0.3952 -0.0237
   11MOL   H25211072   3.920   5.221   7.089  0.0894 -0.6815  0.5660
   11MOL   H25311073   3.734   5.074   7.122 -0.1582  1.2527 -1.6832
   11MOL   H25411074   3.831   4.618   7.100 -0.5343 -2.8486  2.5753
   11MOL   H25511075   3.782   4.534   7.317  0.4728  0.2441 -0.3836
   11MOL   H25611076   3.549   4.779   7.587 -0.9587  0.9374  0.7962
   11MOL   H25711077   3.493   4.644   7.691  1.7712  0.3987  0.5602
   11MOL   H25811078   3.404   4.705   7.550 -1.3764  0.8221  4.1823
   11MOL   H25911079   3.419   4.503   7.395  0.0784 -0.2899 -0.6904
   11MOL   H26011080   3.563   4.395   7.394 -0.8643 -0.4950  0.7140
   11MOL   H26111081   3.461   4.420   7.529  1.1701  2.4683  2.3321
   11MOL   H26211082   3.791   4.760   7.586 -0.7814 -0.7147 -3.0297
   11MOL   H26311083   4.016   4.703   7.688 -1.6222 -0.3735  2.6271
   11MOL   H26411084   3.926   4.288   7.634 -0.6934  0.1137  1.9663
   11MOL   H26511085   3.717   4.343   7.527  0.9492  0.0085 -1.3341
   11MOL   H26611086   3.467   4.808   7.376 -2.0764  0.6413 -3.5528
   11MOL   H26711087   3.496   4.899   7.143  0.0007  0.9321  0.4895
   11MOL   H26811088   3.909   4.782   6.856  0.2378  1.6074 -2.3757
   11MOL   H26911089   4.120   4.925   6.849 -0.4084  0.1708  0.8055
   11MOL   H27011090   3.980   5.185   6.718  0.4198 -0.4242 -1.8739
   11MOL   H27111091   3.944   5.354   6.533  0.7601 -2.2993 -0.3521
   11MOL   C27211092   4.117   4.371   7.821  0.5562 -0.1111  0.4316
   11MOL   C27311093   4.149   4.236   7.797 -0.2044  0.0241 -0.5651
   11MOL   C27411094   4.167   4.153   7.910 -0.1436  0.3106 -0.1339
   11MOL   C27511095   4.152   4.206   8.040 -0.2588 -0.3874  0.1135
   11MOL   S27611096   4.170   4.107   8.186 -0.1238  0.3754  0.4953
   11MOL   O27711097   4.190   4.190   0.051 -0.0152 -0.3107 -0.2826
   11MOL   O27811098   4.279   4.017   8.143  0.3506 -0.1126 -0.3355
   11MOL   C27911099   4.021   4.008   8.201  0.8499  0.2193 -0.2337
   11MOL   C28011100   3.978   3.969   0.075 -0.5410 -0.1414 -0.3167
   11MOL   C28111101   3.862   3.888   0.082 -0.3261  0.3231 -0.2219
   11MOL   C28211102   3.796   3.834   8.227 -0.2671  0.5233  0.2146
   11MOL   O28311103   3.687   3.754   8.235  0.6919  0.5359 -0.2232
   11MOL   C28411104   3.574   3.815   0.019  0.0524  0.5050 -0.6379
   11MOL   C28511105   3.475   3.849   8.182 -0.0096 -0.2833  1.4718
   11MOL   C28611106   3.350   3.902   8.222  0.3835 -0.8004 -0.3912
   11MOL   C28711107   3.323   3.911   0.105  0.2237 -0.1612 -0.0538
   11MOL   C28811108   3.197   3.974   0.162 -0.5681  0.0499  0.0990
   11MOL   C28911109   3.096   4.023   0.053 -0.2487 -0.0560  0.6259
   11MOL   C29011110   3.120   3.859   0.236  0.6833  0.1932 -0.5049
   11MOL   C29111111   3.233   4.091   0.258  0.1892  0.4706  0.1965
   11MOL   C29211112   3.307   4.199   0.207  0.3393  0.2031  0.3143
   11MOL   C29311113   3.346   4.308   0.284  0.1339  0.7896 -0.1162
   11MOL   C29411114   3.312   4.305   0.423 -0.0953 -0.1647  0.1414
   11MOL   O29511115   3.344   4.401   0.507  0.2014 -0.1249  0.5311
   11MOL   C29611116   3.241   4.198   0.482  0.7934 -0.4290 -0.0011
   11MOL   C29711117   3.195   4.095   0.396  0.5498 -0.2388 -0.0305
   11MOL   C29811118   3.424   3.863   0.199 -0.3462 -0.0985  1.2861
   11MOL   C29911119   3.541   3.806   0.152 -0.6924  0.4684 -0.6638
   11MOL   C30011120   3.857   3.865   8.101  1.0018 -0.3075  0.2017
   11MOL   C30111121   3.962   3.959   8.090  0.1762  0.1549  0.2181
   11MOL   C30211122   4.115   4.344   8.058  0.5377 -0.3591 -0.5390
   11MOL   C30311123   4.108   4.423   7.946 -0.5293  0.0054  0.5570
   11MOL   H30411124   4.156   4.207   7.693 -1.2752 -1.1483 -0.3163
   11MOL   H30511125   4.207   4.054   7.894  0.8440  0.7357 -0.3284
   11MOL   H30611126   4.016   3.998   0.172 -0.0020 -1.1135 -0.2351
   11MOL   H30711127   3.817   3.874   0.179  0.6625  0.3142  0.2488
   11MOL   H30811128   3.504   3.842   8.078 -1.7222 -2.1332  1.1052
   11MOL   H30911129   3.283   3.926   8.141  0.1862  0.7238  0.2200
   11MOL   H31011130   3.124   4.111   8.248 -1.7950 -0.4650 -0.7998
   11MOL   H31111131   3.003   4.058   0.097 -0.1744  1.4971 -0.4037
   11MOL   H31211132   3.071   3.944   8.235 -0.6698 -0.0482  0.7641
   11MOL   H31311133   3.030   3.910   0.268  0.5186  0.1042 -0.8268
   11MOL   H31411134   3.089   3.778   0.170 -0.1324  1.1944 -1.3653
   11MOL   H31511135   3.165   3.819   0.327  0.6831 -1.8804 -1.3889
   11MOL   H31611136   3.340   4.190   0.104 -2.4110  2.1225 -0.8067
   11MOL   H31711137   3.408   4.379   0.232  0.0910  1.5464  0.8551
   11MOL   H31811138   3.217   4.200   0.588  0.9703  1.7199  0.0226
   11MOL   H31911139   3.146   4.010   0.443 -0.6933  0.6117  0.2268
   11MOL   H32011140   3.411   3.866   0.306  1.8655  3.4967  1.5250
   11MOL   H32111141   3.609   3.774   0.230 -1.8257 -1.0506 -0.2900
   11MOL   H32211142   3.823   3.824   8.007 -1.2698  1.9021  0.0073
   11MOL   H32311143   3.997   3.976   7.989 -2.4346  0.4049 -0.6557
   11MOL   H32411144   4.100   4.383   8.158 -0.3380  0.7441 -1.0943
   11MOL   H32511145   4.098   4.530   7.952 -1.2207  0.1316 -2.3593
   11MOL   C32611146   3.270   4.518   0.493 -0.3467  0.8446 -0.5778
   11MOL   C32711147   3.298   4.612   0.391 -0.6019 -0.1819  0.1996
   11MOL   C32811148   3.230   4.734   0.401 -0.5913 -0.0146  0.0535
   11MOL   C32911149   3.144   4.769   0.505 -0.1538  0.6309 -0.2949
   11MOL   S33011150   3.053   4.923   0.499  0.1197 -0.0964 -0.0145
   11MOL   O33111151   2.921   4.895   0.559  0.8496 -0.1026  0.0218
   11MOL   O33211152   3.061   4.974   0.359 -0.1331  0.1314 -0.0068
   11MOL   C33311153   3.138   5.031   0.609  0.6088  0.4659 -0.3530
   11MOL   C33411154   3.188   4.987   0.728 -0.2221 -0.3847  0.1381
   11MOL   C33511155   3.260   5.082   0.800  0.2515  0.6573  0.2161
   11MOL   C33611156   3.280   5.212   0.758  0.1000  0.6839 -0.1043
   11MOL   O33711157   3.342   5.297   0.852  0.1636 -0.0913  0.1318
   11MOL   C33811158   3.275   5.381   0.927  0.7484 -1.0605 -0.0391
   11MOL   C33911159   3.279   5.368   1.064 -0.2133  0.0910 -0.4797
   11MOL   C34011160   3.210   5.464   1.140 -0.1832  0.2203  0.5195
   11MOL   C34111161   3.136   5.571   1.086 -0.1638 -0.3505  0.4929
   11MOL   C34211162   3.064   5.671   1.178 -0.5944 -1.1041  0.5004
   11MOL   C34311163   3.174   5.739   1.272  0.5773  0.0930 -0.2907
   11MOL   C34411164   2.990   5.787   1.099  0.0673 -0.3263  0.4095
   11MOL   C34511165   2.962   5.583   1.254  0.5497  0.0123  0.0323
   11MOL   C34611166   2.857   5.519   1.183 -0.1870  0.8295 -0.0841
   11MOL   C34711167   2.758   5.435   1.246 -0.1806  0.0317 -0.3423
   11MOL   C34811168   2.772   5.406   1.382  0.2920 -0.6286  0.2101
   11MOL   O34911169   2.685   5.316   1.440 -0.6178 -0.1652  0.7215
   11MOL   C35011170   2.874   5.476   1.450 -0.1892 -0.4435  0.0910
   11MOL   C35111171   2.966   5.561   1.390 -0.0231  0.0904  0.0662
   11MOL   C35211172   3.139   5.582   0.949  0.0204 -0.2280 -0.3305
   11MOL   C35311173   3.211   5.490   0.867 -0.9138  0.6878 -0.0685
   11MOL   C35411174   3.227   5.261   0.635 -0.1982 -0.1122 -0.7374
   11MOL   C35511175   3.161   5.159   0.557  0.4612 -0.5066  0.1571
   11MOL   C35611176   3.121   4.678   0.609  0.2118  0.9313 -0.9039
   11MOL   C35711177   3.185   4.552   0.598 -0.1858  0.2355 -0.1838
   11MOL   H35811178   3.363   4.590   0.307 -0.5034  0.2294  0.1687
   11MOL   H35911179   3.249   4.813   0.328 -0.5924  1.8188  1.9895
   11MOL   H36011180   3.164   4.888   0.764  2.6677 -0.9585  0.6137
   11MOL   H36111181   3.300   5.062   0.898  0.9561 -1.2781 -0.4527
   11MOL   H36211182   3.327   5.282   1.109 -2.8618 -1.4620 -0.5029
   11MOL   H36311183   3.210   5.450   1.247  1.5190 -0.6969  0.4096
   11MOL   H36411184   3.244   5.788   1.204  3.2420 -0.4889  1.9418
   11MOL   H36511185   3.223   5.659   1.327  2.3350 -0.4436 -2.5373
   11MOL   H36611186   3.130   5.812   1.340 -0.3320  0.1962 -0.9716
   11MOL   H36711187   2.913   5.747   1.034 -1.4864  3.1047  0.0571
   11MOL   H36811188   2.939   5.851   1.171 -0.3281  0.0739 -0.2224
   11MOL   H36911189   3.056   5.851   1.041  1.1228 -1.7140  0.0355
   11MOL   H37011190   2.859   5.531   1.075  0.9752  2.1242  0.0662
   11MOL   H37111191   2.681   5.394   1.183 -1.7249  4.1742 -1.2726
   11MOL   H37211192   2.896   5.455   1.554 -0.7343 -1.4543  0.0116
   11MOL   H37311193   3.037   5.611   1.454 -0.2887  2.4105 -1.4126
   11MOL   H37411194   3.094   5.663   0.895  1.4827  2.2790  2.0720
   11MOL   H37511195   3.225   5.511   0.762 -0.5553 -0.1188 -0.1859
   11MOL   H37611196   3.242   5.360   0.594  0.7520  0.0264 -0.0685
   11MOL   H37711197   3.120   5.192   0.463 -0.0193  1.6459  1.0885
   11MOL   H37811198   3.071   4.691   0.704  0.9049  0.7764 -0.5106
   11MOL   H37911199   3.179   4.483   0.681 -2.4838  1.4157  0.6936
   11MOL   C38011200   2.734   5.222   1.526 -0.5121 -0.0638 -0.8323
   11MOL   C38111201   2.877   5.192   1.535 -0.1606  0.2805 -0.1640
   11MOL   C38211202   2.933   5.123   1.635 -0.4060  0.4458  0.5921
   11MOL   C38311203   2.848   5.055   1.726 -0.2236  0.1217  0.2118
   11MOL   S38411204   2.929   4.949   1.851  0.4974  0.3228 -0.3419
   11MOL   O38511205   2.840   4.960   1.972 -0.1268 -0.2860  0.2500
   11MOL   O38611206   3.072   4.985   1.855  0.4132 -0.1955  0.2035
   11MOL   C38711207   2.906   4.783   1.776  0.1553  0.1934  0.4279
   11MOL   C38811208   2.908   4.759   1.636 -0.7874  0.2347 -0.3752
   11MOL   C38911209   2.908   4.625   1.593  0.5852 -0.0114 -0.6005
   11MOL   C39011210   2.899   4.513   1.678 -0.2913  0.0423  0.3342
   11MOL   O39111211   2.891   4.386   1.630  0.2157 -0.6727  0.4974
   11MOL   C39211212   2.767   4.330   1.627 -0.8108 -0.5737 -0.2276
   11MOL   C39311213   2.673   4.354   1.522  0.6514 -0.6786  0.1654
   11MOL   C39411214   2.540   4.303   1.526  0.0635  0.2335  0.3526
   11MOL   C39511215   2.506   4.217   1.636  0.1238  0.1740 -0.2971
   11MOL   C39611216   2.358   4.164   1.655 -0.7448  0.0316  0.0619
   11MOL   C39711217   2.297   4.245   1.773 -0.4872  0.6450  0.3696
   11MOL   C39811218   2.261   4.196   1.540 -0.6454  0.3353 -0.0452
   11MOL   C39911219   2.358   4.013   1.682  0.2771  0.1280  0.1607
   11MOL   C40011220   2.416   3.926   1.586  1.6443 -0.2824 -0.2864
   11MOL   C40111221   2.414   3.791   1.616  0.1231 -0.2102  0.1541
   11MOL   C40211222   2.362   3.734   1.734  0.2537 -0.9253  0.5585
   11MOL   O40311223   2.360   3.606   1.759 -0.1722 -0.6093 -0.1152
   11MOL   C40411224   2.296   3.819   1.818  0.1464  0.3445 -1.2943
   11MOL   C40511225   2.291   3.959   1.795 -0.1057 -0.1710  1.1206
   11MOL   C40611226   2.600   4.198   1.734  0.8209  0.0594 -0.9203
   11MOL   C40711227   2.732   4.251   1.732 -0.1499 -0.3700  0.2693
   11MOL   C40811228   2.905   4.537   1.817 -0.1878 -0.5526  0.2060
   11MOL   C40911229   2.901   4.672   1.866  0.4893  0.1424  0.8366
   11MOL   C41011230   2.708   5.068   1.716  0.2715  0.4646 -0.6159
   11MOL   C41111231   2.655   5.162   1.621  1.0603 -0.0887 -0.2645
   11MOL   H41211232   2.943   5.240   1.464  0.6212 -0.7528 -0.1528
   11MOL   H41311233   3.040   5.118   1.638 -0.4459 -0.1293  1.1249
   11MOL   H41411234   2.903   4.839   1.564 -1.2800  0.1846 -0.4021
   11MOL   H41511235   2.914   4.606   1.487  0.8963  1.5830 -0.8874
   11MOL   H41611236   2.706   4.423   1.445  4.2002 -0.6174  1.6598
   11MOL   H41711237   2.465   4.315   1.449 -3.8015 -1.2475  3.7455
   11MOL   H41811238   2.357   4.218   1.859 -0.2129 -0.0361 -0.0328
   11MOL   H41911239   2.192   4.218   1.786 -0.1587 -1.4253 -0.9846
   11MOL   H42011240   2.296   4.354   1.765  0.1592  0.3914 -4.7424
   11MOL   H42111241   2.294   4.151   1.446  0.0521 -0.8117  0.7390
   11MOL   H42211242   2.166   4.145   1.557 -1.4999  1.5782 -0.9633
   11MOL   H42311243   2.242   4.303   1.533  0.9339  0.5744 -0.8826
   11MOL   H42411244   2.453   3.954   1.488 -0.9493 -3.3894 -2.2434
   11MOL   H42511245   2.460   3.716   1.553 -0.1022 -0.7108  0.5792
   11MOL   H42611246   2.232   3.784   1.899  1.9844  0.0478  0.0575
   11MOL   H42711247   2.250   4.026   1.868  1.5124  1.3345  0.7021
   11MOL   H42811248   2.566   4.144   1.821 -0.2230  1.5597 -0.3847
   11MOL   H42911249   2.801   4.237   1.814  1.2978 -1.0284 -1.0436
   11MOL   H43011250   2.899   4.468   1.900 -2.0061 -3.8923 -2.5616
   11MOL   H43111251   2.899   4.694   1.972  0.1113 -0.4886  0.9592
   11MOL   H43211252   2.645   5.022   1.791  0.2822  0.0287 -0.8665
   11MOL   H43311253   2.548   5.175   1.618  0.7692 -2.2797 -0.3021
   11MOL   C43411254   2.456   3.544   1.825  0.4479  0.1149 -0.3442
   11MOL   C43511255   2.435   3.411   1.864  0.4742  0.4292  0.2967
   11MOL   C43611256   2.531   3.336   1.931 -0.0379 -0.3728 -0.8885
   11MOL   C43711257   2.651   3.394   1.970  0.0467  0.2123  0.1308
   11MOL   S43811258   2.771   3.291   2.058  0.3028  0.3097 -0.1221
   11MOL   O43911259   2.889   3.281   1.975  0.0563  0.3293 -0.0645
   11MOL   O44011260   2.705   3.168   2.103  0.0557 -0.6447  0.1049
   11MOL   C44111261   2.815   3.379   2.210 -0.0808 -0.4711 -0.3882
   11MOL   C44211262   2.748   3.501   2.252 -0.5105  0.6676 -0.5070
   11MOL   C44311263   2.769   3.559   2.379 -1.2334 -0.5756  0.1293
   11MOL   C44411264   2.856   3.491   2.469  0.7346  0.1946  0.5197
   11MOL   O44511265   2.889   3.542   2.594 -0.6391  0.9313 -0.3504
   11MOL   C44611266   2.932   3.673   2.607 -0.7702 -0.1351  0.7068
   11MOL   C44711267   3.022   3.737   2.514 -0.0389  0.0122 -0.0078
   11MOL   C44811268   3.050   3.871   2.531  0.2270 -0.4269 -0.4866
   11MOL   C44911269   2.996   3.950   2.633 -0.3039  0.2276  1.0899
   11MOL   C45011270   3.035   4.102   2.644  0.0710 -0.0355 -0.3169
   11MOL   C45111271   2.992   4.168   2.508 -0.1170  0.3031 -0.3456
   11MOL   C45211272   2.954   4.173   2.758  0.6106  0.1529  0.2366
   11MOL   C45311273   3.188   4.108   2.661 -0.6334  0.3829 -0.1680
   11MOL   C45411274   3.266   4.213   2.609  0.2788 -0.6599 -0.1203
   11MOL   C45511275   3.407   4.229   2.628 -0.3088  0.2042  0.6073
   11MOL   C45611276   3.472   4.128   2.688 -0.1811  0.2350 -0.4775
   11MOL   O45711277   3.611   4.127   2.694 -0.2048  0.8209  0.1197
   11MOL   C45811278   3.403   4.024   2.748 -0.1056  0.1132  0.0675
   11MOL   C45911279   3.264   4.011   2.735 -0.4602 -0.1578  0.6760
   11MOL   C46011280   2.906   3.884   2.722  0.3213  0.5076  0.6043
   11MOL   C46111281   2.877   3.751   2.708  0.3330 -0.5303  0.6349
   11MOL   C46211282   2.909   3.362   2.435 -0.0514 -1.1401 -0.5227
   11MOL   C46311283   2.896   3.318   2.306 -0.0291 -0.0208 -0.0732
   11MOL   C46411284   2.683   3.528   1.918 -0.9166 -0.0916  0.5365
   11MOL   C46511285   2.582   3.600   1.850  0.3397 -0.3587  0.5899
   11MOL   H46611286   2.343   3.356   1.850 -1.4602  3.5717 -0.0709
   11MOL   H46711287   2.502   3.237   1.965 -1.9384  0.1897 -0.7902
   11MOL   H46811288   2.692   3.558   2.180 -0.7893  3.0028  1.4735
   11MOL   H46911289   2.734   3.656   2.411  0.7649  0.1552  0.1366
   11MOL   H47011290   3.075   3.689   2.433 -0.6580 -1.4161  0.4242
   11MOL   H47111291   3.114   3.921   2.459 -1.4878 -1.9150 -3.1667
   11MOL   H47211292   3.054   4.134   2.425 -1.3513 -2.6497 -0.1139
   11MOL   H47311293   3.000   4.276   2.511 -0.4278  0.5086 -4.0941
   11MOL   H47411294   2.891   4.138   2.477  0.0564  0.2273 -0.8358
   11MOL   H47511295   2.976   4.280   2.765  0.5405  0.1341  0.7517
   11MOL   H47611296   2.848   4.148   2.758  1.0283 -1.6536  0.9564
   11MOL   H47711297   2.990   4.131   2.851 -0.3712 -1.4288 -0.0727
   11MOL   H47811298   3.213   4.293   2.561  1.2101  1.4318  2.2132
   11MOL   H47911299   3.457   4.316   2.589 -1.3342  0.7282  0.4209
   11MOL   H48011300   3.457   3.951   2.807  2.5049  1.0326 -1.1129
   11MOL   H48111301   3.208   3.933   2.786 -2.3129  0.4502 -0.3562
   11MOL   H48211302   2.874   3.940   2.809  0.1529  0.4785  0.5610
   11MOL   H48311303   2.808   3.708   2.780  0.9554 -2.6390  0.0196
   11MOL   H48411304   2.965   3.312   2.512 -0.8480  0.7237  1.3256
   11MOL   H48511305   2.942   3.225   2.276  1.7676  0.6659  0.5317
   11MOL   H48611306   2.779   3.575   1.934 -1.3779  1.7821 -1.8339
   11MOL   H48711307   2.598   3.698   1.810 -2.3214 -0.4913 -0.9421
   11MOL   C48811308   3.671   4.045   2.599 -0.3655  0.0013  0.0661
   11MOL   C48911309   3.706   4.102   2.474 -0.1864 -0.4453  0.2827
   11MOL   C49011310   3.771   4.025   2.377  0.6781 -0.8178 -0.0840
   11MOL   C49111311   3.790   3.887   2.399  0.2364  0.9516 -0.3234
   11MOL   S49211312   3.846   3.787   2.270 -0.0106 -0.3432 -0.0339
   11MOL   O49311313   3.780   3.656   2.274  0.7567 -0.2535  0.4186
   11MOL   O49411314   3.990   3.799   2.266 -0.7280  0.4346 -0.0078
   11MOL   C49511315   3.788   3.870   2.119 -0.5836  0.0064 -0.8511
   11MOL   C49611316   3.658   3.919   2.107 -0.0021 -0.3086 -0.4483
   11MOL   C49711317   3.617   3.981   1.984  0.6049 -0.1810  0.6420
   11MOL   C49811318   3.701   3.983   1.875  0.0742 -0.2761 -0.0930
   11MOL   O49911319   3.664   4.015   1.752 -0.1293 -0.3824 -0.2842
   11MOL   C50011320   3.629   3.909   1.665 -0.1409  0.6257 -0.1775
   11MOL   C50111321   3.725   3.838   1.592 -0.7239  0.0450  0.4223
   11MOL   C50211322   3.695   3.742   1.493  0.0268  0.6860 -0.3697
   11MOL   C50311323   3.560   3.724   1.456  0.0482 -0.6057 -0.0365
   11MOL   C50411324   3.517   3.628   1.350  1.0601 -0.2689 -0.6993
   11MOL   C50511325   3.630   3.565   1.273 -0.6694 -0.3086  0.3019
   11MOL   C50611326   3.443   3.514   1.427 -0.9407 -0.6156  0.2491
   11MOL   C50711327   3.438   3.700   1.245  0.1987 -0.3027  0.3640
   11MOL   C50811328   3.496   3.816   1.177  0.1683 -0.0759  0.0658
   11MOL   C50911329   3.421   3.885   1.083 -0.0565  0.2810  0.4186
   11MOL   C51011330   3.292   3.845   1.051 -0.3614  0.4995  0.0825
   11MOL   O51111331   3.214   3.915   0.968  0.8295  0.4470  0.1867
   11MOL   C51211332   3.238   3.725   1.108 -0.1973  0.2006 -0.5775
   11MOL   C51311333   3.309   3.650   1.203  0.9495  0.1875 -0.1149
   11MOL   C51411334   3.461   3.787   1.544 -0.2998  0.9410 -0.5829
   11MOL   C51511335   3.496   3.879   1.646  0.0496  0.6526 -0.1865
   11MOL   C51611336   3.835   3.938   1.896  0.3077 -0.0665  0.4238
   11MOL   C51711337   3.872   3.878   2.014  0.0296 -0.4150 -0.6917
   11MOL   C51811338   3.746   3.826   2.521  0.2141 -0.3254  0.5560
   11MOL   C51911339   3.684   3.906   2.621 -0.0957 -0.0816  0.0468
   11MOL   H52011340   3.692   4.209   2.470 -0.0069 -0.3428  1.8833
   11MOL   H52111341   3.805   4.070   2.285 -3.1327  0.1421 -1.1066
   11MOL   H52211342   3.582   3.903   2.181 -0.0758 -1.1815 -0.7018
   11MOL   H52311343   3.515   4.014   1.969  0.8751  0.2855 -0.2292
   11MOL   H52411344   3.827   3.857   1.623 -1.2339 -1.0438  2.8719
   11MOL   H52511345   3.778   3.696   1.440  1.0081  0.3821  1.3934
   11MOL   H52611346   3.701   3.635   1.230  0.3714 -0.6933  1.3733
   11MOL   H52711347   3.600   3.498   1.194  3.5295 -0.2944 -1.4061
   11MOL   H52811348   3.688   3.500   1.338  1.8919  2.2984  0.7197
   11MOL   H52911349   3.349   3.547   1.470  0.0157  1.7624  0.6112
   11MOL   H53011350   3.423   3.431   1.359  0.7427 -1.5470  0.8611
   11MOL   H53111351   3.496   3.472   1.512 -1.8429  1.8857  2.0839
   11MOL   H53211352   3.592   3.848   1.214  0.7507 -1.7632  0.0712
   11MOL   H53311353   3.463   3.972   1.034  0.1330  0.6541  1.2436
   11MOL   H53411354   3.143   3.686   1.074  0.3198 -1.7401  0.1488
   11MOL   H53511355   3.259   3.567   1.249 -0.3349 -0.4017 -2.4581
   11MOL   H53611356   3.356   3.767   1.532 -0.0722  0.7655 -2.4009
   11MOL   H53711357   3.419   3.937   1.696 -0.6983 -0.5179  0.0299
   11MOL   H53811358   3.907   3.939   1.815 -2.3183 -0.3381 -2.0005
   11MOL   H53911359   3.973   3.839   2.014 -0.0350 -0.5747 -0.2252
   11MOL   H54011360   3.751   3.719   2.515 -4.4377 -0.7025  1.6735
   11MOL   H54111361   3.643   3.865   2.712 -1.5570 -2.6922 -1.7270
   11MOL   C54211362   3.170   4.039   1.012 -0.3652  0.5956  1.1020
   11MOL   C54311363   3.169   4.148   0.926  0.4463  0.5297  0.2753
   11MOL   C54411364   3.123   4.272   0.969 -0.5820  0.3392  0.3103
   11MOL   C54511365   3.073   4.287   1.099 -0.1285  0.2098 -0.2049
   11MOL   S54611366   3.022   4.453   1.145  0.1636  0.1759 -0.2403
   11MOL   O54711367   3.124   4.544   1.094 -0.1575  0.7587  0.6458
   11MOL   O54811368   3.002   4.452   1.287  0.4970 -0.1449  0.4853
   11MOL   C54911369   2.873   4.481   1.059 -0.0887 -0.4741 -0.4836
   11MOL   C55011370   2.754   4.425   1.101 -0.9707  0.4737  0.1666
   11MOL   C55111371   2.636   4.436   1.027  0.2059  0.5682 -0.0178
   11MOL   C55211372   2.641   4.510   0.907  0.3733  0.4774  0.5912
   11MOL   O55311373   2.519   4.537   0.854  0.1502 -0.5697 -0.0108
   11MOL   C55411374   2.511   4.628   0.751  0.0783 -0.3772 -0.2199
   11MOL   C55511375   2.507   4.582   0.617  0.2674 -0.2009  0.1842
   11MOL   C55611376   2.493   4.678   0.515 -0.0690  0.2495 -0.0485
   11MOL   C55711377   2.489   4.817   0.542  0.2615 -0.1928  0.2291
   11MOL   C55811378   2.497   4.920   0.433 -0.2056  0.5924 -0.4924
   11MOL   C55911379   2.646   4.944   0.411 -0.0239  0.2461 -0.1367
   11MOL   C56011380   2.449   4.876   0.292  0.0980 -0.3197 -0.0976
   11MOL   C56111381   2.409   5.049   0.464  0.2094  0.4501 -0.5477
   11MOL   C56211382   2.269   5.039   0.492 -0.8295 -0.5833  0.4688
   11MOL   C56311383   2.190   5.159   0.510 -0.1964  0.3907  0.3817
   11MOL   C56411384   2.256   5.279   0.524 -0.6078  0.0880 -0.2557
   11MOL   O56511385   2.185   5.393   0.547 -0.0107 -0.5441  0.6720
   11MOL   C56611386   2.396   5.292   0.519 -0.1757  0.0876 -0.7541
   11MOL   C56711387   2.469   5.177   0.476  0.1802  0.2138  0.2697
   11MOL   C56811388   2.477   4.858   0.678 -0.7380  0.9742 -0.0403
   11MOL   C56911389   2.489   4.765   0.779 -0.4120 -0.0765 -0.5465
   11MOL   C57011390   2.762   4.561   0.856 -0.3966  0.1209 -0.1001
   11MOL   C57111391   2.881   4.545   0.930  0.1649  0.1282 -0.5683
   11MOL   C57211392   3.068   4.180   1.195  0.3786 -0.1549 -0.2885
   11MOL   C57311393   3.124   4.058   1.143  0.1597 -0.3645  0.2776
   11MOL   H57411394   3.206   4.132   0.826 -2.0982  0.4432 -0.6817
   11MOL   H57511395   3.140   4.351   0.897  0.6927 -0.7238 -0.5726
   11MOL   H57611396   2.764   4.365   1.190  0.8514 -0.1738 -0.4352
   11MOL   H57711397   2.542   4.400   1.066 -0.2967 -0.4184 -2.0465
   11MOL   H57811398   2.510   4.482   0.578 -0.7689  0.2046 -0.9595
   11MOL   H57911399   2.512   4.642   0.415  2.7526  1.4410  0.0348
   11MOL   H58011400   2.658   5.011   0.326  2.3400 -0.7216 -0.6140
   11MOL   H58111401   2.710   4.857   0.399  0.1460  0.4167 -0.4843
   11MOL   H58211402   2.683   4.996   0.499 -1.1296  2.2949 -0.8402
   11MOL   H58311403   2.425   4.958   0.224 -2.0199 -1.8600 -1.2932
   11MOL   H58411404   2.511   4.805   0.236  3.1664  2.4254 -0.3156
   11MOL   H58511405   2.349   4.834   0.308 -0.7783  2.3202  1.6347
   11MOL   H58611406   2.214   4.948   0.476 -0.2012 -0.6898 -1.1466
   11MOL   H58711407   2.083   5.153   0.496 -0.2949 -1.0835  1.5385
   11MOL   H58811408   2.443   5.388   0.535 -0.4004 -0.0041  0.4522
   11MOL   H58911409   2.574   5.194   0.456  0.1063  0.1105 -0.2132
   11MOL   H59011410   2.467   4.963   0.699  1.5548  1.5716 -1.7853
   11MOL   H59111411   2.481   4.799   0.881 -2.4884 -0.9650 -0.3871
   11MOL   H59211412   2.761   4.612   0.760 -0.2874  0.1874 -0.0665
   11MOL   H59311413   2.967   4.596   0.889  1.3932 -2.2238 -0.9898
   11MOL   H59411414   3.030   4.185   1.296  0.8356 -2.0013 -0.0088
   11MOL   H59511415   3.123   3.968   1.203 -0.0852 -1.0829 -0.7987
   11MOL   C59611416   2.088   5.397   0.640  0.3192  1.0473 -0.0841
   11MOL   C59711417   2.115   5.341   0.768  0.9018  0.7440 -0.1865
   11MOL   C59811418   2.026   5.357   0.869 -0.2663 -0.3642 -0.3082
   11MOL   C59911419   1.913   5.438   0.856 -0.1985 -0.0041  0.4621
   11MOL   S60011420   1.797   5.471   0.991  0.2474  0.2838 -0.2069
   11MOL   O60111421   1.791   5.348   1.075 -0.5205 -0.7656 -0.1489
   11MOL   O60211422   1.677   5.525   0.930  0.0400 -0.3773 -0.0570
   11MOL   C60311423   1.880   5.589   1.091  0.2302 -1.0352 -0.4288
   11MOL   C60411424   1.875   5.570   1.231 -0.4279  0.3259 -0.7155
   11MOL   C60511425   1.937   5.667   1.314 -0.1180  0.0640  0.5240
   11MOL   C60611426   2.010   5.775   1.255  0.0772  0.1588 -0.3815
   11MOL   O60711427   2.065   5.872   1.337  0.1774  0.3494  0.1478
   11MOL   C60811428   2.200   5.876   1.346  0.0477  0.0619  0.9228
   11MOL   C60911429   2.259   5.994   1.388  0.4127  0.0979 -0.7690
   11MOL   C61011430   2.394   5.998   1.417  0.8720  0.4279 -0.2832
   11MOL   C61111431   2.474   5.887   1.403 -0.0792  0.6463  0.5449
   11MOL   C61211432   2.620   5.897   1.453  0.3453 -0.0843  0.5281
   11MOL   C61311433   2.609   5.938   1.602 -0.0520 -0.0368 -0.2342
   11MOL   C61411434   2.694   5.760   1.444 -0.4522  0.3562 -0.0844
   11MOL   C61511435   2.699   6.001   1.374  0.4138 -0.1805  0.2711
   11MOL   C61611436   2.817   6.060   1.433  0.5392 -0.6176  0.2899
   11MOL   C61711437   2.888   6.163   1.363  0.0361  0.0251 -0.0141
   11MOL   C61811438   2.852   6.201   1.235 -0.2895 -0.4778  0.5282
   11MOL   O61911439   2.933   6.286   1.168 -0.4303 -0.6263  0.4022
   11MOL   C62011440   2.747   6.137   1.173  0.0402  0.6944  0.3083
   11MOL   C62111441   2.667   6.036   1.240 -0.0777  0.4023  0.7098
   11MOL   C62211442   2.416   5.771   1.349  0.1011 -0.0286 -0.0318
   11MOL   C62311443   2.276   5.760   1.326 -0.3756  0.0447 -0.4048
   11MOL   C62411444   2.016   5.787   1.117 -0.2745 -0.4250 -0.2450
   11MOL   C62511445   1.946   5.702   1.034 -0.3894  0.4205 -0.3013
   11MOL   C62611446   1.889   5.505   0.728 -1.0610  0.8502  0.7070
   11MOL   C62711447   1.979   5.480   0.619  0.3155 -1.0417 -0.6098
   11MOL   H62811448   2.209   5.290   0.788  0.1122 -0.9456 -0.6964
   11MOL   H62911449   2.049   5.320   0.968  0.2085  1.8826  0.4384
   11MOL   H63011450   1.826   5.485   1.276  1.3288  1.2154  3.1001
   11MOL   H63111451   1.943   5.652   1.421  3.3902 -1.6696  0.1691
   11MOL   H63211452   2.193   6.073   1.420 -1.1482 -1.4323 -0.1152
   11MOL   H63311453   2.427   6.089   1.466  2.0834 -0.7172  1.0528
   11MOL   H63411454   2.703   5.924   1.654  0.7099  2.2565 -0.9339
   11MOL   H63511455   2.534   5.879   1.655  1.4090 -0.1564  1.7380
   11MOL   H63611456   2.570   6.040   1.602 -2.2861 -0.8504 -1.5955
   11MOL   H63711457   2.646   5.674   1.488 -0.2279 -1.4337 -3.1889
   11MOL   H63811458   2.718   5.744   1.339  1.7792  2.4199  0.0378
   11MOL   H63911459   2.789   5.778   1.496 -0.2740  0.2031 -0.3555
   11MOL   H64011460   2.858   6.018   1.523 -0.2161 -0.9839  0.4625
   11MOL   H64111461   2.979   6.201   1.409  0.2014  0.8707 -1.0308
   11MOL   H64211462   2.738   6.163   1.068 -1.6266  0.8724  0.4758
   11MOL   H64311463   2.595   5.985   1.179  0.2762 -3.4718  3.4021
   11MOL   H64411464   2.486   5.693   1.323  0.7221  0.4336  0.2259
   11MOL   H64511465   2.231   5.665   1.303 -2.4583  0.7566  0.5480
   11MOL   H64611466   2.055   5.874   1.068  0.2827 -1.8234 -2.3662
   11MOL   H64711467   1.950   5.709   0.927 -2.4081  2.4329 -0.2615
   11MOL   H64811468   1.806   5.573   0.710  1.2411  3.2694 -1.2559
   11MOL   H64911469   1.952   5.534   0.530 -1.1576 -0.9610 -0.1317
   11MOL   C65011470   2.950   6.411   1.233 -0.8782  0.7327  0.2376
   11MOL   C65111471   3.070   6.488   1.220 -1.0970 -0.6424 -0.4123
   11MOL   C65211472   3.085   6.606   1.287  0.1020 -0.1263  0.3341
   11MOL   C65311473   2.988   6.658   1.375  0.7393 -0.8716 -0.2674
   11MOL   S65411474   3.029   6.803   1.475 -0.2997  0.4858 -0.3327
   11MOL   O65511475   3.101   6.905   1.395 -0.2391 -0.5776  0.4991
   11MOL   O65611476   3.084   6.759   1.603  0.3632 -0.7374 -0.4437
   11MOL   C65711477   2.863   6.881   1.502 -0.5752 -0.9662  0.3822
   11MOL   C65811478   2.836   6.926   1.636 -0.4771  0.2226 -1.0349
   11MOL   C65911479   2.710   6.984   1.655 -0.2936  0.3813 -0.0674
   11MOL   C66011480   2.612   6.988   1.550 -0.1294  0.6426 -0.7729
   11MOL   O66111481   2.480   7.020   1.564  0.1543  0.3953  0.6525
   11MOL   C66211482   2.460   7.128   1.646  1.7441 -0.2838 -0.1995
   11MOL   C66311483   2.426   7.117   1.785  0.0424  0.0709 -0.0231
   11MOL   C66411484   2.411   7.235   1.862  0.2174 -0.2196 -0.1720
   11MOL   C66511485   2.426   7.365   1.801 -0.4362  0.2591 -0.3639
   11MOL   C66611486   2.398   7.495   1.882  0.0883  0.7635 -0.7355
   11MOL   C66711487   2.404   7.468   2.033  0.4620  0.1943 -0.3692
   11MOL   C66811488   2.495   7.603   1.848  0.1701  0.0093  0.4371
   11MOL   C66911489   2.253   7.541   1.860  0.6647 -0.4293 -0.4140
   11MOL   C67011490   2.152   7.445   1.868 -0.4785  0.5994  0.1842
   11MOL   C67111491   2.016   7.480   1.851  0.8766  0.0720  0.2723
   11MOL   C67211492   1.979   7.615   1.844  0.3936 -0.8513  0.9374
   11MOL   O67311493   1.849   7.651   1.864  0.0005 -0.0401  0.1276
   11MOL   C67411494   2.081   7.712   1.822  0.1107 -0.6214 -0.6572
   11MOL   C67511495   2.217   7.674   1.839  0.1261  0.5819  0.2464
   11MOL   C67611496   2.451   7.369   1.664 -0.5595  0.6054  0.2181
   11MOL   C67711497   2.464   7.253   1.585  0.4931 -1.1546 -0.4332
   11MOL   C67811498   2.647   6.931   1.424 -0.3760 -0.0410 -0.3769
   11MOL   C67911499   2.776   6.886   1.398 -0.1466 -0.2642  0.0704
   11MOL   C68011500   2.876   6.576   1.398  0.0598 -0.2334 -0.2383
   11MOL   C68111501   2.850   6.465   1.313  0.8063 -0.5490 -0.1902
   11MOL   H68211502   3.155   6.448   1.167  0.5176 -0.1777  1.7366
   11MOL   H68311503   3.178   6.661   1.280  1.1123 -1.7964  0.1778
   11MOL   H68411504   2.906   6.915   1.717 -1.1222 -1.1657 -0.6504
   11MOL   H68511505   2.686   7.023   1.752  0.4849  0.8573 -0.0646
   11MOL   H68611506   2.413   7.020   1.830  0.5333 -0.7639 -1.6318
   11MOL   H68711507   2.394   7.219   1.967 -1.5146 -1.0733 -0.5712
   11MOL   H68811508   2.373   7.552   2.094  1.6825  0.1051  0.3888
   11MOL   H68911509   2.506   7.440   2.061  0.3483  2.3286  2.4046
   11MOL   H69011510   2.328   7.397   2.067 -0.9841  1.1337 -1.5800
   11MOL   H69111511   2.498   7.637   1.745  0.9150  1.0849  0.8031
   11MOL   H69211512   2.460   7.690   1.905 -0.7656  1.3019 -2.0415
   11MOL   H69311513   2.598   7.589   1.879  0.5219 -1.2965 -1.2472
   11MOL   H69411514   2.193   7.348   1.890  0.8396  1.0456 -0.2818
   11MOL   H69511515   1.933   7.412   1.860 -0.4348  1.2327 -2.4154
   11MOL   H69611516   2.057   7.816   1.808 -0.1099 -0.3932  1.2967
   11MOL   H69711517   2.283   7.757   1.824 -0.1954  0.7254 -0.4007
   11MOL   H69811518   2.454   7.465   1.613 -1.0850 -0.2809 -1.5366
   11MOL   H69911519   2.491   7.266   1.481 -2.1642  1.8679 -0.8512
   11MOL   H70011520   2.576   6.931   1.343 -0.8999 -1.1997  0.0642
   11MOL   H70111521   2.812   6.857   1.300 -4.0911 -1.7185 -1.0502
   11MOL   H70211522   2.797   6.606   1.465  0.0852 -0.7871  0.0409
   11MOL   H70311523   2.755   6.417   1.334  1.2625 -0.5234  2.0291
   11MOL   C70411524   1.767   7.670   1.758  0.9219  0.4057  0.3178
   11MOL   C70511525   1.656   7.767   1.759  0.5555 -0.4103  0.0609
   11MOL   C70611526   1.580   7.797   1.650 -0.1453  0.0208  0.5871
   11MOL   C70711527   1.610   7.737   1.529  0.8932 -0.5772 -0.1188
   11MOL   S70811528   1.495   7.753   1.395  0.1667  0.0963  0.3211
   11MOL   O70911529   1.391   7.848   1.434  0.0076  0.2022  0.8001
   11MOL   O71011530   1.455   7.617   1.356  0.1145  0.1302 -0.3227
   11MOL   C71111531   1.592   7.816   1.256  0.2265 -0.7149 -0.8035
   11MOL   C71211532   1.586   7.754   1.131 -0.0892 -0.3500 -0.0828
   11MOL   C71311533   1.659   7.802   1.019  0.1617 -0.3592 -0.1466
   11MOL   C71411534   1.733   7.920   1.039  0.3039 -0.8202 -0.0092
   11MOL   O71511535   1.813   7.968   0.938 -0.2084  0.2473 -0.1964
   11MOL   C71611536   1.946   7.981   0.952  0.0873 -0.0528  0.2834
   11MOL   C71711537   2.027   7.871   0.935  0.6704 -0.6126  0.1294
   11MOL   C71811538   2.160   7.891   0.933  0.4805  0.0452  0.1433
   11MOL   C71911539   2.226   8.013   0.945 -0.0235 -1.2054  0.0653
   11MOL   C72011540   2.380   8.036   0.944  0.1289  0.7623 -0.1640
   11MOL   C72111541   2.418   8.127   1.064  0.7858  0.5240  0.2010
   11MOL   C72211542   2.449   7.899   0.978 -0.0965 -0.0734 -0.1169
   11MOL   C72311543   2.423   8.090   0.811 -0.3664 -0.2399 -0.4657
   11MOL   C72411544   2.364   8.044   0.691  0.1162  0.4770  0.6475
   11MOL   C72511545   2.401   8.092   0.564  0.3030 -0.3432 -0.0897
   11MOL   C72611546   2.495   8.192   0.552  0.3966 -0.8903  0.2937
   11MOL   O72711547   2.525   8.237   0.426  0.0570  0.4688 -0.0882
   11MOL   C72811548   2.560   8.237   0.666  0.1067 -0.4773 -0.0045
   11MOL   C72911549   2.526   8.188   0.795  0.7872  0.6944  0.6466
   11MOL   C73011550   2.142   8.126   0.957  0.1016 -0.3348 -0.0968
   11MOL   C73111551   2.002   8.112   0.967  0.1386 -0.6538 -0.4169
   11MOL   C73211552   1.738   7.980   1.165 -0.0381 -0.6071 -0.1232
   11MOL   C73311553   1.673   7.933   1.277  0.4159 -0.3198  0.0382
   11MOL   C73411554   1.708   7.641   1.520 -0.7841  0.1355 -0.1875
   11MOL   C73511555   1.794   7.611   1.632  0.5008  0.2061  0.1280
   11MOL   H73611556   1.631   7.811   1.855  0.4920  0.7405 -0.4828
   11MOL   H73711557   1.499   7.869   1.652 -0.4452 -0.2270 -1.6666
   11MOL   H73811558   1.516   7.672   1.120 -0.7897  0.0735  1.1175
   11MOL   H73911559   1.663   7.747   0.926  0.9877  0.0391 -0.3546
   11MOL   H74011560   1.996   7.768   0.924 -0.3236 -0.4372  1.1505
   11MOL   H74111561   2.229   7.810   0.913 -0.3833 -0.8531  0.7832
   11MOL   H74211562   2.526   8.140   1.071  0.5758  2.7662 -0.5093
   11MOL   H74311563   2.386   8.082   1.158 -1.1198 -0.0405 -0.6871
   11MOL   H74411564   2.386   8.231   1.056 -3.3256 -0.6558  0.1427
   11MOL   H74511565   2.557   7.910   0.988 -0.0524 -0.0612 -0.5985
   11MOL   H74611566   2.403   7.855   1.067  0.3329  0.4604  0.3755
   11MOL   H74711567   2.437   7.824   0.899  0.2996 -1.5957  1.2285
   11MOL   H74811568   2.294   7.961   0.698  2.1996 -1.3046  0.8895
   11MOL   H74911569   2.352   8.043   0.481  1.7352 -1.0467 -0.5244
   11MOL   H75011570   2.646   0.048   0.657 -1.5832  2.2058  2.2612
   11MOL   H75111571   2.582   8.222   0.881 -1.1815  2.1377  1.3999
   11MOL   H75211572   2.180   8.226   0.971  0.2108 -0.4950  0.7975
   11MOL   H75311573   1.944   8.202   0.983 -0.6732 -1.0978 -0.8495
   11MOL   H75411574   1.804   8.065   1.180 -0.5035 -0.5932  2.0049
   11MOL   H75511575   1.665   7.982   1.373  2.2367 -0.2414  0.1559
   11MOL   H75611576   1.726   7.591   1.426  0.0034 -0.3340  0.2020
   11MOL   H75711577   1.874   7.542   1.609 -0.5629 -1.2432  0.6934
   11MOL   C75811578   2.569   0.109   0.398  0.0799  0.0331  0.1866
   11MOL   C75911579   2.480   0.210   0.372  0.4085 -0.1106  0.0447
   11MOL   C76011580   2.520   0.344   0.359  0.1220 -0.0714  0.1594
   11MOL   C76111581   2.653   0.375   0.373 -0.5361  0.9248 -0.0701
   11MOL   S76211582   2.704   0.550   0.370  0.3377 -0.2592 -0.1490
   11MOL   O76311583   2.781   0.576   0.493  0.2640  0.5242 -0.5769
   11MOL   O76411584   2.585   0.628   0.330  0.0148 -0.8484  0.4544
   11MOL   C76511585   2.832   0.571   0.232 -0.3990 -1.1993 -0.3058
   11MOL   C76611586   2.799   0.632   0.108 -0.4557 -0.3867  0.9002
   11MOL   C76711587   2.888   0.634   8.252 -0.9119 -0.3339  0.0769
   11MOL   C76811588   3.021   0.591   0.028  0.1933  0.7654 -0.2024
   11MOL   O76911589   3.117   0.581   8.180 -0.0565 -0.4544 -0.4910
   11MOL   C77011590   3.161   0.454   8.148 -0.0416  0.3877  0.0989
   11MOL   C77111591   3.300   0.420   8.150 -0.4168 -0.0158  0.0551
   11MOL   C77211592   3.351   0.296   8.105 -0.0734  0.0510  0.0402
   11MOL   C77311593   3.254   0.209   8.052 -0.5198 -0.3610  0.3420
   11MOL   C77411594   3.287   0.078   7.977 -0.7516  0.2640 -0.1850
   11MOL   C77511595   3.439   0.057   7.962  0.0325  0.3819 -1.0614
   11MOL   C77611596   3.223   8.217   8.071 -0.2176  0.7963  0.1359
   11MOL   C77711597   3.230   0.076   7.838  0.2103  0.1391  0.2666
   11MOL   C77811598   3.206   0.191   7.757 -1.0529 -0.2388  0.2188
   11MOL   C77911599   3.171   0.188   7.622 -0.4869 -0.4515 -0.8638
   11MOL   C78011600   3.154   0.064   7.562 -0.0094 -0.0026 -0.8871
   11MOL   O78111601   3.126   0.056   7.424 -0.5266 -0.3729  0.4150
   11MOL   C78211602   3.170   8.197   7.637 -0.4042  0.3307  0.0900
   11MOL   C78311603   3.208   8.202   7.773 -0.5488 -0.0955 -0.7716
   11MOL   C78411604   3.117   0.240   8.050 -0.2128  0.7205  0.3600
   11MOL   C78511605   3.069   0.361   8.097  0.1580  0.1823  0.3217
   11MOL   C78611606   3.060   0.544   0.154 -0.0245  0.2881  0.4578
   11MOL   C78711607   2.964   0.532   0.257  0.1817  0.1503 -0.4081
   11MOL   C78811608   2.750   0.277   0.394 -0.6780  0.5754 -0.2144
   11MOL   C78911609   2.706   0.142   0.406  0.2340 -0.4593  0.0311
   11MOL   H79011610   2.375   0.194   0.355 -0.0148  1.2321  1.2603
   11MOL   H79111611   2.448   0.424   0.348  1.6581  1.3619  0.3175
   11MOL   H79211612   2.696   0.662   0.094 -0.0215  0.6362 -0.2668
   11MOL   H79311613   2.871   0.674   8.153  2.0136  3.1618  0.8814
   11MOL   H79411614   3.366   0.492   8.196 -0.5518 -0.2593  0.6262
   11MOL   H79511615   3.458   0.279   8.100 -0.3068 -1.2409 -0.8828
   11MOL   H79611616   3.442   8.216   7.908 -3.5745 -1.2486  1.4051
   11MOL   H79711617   3.504   0.052   8.049 -1.7418 -0.4931  0.2332
   11MOL   H79811618   3.480   0.136   7.899  0.0282 -1.2748 -3.2279
   11MOL   H79911619   3.114   8.220   8.067 -0.2642  2.0046  1.4865
   11MOL   H80011620   3.270   8.120   8.056 -2.3687 -0.1818 -0.4586
   11MOL   H80111621   3.246   8.240   8.175 -2.0493  2.9673  0.1071
   11MOL   H80211622   3.229   0.289   7.796  1.0058 -0.8010  0.4471
   11MOL   H80311623   3.152   0.275   7.561 -0.6838 -0.5841 -0.9928
   11MOL   H80411624   3.159   8.102   7.588 -1.7650  0.6802 -0.2857
   11MOL   H80511625   3.214   8.108   7.826 -0.7989 -0.1954 -0.9231
   11MOL   H80611626   3.047   0.177   7.998  1.2022 -0.0801 -0.6093
   11MOL   H80711627   2.964   0.386   8.097  0.5554  1.9407  0.1543
   11MOL   H80811628   3.165   0.525   0.173  0.1480 -0.7598 -1.3899
   11MOL   H80911629   2.993   0.486   0.350  1.5858  0.3832 -0.7315
   11MOL   H81011630   2.855   0.302   0.404  0.1087 -2.0893 -1.3249
   11MOL   H81111631   2.774   0.063   0.435 -2.2269 -2.5189  0.3832
   11MOL   C81211632   3.005   0.103   7.390 -0.2354 -0.4631  0.0944
   11MOL   C81311633   2.992   0.238   7.347 -0.2665 -0.1685  0.3556
   11MOL   C81411634   2.868   0.289   7.304 -0.4939  0.1498 -0.5424
   11MOL   C81511635   2.761   0.201   7.288  0.6267 -0.2178 -0.0180
   11MOL   S81611636   2.607   0.270   7.244  0.1945 -0.3919 -0.1531
   11MOL   O81711637   2.571   0.357   7.358 -0.4540  1.0126 -0.2799
   11MOL   O81811638   2.515   0.166   7.198  0.3434  0.1546  0.3184
   11MOL   C81911639   2.622   0.388   7.108 -0.5939 -0.7641  0.1330
   11MOL   C82011640   2.742   0.403   7.034  0.3520  0.2639 -0.6216
   11MOL   C82111641   2.744   0.492   6.923 -0.3252  0.0473 -0.9025
   11MOL   C82211642   2.628   0.564   6.893 -0.6252  0.3515  0.5222
   11MOL   O82311643   2.632   0.661   6.801  0.0522  0.2799  0.2279
   11MOL   C82411644   2.611   0.617   6.675  0.0437 -1.0177  0.4305
   11MOL   C82511645   2.496   0.661   6.616 -0.5257  0.3203  0.3147
   11MOL   C82611646   2.477   0.628   6.481 -0.4530 -0.1285 -0.5130
   11MOL   C82711647   2.576   0.562   6.406 -0.7084  0.1896  0.0289
   11MOL   C82811648   2.557   0.519   6.264 -0.5399 -0.2168 -0.2427
   11MOL   C82911649   2.457   0.614   6.198  0.4194 -0.5007 -0.1232
   11MOL   C83011650   2.689   0.540   6.177 -0.1907 -0.0593  0.4226
   11MOL   C83111651   2.510   0.364   6.254  0.4788 -0.0598  0.4766
   11MOL   C83211652   2.387   0.321   6.309  0.3684  1.1621 -0.4141
   11MOL   C83311653   2.337   0.195   6.288  0.9672  0.4730  0.6438
   11MOL   C83411654   2.414   0.097   6.223 -0.8400  0.0694  0.1551
   11MOL   O83511655   2.366   8.222   6.203  0.6256  0.0852  0.2848
   11MOL   C83611656   2.545   0.137   6.182 -0.1456 -0.1267  0.4136
   11MOL   C83711657   2.591   0.268   6.189 -0.4776 -0.0597 -0.3298
   11MOL   C83811658   2.686   0.509   6.474  0.3115  0.4795 -0.4041
   11MOL   C83911659   2.705   0.537   6.604 -0.1337  0.0740 -0.0933
   11MOL   C84011660   2.511   0.538   6.967 -0.4343  0.4627 -0.5095
   11MOL   C84111661   2.507   0.449   7.074  0.0032 -0.4179  0.2380
   11MOL   C84211662   2.768   0.063   7.330  0.5010  0.4184  0.8213
   11MOL   C84311663   2.891   0.020   7.381  0.7900  0.2341 -0.1176
   11MOL   H84411664   3.070   0.313   7.350 -1.0574  0.6667  0.1026
   11MOL   H84511665   2.848   0.394   7.289 -4.3541 -0.3490  0.5867
   11MOL   H84611666   2.833   0.351   7.057 -0.9458 -2.6673 -1.9349
   11MOL   H84711667   2.836   0.505   6.869 -0.0941  1.7249 -0.1200
   11MOL   H84811668   2.423   0.707   6.680 -1.1626 -0.6145  0.2679
   11MOL   H84911669   2.387   0.660   6.433 -0.2532  0.1496 -0.7006
   11MOL   H85011670   2.357   0.595   6.236 -0.9272  2.5443 -1.9226
   11MOL   H85111671   2.452   0.612   6.089 -1.6112  2.0218 -0.1304
   11MOL   H85211672   2.485   0.719   6.212 -1.1215 -0.1361  0.3149
   11MOL   H85311673   2.782   0.496   6.213 -0.5538  0.0153  1.4535
   11MOL   H85411674   2.674   0.503   6.075 -0.0470 -0.8361  0.6821
   11MOL   H85511675   2.709   0.646   6.162 -0.9584 -0.0897 -0.9194
   11MOL   H85611676   2.326   0.381   6.375 -0.1977  0.2692 -0.1100
   11MOL   H85711677   2.242   0.170   6.334  1.3705  0.0420  1.2508
   11MOL   H85811678   2.614   0.063   6.142 -0.7798 -1.1287  1.1428
   11MOL   H85911679   2.692   0.288   6.157 -1.0283 -0.9160 -2.7363
   11MOL   H86011680   2.758   0.447   6.422  2.3808  1.1793  1.5416
   11MOL   H86111681   2.787   0.498   6.662  0.7203 -0.6537 -1.7512
   11MOL   H86211682   2.422   0.591   6.935 -0.2817  1.8973  1.3455
   11MOL   H86311683   2.414   0.429   7.124 -0.4840 -3.4829 -1.7521
   11MOL   H86411684   2.685   8.248   7.334  0.0933  0.8124 -0.5031
   11MOL   H86511685   2.897   8.171   7.412 -2.5064 -0.6648 -2.1465
   11MOL   C86611686   2.319   8.189   6.075  0.4788  0.1840  0.0042
   11MOL   C86711687   2.398   8.204   5.961  0.1264  0.9036  0.2981
   11MOL   C86811688   2.351   8.167   5.830  0.3856 -0.2590  0.0492
   11MOL   C86911689   2.230   8.098   5.816 -0.5045  0.7643  0.6376
   11MOL   S87011690   2.188   8.014   5.664  0.2221  0.7475  0.3476
   11MOL   O87111691   2.078   7.917   5.693 -0.4794  0.0325  0.6203
   11MOL   O87211692   2.313   7.957   5.607 -0.4327  0.7894 -0.5207
   11MOL   C87311693   2.112   8.130   5.551  0.8376  0.3867  0.2013
   11MOL   C87411694   2.041   8.077   5.436 -0.0081 -0.0059  0.6170
   11MOL   C87511695   1.993   8.163   5.335 -0.8013  0.3538 -0.4620
   11MOL   C87611696   2.008   0.046   5.358  0.5734  0.1622  0.1645
   11MOL   O87711697   1.962   0.136   5.265 -0.2484 -0.1629  0.2701
   11MOL   C87811698   1.882   0.091   5.160  0.3666 -0.5760  0.3802
   11MOL   C87911699   1.747   0.060   5.179  0.7049  0.5183  0.2408
   11MOL   C88011700   1.672   0.013   5.071  0.3949 -0.0449 -0.1770
   11MOL   C88111701   1.725   8.246   4.943 -0.4754  0.4700 -0.3972
   11MOL   C88211702   1.637   8.192   4.830  0.4817  0.1843  0.0714
   11MOL   C88311703   1.519   0.035   4.823 -0.1853 -0.0324 -0.3649
   11MOL   C88411704   1.705   8.201   4.684 -0.2322  0.1336  0.1879
   11MOL   C88511705   1.582   8.050   4.840  0.0462  0.2021  0.0769
   11MOL   C88611706   1.451   8.014   4.881 -0.4742  0.0232 -0.1878
   11MOL   C88711707   1.406   7.882   4.879  0.4922 -0.0744  0.3292
   11MOL   C88811708   1.497   7.777   4.850  0.2979  0.1405  0.1255
   11MOL   O88911709   1.450   7.651   4.844 -0.6901 -0.2958  0.5638
   11MOL   C89011710   1.633   7.813   4.819  0.6361  0.6125 -0.0683
   11MOL   C89111711   1.675   7.948   4.813  0.9208 -0.4500  0.3665
   11MOL   C89211712   1.861   0.025   4.923  0.1267 -0.1944 -1.0869
   11MOL   C89311713   1.939   0.074   5.032  0.0173 -0.1482  0.3838
   11MOL   C89411714   2.073   0.100   5.469  0.1466 -1.0030 -0.3215
   11MOL   C89511715   2.129   0.012   5.568  0.0408 -0.5492  0.2054
   11MOL   C89611716   2.159   8.070   5.935 -0.6801 -0.2115  0.3329
   11MOL   C89711717   2.197   8.122   6.061 -0.0294 -0.0421 -0.0173
   11MOL   H89811718   2.499   8.244   5.967 -0.0391  1.4021 -0.1758
   11MOL   H89911719   2.412   8.167   5.741 -1.8403  0.4660 -1.5385
   11MOL   H90011720   2.043   7.970   5.421  0.7242  0.0538  0.2475
   11MOL   H90111721   1.951   8.123   5.244 -0.5642 -0.2329 -0.3185
   11MOL   H90211722   1.711   0.059   5.281 -1.9886  0.8292 -0.6858
   11MOL   H90311723   1.572   8.228   5.086 -0.0021  1.1828  0.3978
   11MOL   H90411724   1.540   0.141   4.835 -2.6107  0.6802 -1.9050
   11MOL   H90511725   1.453   0.028   4.909 -0.4291  1.0458 -0.4586
   11MOL   H90611726   1.462   0.022   4.730 -1.0009  0.9983 -0.0136
   11MOL   H90711727   1.721   0.051   4.652  0.2779 -0.4660 -1.5349
   11MOL   H90811728   1.799   8.146   4.686  1.2470  2.5889  0.4081
   11MOL   H90911729   1.643   8.153   4.609  0.9266 -1.1744  0.0440
   11MOL   H91011730   1.374   8.084   4.911 -1.6081 -0.2129 -2.4058
   11MOL   H91111731   1.305   7.862   4.912  2.3472 -2.4363  4.8866
   11MOL   H91211732   1.693   7.731   4.784 -3.0480 -2.0808 -0.3139
   11MOL   H91311733   1.773   7.980   4.784  0.5525  1.1217  0.7828
   11MOL   H91411734   1.919   0.022   4.832  0.8196  0.7152 -0.6816
   11MOL   H91511735   2.042   0.100   5.012 -0.2034  1.1748  0.9086
   11MOL   H91611736   2.094   0.205   5.476  2.8797 -1.5942  1.1096
   11MOL   H91711737   2.181   0.055   5.653 -0.1292 -0.9355  0.5056
   11MOL   H91811738   2.076   8.002   5.930 -0.5352 -0.2106 -2.5276
   11MOL   H91911739   2.140   8.103   6.151  0.2729 -2.6762 -0.3433
   11MOL   C92011740   1.478   7.568   4.950  0.2916 -0.1893  0.4095
   11MOL   C92111741   1.373   7.514   5.028  0.7204  0.7038  0.1296
   11MOL   C92211742   1.393   7.443   5.149  0.0320 -0.2921  0.1447
   11MOL   C92311743   1.525   7.423   5.182  0.3738  0.6160  0.1643
   11MOL   S92411744   1.558   7.338   5.341  0.2763  0.2394 -0.0470
   11MOL   O92511745   1.447   7.249   5.367  0.0751 -0.6252  0.0222
   11MOL   O92611746   1.585   7.447   5.436 -0.1822 -0.3074 -0.1868
   11MOL   C92711747   1.705   7.240   5.328  0.0235 -0.4640 -0.1179
   11MOL   C92811748   1.701   7.102   5.308  0.5270 -0.1170  0.0922
   11MOL   C92911749   1.824   7.032   5.288  0.8153 -0.0033 -0.5022
   11MOL   C93011750   1.952   7.086   5.326  0.3554 -0.6197  0.0507
   11MOL   O93111751   2.065   7.011   5.320 -0.7264  0.1483 -0.5749
   11MOL   C93211752   2.172   7.039   5.239 -0.2131 -0.2265 -0.2199
   11MOL   C93311753   2.259   7.148   5.273  0.3612 -0.1327 -0.2835
   11MOL   C93411754   2.364   7.180   5.184  0.9869  0.3310 -0.0127
   11MOL   C93511755   2.384   7.106   5.064 -0.0407  0.1948 -0.2958
   11MOL   C93611756   2.506   7.130   4.974 -0.0463 -0.3317  0.0650
   11MOL   C93711757   2.635   7.119   5.070 -0.0608 -0.0197 -0.0372
   11MOL   C93811758   2.523   7.022   4.871  0.0410 -0.4040 -0.8286
   11MOL   C93911759   2.482   7.269   4.910 -0.7566  0.4380  0.2204
   11MOL   C94011760   2.584   7.370   4.922  0.1059  0.2162  0.3412
   11MOL   C94111761   2.556   7.500   4.874  0.1985  0.3135 -0.3457
   11MOL   C94211762   2.436   7.530   4.802 -0.6703  0.2594  0.4318
   11MOL   O94311763   2.420   7.653   4.745  0.4769 -0.3799 -0.4823
   11MOL   C94411764   2.344   7.431   4.783  0.3313 -0.4296  0.1084
   11MOL   C94511765   2.362   7.303   4.840  0.2176 -0.3985 -0.1148
   11MOL   C94611766   2.293   7.003   5.034 -1.0684  0.2350  0.2157
   11MOL   C94711767   2.191   6.960   5.122  0.0333 -0.5057  0.4335
   11MOL   C94811768   1.951   7.218   5.371  0.2028 -0.1053 -0.0484
   11MOL   C94911769   1.830   7.291   5.373  0.2158 -0.4173  0.1710
   11MOL   C95011770   1.630   7.452   5.094 -0.9055  0.7410 -0.3132
   11MOL   C95111771   1.608   7.523   4.976 -0.1300  0.3814 -0.5012
   11MOL   H95211772   1.268   7.524   5.006  0.8110 -2.6456 -2.2110
   11MOL   H95311773   1.304   7.410   5.201 -2.3591  0.5474 -3.2551
   11MOL   H95411774   1.604   7.053   5.303  0.0117  0.9828 -0.8330
   11MOL   H95511775   1.817   6.925   5.272  1.3589  0.1269 -1.6329
   11MOL   H95611776   2.248   7.197   5.369  0.6722  0.5769 -0.6075
   11MOL   H95711777   2.422   7.268   5.209  3.5113 -1.4320  0.5296
   11MOL   H95811778   2.631   7.197   5.146 -1.9145 -0.7184  0.5944
   11MOL   H95911779   2.720   7.142   5.005 -0.0689 -0.5916 -0.2489
   11MOL   H96011780   2.630   7.023   5.120  1.1666 -1.2355 -2.1522
   11MOL   H96111781   2.450   7.008   4.791 -1.5085  2.2361  0.1017
   11MOL   H96211782   2.609   7.049   4.810  0.0445  1.9881  0.2156
   11MOL   H96311783   2.542   6.924   4.916 -3.0645 -0.7422 -0.1390
   11MOL   H96411784   2.676   7.363   4.978  0.2900 -0.3249 -0.0189
   11MOL   H96511785   2.615   7.587   4.896 -1.1404  1.2378 -0.3419
   11MOL   H96611786   2.257   7.451   4.724  1.1476  1.0343 -0.6274
   11MOL   H96711787   2.292   7.223   4.821 -0.0512 -0.4668  1.1136
   11MOL   H96811788   2.292   6.951   4.939 -1.3364 -0.2634  0.4938
   11MOL   H96911789   2.120   6.882   5.097  0.5948 -0.9130  0.1155
   11MOL   H97011790   2.043   7.269   5.399 -0.8765  2.5647 -1.1993
   11MOL   H97111791   1.822   7.396   5.394 -2.4925 -0.4953 -0.3731
   11MOL   H97211792   1.730   7.422   5.117 -0.7090 -0.3700 -2.4412
   11MOL   H97311793   1.695   7.542   4.915  1.7484 -2.3200  1.2372
   11MOL   C97411794   2.401   7.771   4.816  0.0623 -0.4238  0.0880
   11MOL   C97511795   2.501   7.839   4.892  0.3200 -0.6535  0.2685
   11MOL   C97611796   2.474   7.955   4.959  0.9100 -0.0580 -0.1336
   11MOL   C97711797   2.342   8.010   4.954 -0.1531  0.8886 -0.3674
   11MOL   S97811798   2.304   8.165   5.033 -0.0834 -0.0417 -0.2495
   11MOL   O97911799   2.199   8.134   5.133 -0.5847 -0.5165  0.5084
   11MOL   O98011800   2.279   0.009   4.924 -0.2276  0.0205 -0.2817
   11MOL   C98111801   2.450   8.208   5.121 -0.1821  0.4310 -0.2772
   11MOL   C98211802   2.479   8.145   5.244  0.3907  0.7643 -0.5624
   11MOL   C98311803   2.592   8.174   5.318 -0.3397 -1.0700 -0.3100
   11MOL   C98411804   2.678   0.018   5.266  0.5365 -0.1872  0.0580
   11MOL   O98511805   2.789   0.043   5.343 -0.6035  0.2189 -0.0299
   11MOL   C98611806   2.815   0.174   5.375 -0.2459 -0.2145  0.3951
   11MOL   C98711807   2.908   0.241   5.295 -0.0027 -0.2726 -0.0763
   11MOL   C98811808   2.926   0.380   5.320 -0.1455  0.8024  0.2949
   11MOL   C98911809   2.866   0.436   5.437  0.4902  0.0266  0.1817
   11MOL   C99011810   2.903   0.583   5.475 -0.3753  0.1431  0.0947
   11MOL   C99111811   3.059   0.586   5.478  0.7624  0.4659 -0.2910
   11MOL   C99211812   2.862   0.679   5.354 -0.2827  0.2931  0.1835
   11MOL   C99311813   2.839   0.635   5.605  0.3552  0.2601  0.0803
   11MOL   C99411814   2.913   0.646   5.720 -0.4857  0.6380 -0.5184
   11MOL   C99511815   2.863   0.719   5.829  0.0589 -0.5135  0.2369
   11MOL   C99611816   2.731   0.778   5.825  0.1608 -0.5261 -0.4816
   11MOL   O99711817   2.692   0.838   5.941  0.0605 -0.0087  0.8742
   11MOL   C99811818   2.650   0.754   5.711 -0.2450 -0.2010 -0.3476
   11MOL   C99911819   2.709   0.682   5.605 -0.2073 -0.7156 -0.2717
   11MOL     C111820   2.774   0.367   5.513 -1.1172  0.2926  0.1496
   11MOL     C211821   2.745   0.232   5.485 -0.5461 -0.4965  0.7166
   11MOL     C311822   2.652   0.078   5.143 -0.0589  0.0188  0.4047
   11MOL     C411823   2.533   0.051   5.071 -0.3713 -0.1076 -0.1403
   11MOL     C511824   2.244   7.943   4.886  1.0623  0.1362  0.4803
   11MOL     C611825   2.269   7.819   4.819 -0.3893  0.4466 -0.3732
   11MOL     H711826   2.601   7.799   4.888  1.0742  1.2113 -0.0606
   11MOL     H811827   2.550   8.009   5.012  0.9518 -0.1898 -0.0573
   11MOL     H911828   2.413   8.064   5.274 -0.1093  0.8092 -1.5312
   11MOL    H1011829   2.616   8.110   5.402 -0.1937 -0.1474  0.3523
   11MOL    H1111830   2.958   0.186   5.216  0.8891 -0.3660  0.5453
   11MOL    H1211831   2.982   0.441   5.252  3.3240  1.0260  3.2015
   11MOL    H1311832   3.104   0.495   5.519 -0.1301  0.5781  0.9872
   11MOL    H1411833   3.091   0.678   5.526 -2.3521  0.6610  1.5713
   11MOL    H1511834   3.103   0.590   5.378 -0.9570 -0.9355 -1.1294
   11MOL    H1611835   2.872   0.783   5.387 -0.2741  0.3043  0.1456
   11MOL    H1711836   2.917   0.657   5.263 -1.5343  1.4116 -0.8621
   11MOL    H1811837   2.757   0.669   5.327 -0.0955 -0.1994 -0.3669
   11MOL    H1911838   3.012   0.603   5.716 -0.4164  1.0110 -3.4024
   11MOL    H2011839   2.921   0.736   5.919  0.0366 -0.9741  0.3374
   11MOL    H2111840   2.548   0.786   5.698 -0.5568 -0.8248  0.5368
   11MOL    H2211841   2.655   0.654   5.516  1.2093 -2.4686 -0.6059
   11MOL    H2311842   2.732   0.409   5.603 -0.3658  1.1265  0.1089
   11MOL    H2411843   2.687   0.175   5.556  1.2149 -1.8540  1.0894
   11MOL    H2511844   2.730   0.136   5.096 -1.5665  1.9364  0.1925
   11MOL    H2611845   2.516   0.108   4.981 -0.2375 -0.0138 -0.1070
   11MOL    H2711846   2.145   7.984   4.896  0.8902 -0.6123  1.9437
   11MOL    H2811847   2.186   7.770   4.771 -0.6281 -2.1789  2.5264
   11MOL    C2911848   2.621   0.956   5.914 -0.3289 -0.2028  0.1741
   11MOL    C3011849   2.695   1.074   5.888 -0.4620 -0.7343 -0.0664
   11MOL    C3111850   2.625   1.196   5.893 -0.5447  0.0709  0.3523
   11MOL    C3211851   2.479   1.193   5.901 -0.2546  0.3551  0.2418
   11MOL    S3311852   2.394   1.353   5.903 -0.3767 -0.1061 -0.0355
   11MOL    O3411853   2.497   1.464   5.891 -0.1847 -0.6792 -0.1303
   11MOL    O3511854   2.311   1.356   6.024 -0.2641  0.1433  0.2968
   11MOL    C3611855   2.294   1.371   5.756  0.2487  0.4307  0.5797
   11MOL    C3711856   2.298   1.485   5.682  0.2293 -0.3814  0.5527
   11MOL    C3811857   2.222   1.504   5.564 -0.2514  0.8006  0.1021
   11MOL    C3911858   2.145   1.395   5.525  0.2631 -0.1668 -0.2482
   11MOL    O4011859   2.076   1.399   5.408  0.6881 -0.1610 -0.0061
   11MOL    C4111860   1.933   1.398   5.416 -0.0807 -0.1674 -0.3703
   11MOL    C4211861   1.868   1.513   5.468 -0.3671 -0.5897  0.1453
   11MOL    C4311862   1.722   1.513   5.476  0.6824  0.0059  0.5794
   11MOL    C4411863   1.645   1.400   5.436  0.1410 -0.6804  0.3754
   11MOL    C4511864   1.499   1.388   5.466  0.0124  0.1093  0.5397
   11MOL    C4611865   1.435   1.333   5.337  0.0033 -0.2102 -0.2758
   11MOL    C4711866   1.481   1.288   5.585 -0.4680 -0.4882  0.4458
   11MOL    C4811867   1.437   1.521   5.491 -0.1273 -0.6094  0.3331
   11MOL    C4911868   1.405   1.571   5.621 -0.7617 -0.7497 -0.4254
   11MOL    C5011869   1.349   1.702   5.636  0.0607  0.0625  0.2287
   11MOL    C5111870   1.335   1.790   5.532 -0.6496  0.3642  0.1110
   11MOL    O5211871   1.286   1.915   5.552  0.5042  0.3340  0.4112
   11MOL    C5311872   1.373   1.741   5.403 -0.4522 -0.3423  0.4664
   11MOL    C5411873   1.429   1.616   5.384  0.3691 -1.1878 -0.8576
   11MOL    C5511874   1.719   1.287   5.382  0.2941 -0.4110 -0.7236
   11MOL    C5611875   1.859   1.286   5.373  0.0621 -0.0114 -0.1330
   11MOL    C5711876   2.137   1.272   5.601 -0.9538 -0.5380  0.2137
   11MOL    C5811877   2.213   1.265   5.719  0.2998 -0.2673  0.1561
   11MOL    C5911878   2.405   1.075   5.934 -0.2751  0.1427 -0.4385
   11MOL    C6011879   2.480   0.953   5.940  0.5015 -0.1303 -0.1426
   11MOL    H6111880   2.800   1.055   5.873 -0.6256 -2.1288  0.4367
   11MOL    H6211881   2.677   1.286   5.866  0.4345 -0.8119 -0.7583
   11MOL    H6311882   2.354   1.570   5.718  1.2210 -1.1062  0.7545
   11MOL    H6411883   2.215   1.598   5.511  0.5725  0.1849 -1.1344
   11MOL    H6511884   1.924   1.598   5.506  0.9249 -0.9630 -0.9032
   11MOL    H6611885   1.684   1.597   5.532 -1.5203 -0.5792  0.0214
   11MOL    H6711886   1.453   1.229   5.312 -1.1917 -0.0947 -1.7332
   11MOL    H6811887   1.469   1.387   5.248  0.9220 -0.8584 -0.3210
   11MOL    H6911888   1.326   1.339   5.332  0.2039  3.8805 -1.2298
   11MOL    H7011889   1.529   1.313   5.679 -1.3350 -2.3502  1.4056
   11MOL    H7111890   1.374   1.283   5.607 -0.0039 -2.5726  2.3427
   11MOL    H7211891   1.519   1.189   5.562  0.7372  0.3222 -1.1942
   11MOL    H7311892   1.415   1.502   5.705 -2.0079 -0.6977 -0.2272
   11MOL    H7411893   1.346   1.740   5.738  1.5651 -1.0207  0.6923
   11MOL    H7511894   1.377   1.807   5.318  1.3690  1.5369  1.9691
   11MOL    H7611895   1.472   1.580   5.292  0.5781 -2.6483 -0.2021
   11MOL    H7711896   1.666   1.195   5.359 -1.5950  0.8033 -1.3973
   11MOL    H7811897   1.917   1.199   5.345 -1.8607 -0.7044 -2.1180
   11MOL    H7911898   2.084   1.188   5.558 -1.8480  0.2158 -0.1786
   11MOL    H8011899   2.202   1.184   5.789  2.2917 -0.8164 -0.1353
   11MOL    H8111900   2.298   1.082   5.947 -0.1186  0.3355  0.7871
   11MOL    H8211901   2.439   0.853   5.953  1.1727 -0.2594  0.9745
   11MOL    H8311902   1.244   1.944   5.473 -2.2155 -1.6458  1.0798
   12MOL     C111903   6.869   7.398   0.497  0.2325 -0.4507  0.0848
   12MOL     C211904   6.974   7.354   0.572 -0.4989 -0.1524  0.2944
   12MOL     C311905   7.045   7.440   0.658 -0.5821  0.5866 -0.3260
   12MOL     C411906   6.998   7.567   0.679 -0.5378  0.7655 -0.2121
   12MOL     S511907   7.081   7.673   0.793 -0.3842 -0.4756  0.5522
   12MOL     O611908   7.168   7.602   0.886 -0.4237 -0.2579 -0.7455
   12MOL     O711909   6.976   7.767   0.841 -0.0269 -0.0260 -0.0927
   12MOL     C811910   7.192   7.765   0.674 -0.3219 -0.5344 -0.2337
   12MOL     C911911   7.136   7.861   0.591 -0.6501  0.2199  0.8360
   12MOL    C1011912   7.227   7.943   0.518 -0.1525 -0.1785  0.0098
   12MOL    C1111913   7.365   7.906   0.506  0.2735  0.0549  0.7423
   12MOL    O1211914   7.443   7.995   0.432 -0.0760  0.3054 -0.0191
   12MOL    C1311915   7.459   8.125   0.473  0.5623 -0.7560  0.6346
   12MOL    C1411916   7.477   8.229   0.380  0.9629  0.6274  0.4853
   12MOL    C1511917   7.507   0.108   0.423  1.1079 -0.5336  0.2312
   12MOL    C1611918   7.497   0.139   0.560  0.2928  0.3610 -0.0509
   12MOL    C1711919   7.522   0.283   0.609 -0.0881  0.0240  0.1417
   12MOL    C1811920   7.610   0.359   0.504 -0.1547  0.4741  0.0926
   12MOL    C1911921   7.380   0.349   0.620  0.2541 -0.0057  0.1653
   12MOL    C2011922   7.603   0.284   0.741  0.1962 -0.0599  0.1243
   12MOL    C2111923   7.559   0.348   0.857 -0.5857 -0.8628  0.9017
   12MOL    C2211924   7.643   0.335   0.974  0.1737  0.2452  0.3575
   12MOL    C2311925   7.767   0.257   0.972 -0.3162 -0.1632 -0.6126
   12MOL    O2411926   7.841   0.235   1.084  0.0174  0.0735 -0.1070
   12MOL    C2511927   7.812   0.210   0.843 -0.0978  0.2851  0.1675
   12MOL    C2611928   7.729   0.219   0.732  0.8052  0.7187  0.9067
   12MOL    C2711929   7.473   0.035   0.652 -1.0681 -0.2794 -0.5530
   12MOL    C2811930   7.463   8.159   0.609  0.0333  0.7121  0.1420
   12MOL    C2911931   7.415   7.796   0.574  0.3816 -0.1769 -0.3302
   12MOL    C3011932   7.331   7.726   0.661  0.3116 -0.0224  0.0928
   12MOL    C3111933   6.878   7.608   0.618 -0.2607 -0.3697 -0.4460
   12MOL    C3211934   6.817   7.528   0.515 -0.8213  0.2347 -0.3023
   12MOL    H3311935   7.023   7.261   0.549 -1.8307 -0.3731 -1.8919
   12MOL    H3411936   7.131   7.401   0.712 -2.8533 -2.2667  1.3363
   12MOL    H3511937   7.029   7.870   0.594 -0.9884 -3.0255 -0.4135
   12MOL    H3611938   7.182   8.027   0.467 -0.2074  1.0392  2.0417
   12MOL    H3711939   7.481   8.211   0.273  1.0541  1.0403  0.4198
   12MOL    H3811940   7.506   0.187   0.350 -0.7269 -3.0033 -2.5473
   12MOL    H3911941   7.557   0.386   0.413 -0.5962 -0.1709  0.1540
   12MOL    H4011942   7.697   0.300   0.478 -0.3395 -0.2900  1.1636
   12MOL    H4111943   7.651   0.453   0.541  0.6808 -0.3975  1.4131
   12MOL    H4211944   7.338   0.352   0.519  0.8400 -1.4913 -0.1444
   12MOL    H4311945   7.314   0.296   0.689 -1.1431 -1.5918 -2.3218
   12MOL    H4411946   7.393   0.451   0.654 -0.1380 -0.3076  1.2287
   12MOL    H4511947   7.468   0.406   0.855  1.1812  2.0098  0.3028
   12MOL    H4611948   7.614   0.389   1.062 -0.8680 -1.8946  1.3843
   12MOL    H4711949   7.903   0.151   0.843 -0.3185 -0.1901  3.9214
   12MOL    H4811950   7.747   0.162   0.643 -0.9852  2.5344 -0.6674
   12MOL    H4911951   7.477   0.050   0.759 -1.2876 -0.0042 -0.5810
   12MOL    H5011952   7.463   8.071   0.671 -4.4066  0.9261  0.6514
   12MOL    H5111953   7.519   7.769   0.568  0.4579  0.0498 -0.0149
   12MOL    H5211954   7.381   7.654   0.724 -2.8162 -0.5983  2.0042
   12MOL    H5311955   6.830   7.704   0.634  0.3813  0.2344 -2.0711
   12MOL    H5411956   6.738   7.575   0.458 -1.9540 -0.4334  0.6841
   12MOL    H5511957   6.840   7.336   0.413  1.0415 -0.0915 -0.4653
   12MOL    C5611958   7.882   0.348   1.149  0.0094  0.4643  0.0143
   12MOL    C5711959   7.820   0.376   1.274 -0.1140 -0.5247 -0.7160
   12MOL    C5811960   7.857   0.502   1.337  0.7886  1.0266 -0.0199
   12MOL    C5911961   7.963   0.579   1.285 -0.4390  0.3558 -0.7870
   12MOL    S6011962   8.021   0.726   1.360  0.0664  0.0673 -0.1416
   12MOL    O6111963   8.163   0.734   1.331  0.0240  0.3324 -0.6816
   12MOL    O6211964   7.972   0.725   1.499 -0.2586 -0.1146 -0.3371
   12MOL    C6311965   7.929   0.862   1.286 -0.4811 -0.2968 -0.0022
   12MOL    C6411966   8.005   0.980   1.259 -0.1249  0.1128  1.3886
   12MOL    C6511967   7.945   1.099   1.211  0.1049 -0.3845 -0.2071
   12MOL    C6611968   7.802   1.103   1.190  0.4962 -0.3230  0.6446
   12MOL    O6711969   7.728   1.222   1.166 -0.1520 -0.2220  0.2469
   12MOL    C6811970   7.660   1.237   1.047 -0.9024  0.4902 -0.3835
   12MOL    C6911971   7.738   1.252   0.930 -0.0313  0.5053 -0.0196
   12MOL    C7011972   7.675   1.261   0.803 -0.2717  0.3379  0.1644
   12MOL    C7111973   7.534   1.240   0.791 -0.4913  0.4577 -0.1541
   12MOL    C7211974   7.467   1.235   0.651  0.4098  0.1444  0.4863
   12MOL    C7311975   7.552   1.320   0.545  0.3208  0.8430 -0.3336
   12MOL    C7411976   7.471   1.085   0.630 -0.1108 -0.4973  0.5206
   12MOL    C7511977   7.329   1.300   0.649 -0.2548 -0.0388 -0.0646
   12MOL    C7611978   7.321   1.431   0.700 -0.6806  0.2976  0.7694
   12MOL    C7711979   7.196   1.488   0.703 -0.6374  0.0960  0.5936
   12MOL    C7811980   7.081   1.422   0.670  0.9513  0.2843 -1.4792
   12MOL    O7911981   6.969   1.496   0.656  0.3392  0.5040 -0.2475
   12MOL    C8011982   7.083   1.285   0.633  0.3962 -0.1704  0.0694
   12MOL    C8111983   7.208   1.229   0.615 -0.1384 -1.0398 -0.0309
   12MOL    C8211984   7.459   1.221   0.913 -1.1223  0.4782  1.2594
   12MOL    C8311985   7.523   1.219   1.038  0.3392  0.7550  0.4097
   12MOL    C8411986   7.733   0.982   1.215 -0.4870  0.2983  0.8797
   12MOL    C8511987   7.794   0.862   1.258 -0.0972  0.1551  0.2921
   12MOL    C8611988   8.021   0.545   1.159 -0.1408 -0.3985 -0.2588
   12MOL    C8711989   7.977   0.434   1.090 -0.2109 -0.5959 -0.1138
   12MOL    H8811990   7.737   0.320   1.313 -0.6898  0.9313  0.2097
   12MOL    H8911991   7.800   0.521   1.427  0.0510 -1.1781  0.0256
   12MOL    H9011992   8.107   0.974   1.294  0.1893  0.0885  0.4773
   12MOL    H9111993   7.998   1.193   1.212  1.7008 -1.2585  1.4378
   12MOL    H9211994   7.845   1.261   0.945  0.3044 -0.3042 -1.8451
   12MOL    H9311995   7.731   1.267   0.711 -0.5405 -3.2169 -0.2982
   12MOL    H9411996   7.499   1.329   0.451  1.5534  0.9627 -1.0306
   12MOL    H9511997   7.643   1.270   0.509 -1.7501 -3.4058 -0.0261
   12MOL    H9611998   7.579   1.421   0.576 -0.2174  0.5537  1.1112
   12MOL    H9711999   7.575   1.050   0.634  1.3871  3.6610  0.1704
   12MOL    H9812000   7.405   1.025   0.693 -0.2860 -1.2979 -0.4063
   12MOL    H9912001   7.427   1.067   0.532  1.6377  1.3863 -0.6554
   12MOL   H10012002   7.411   1.487   0.716 -0.9858  0.8789  0.4744
   12MOL   H10112003   7.195   1.591   0.734  2.6032  0.2348  0.4308
   12MOL   H10212004   6.994   1.234   0.601  0.0952  0.3009  0.1489
   12MOL   H10312005   7.211   1.131   0.571 -1.1524 -1.3255  0.5230
   12MOL   H10412006   7.352   1.231   0.907 -1.2851 -1.8444 -0.5104
   12MOL   H10512007   7.469   1.214   1.131  0.7315  2.1114  0.7217
   12MOL   H10612008   7.625   0.988   1.212 -0.4434  0.4368 -1.8860
   12MOL   H10712009   7.730   0.781   1.288  1.6216 -0.5029  2.2901
   12MOL   H10812010   8.085   0.618   1.113 -0.0631 -0.5785 -0.4378
   12MOL   H10912011   8.017   0.406   0.993  1.2433  2.0608 -0.2996
   12MOL   C11012012   6.838   1.450   0.680  0.6141 -0.5987 -0.5084
   12MOL   C11112013   6.738   1.458   0.582 -0.0432  0.2696 -0.3317
   12MOL   C11212014   6.606   1.423   0.607  1.2155 -0.2412 -0.6043
   12MOL   C11312015   6.578   1.367   0.731  0.1480 -0.0040  0.4199
   12MOL   S11412016   6.399   1.343   0.765  0.2189  0.0756 -0.4954
   12MOL   O11512017   6.352   1.221   0.703  0.4900 -0.3465 -0.3973
   12MOL   O11612018   6.335   1.471   0.733 -0.3977 -0.4097 -0.4891
   12MOL   C11712019   6.388   1.321   0.943  0.2579  0.4517  0.9377
   12MOL   C11812020   6.325   1.204   0.995 -0.2138  0.1787  0.0814
   12MOL   C11912021   6.316   1.188   1.132  0.1246  0.7187 -0.5722
   12MOL   C12012022   6.347   1.292   1.217  0.4429 -0.2184 -0.1921
   12MOL   O12112023   6.352   1.270   1.354  0.1453  0.2938 -0.1151
   12MOL   C12212024   6.403   1.153   1.404  0.3097 -0.7450 -0.8400
   12MOL   C12312025   6.528   1.113   1.360 -0.0296 -0.1031  0.9709
   12MOL   C12412026   6.585   0.989   1.415  0.5024 -0.8403  0.4220
   12MOL   C12512027   6.511   0.906   1.506 -0.1113 -0.5256 -0.2222
   12MOL   C12612028   6.575   0.780   1.554  0.2229 -0.0425  0.3597
   12MOL   C12712029   6.636   0.703   1.431 -0.5300 -0.1235  0.9950
   12MOL   C12812030   6.697   0.815   1.642 -0.4416  0.2384  0.1666
   12MOL   C12912031   6.476   0.681   1.618 -0.9248  0.8594  0.0868
   12MOL   C13012032   6.479   0.630   1.748 -0.2048 -0.9729 -0.9930
   12MOL   C13112033   6.390   0.538   1.806  0.2312  0.6586 -0.0998
   12MOL   C13212034   6.292   0.489   1.716  0.4310 -0.5118  0.2897
   12MOL   O13312035   6.187   0.420   1.767 -0.2779 -0.3719 -0.2468
   12MOL   C13412036   6.287   0.531   1.582  0.1332  0.4725 -0.5669
   12MOL   C13512037   6.378   0.620   1.529  0.0975  0.0328  0.1035
   12MOL   C13612038   6.389   0.954   1.548 -0.4100 -0.3546  0.6041
   12MOL   C13712039   6.341   1.079   1.506  0.2832  1.3073 -0.3239
   12MOL   C13812040   6.375   1.419   1.166  0.0833  0.3278 -0.1131
   12MOL   C13912041   6.400   1.429   1.026 -0.4399 -0.5296  0.1699
   12MOL   C14012042   6.669   1.349   0.828  0.1370  0.3222 -0.3586
   12MOL   C14112043   6.801   1.388   0.799  0.7277 -0.5053 -0.3536
   12MOL   H14212044   6.755   1.512   0.490  0.3515  0.8324  0.0625
   12MOL   H14312045   6.524   1.436   0.537  0.6678 -1.8078 -0.2684
   12MOL   H14412046   6.307   1.118   0.933 -0.7888  1.1728 -1.1558
   12MOL   H14512047   6.271   1.096   1.167  0.2746  0.4102 -1.1632
   12MOL   H14612048   6.585   1.181   1.298 -0.0719 -0.0338  1.0072
   12MOL   H14712049   6.686   0.963   1.386  1.1211 -0.0444  1.7873
   12MOL   H14812050   6.712   0.760   1.378 -0.7030 -0.6767  0.1506
   12MOL   H14912051   6.561   0.676   1.357  0.2242  1.7097 -0.5059
   12MOL   H15012052   6.692   0.615   1.462 -0.5236  0.4262  2.6251
   12MOL   H15112053   6.738   0.718   1.671 -2.1571 -0.1351  1.4453
   12MOL   H15212054   6.774   0.874   1.592 -2.0935  1.0840 -1.4476
   12MOL   H15312055   6.673   0.875   1.730  0.0909  2.1660 -0.9745
   12MOL   H15412056   6.561   0.662   1.811 -1.8745  0.5238  0.4534
   12MOL   H15512057   6.385   0.517   1.912  1.2892  0.3908 -0.1011
   12MOL   H15612058   6.212   0.489   1.516  0.2074  0.2849 -0.5330
   12MOL   H15712059   6.363   0.650   1.426  0.5284  0.1404  0.0727
   12MOL   H15812060   6.332   0.916   1.632 -1.6146  0.1899  0.0470
   12MOL   H15912061   6.256   1.129   1.551  0.9636  0.6355  1.7522
   12MOL   H16012062   6.395   1.503   1.232  0.3136 -0.4523  0.8174
   12MOL   H16112063   6.439   1.516   0.976 -2.9147  0.2611 -0.4473
   12MOL   H16212064   6.640   1.313   0.925 -0.6315  0.2299 -0.6202
   12MOL   H16312065   6.879   1.382   0.874  0.9512 -0.8239 -0.6081
   12MOL   C16412066   6.187   0.284   1.754  0.1882  0.5323 -1.0855
   12MOL   C16512067   6.284   0.212   1.830  0.2949 -0.6597  0.4912
   12MOL   C16612068   6.293   0.071   1.811  0.0183 -0.0123  0.4866
   12MOL   C16712069   6.210   0.010   1.713  1.4476 -0.2366  0.5100
   12MOL   S16812070   6.207   8.086   1.688  0.0068  0.4521  0.2326
   12MOL   O16912071   6.070   8.041   1.705  0.5472 -0.2730 -0.0646
   12MOL   O17012072   6.317   8.021   1.767 -0.0332  0.1856  0.7195
   12MOL   C17112073   6.254   8.053   1.514 -0.8555 -0.5784  0.0240
   12MOL   C17212074   6.248   7.920   1.475  1.1689 -0.2369  0.8055
   12MOL   C17312075   6.280   7.882   1.343 -0.1181 -0.1103 -0.1373
   12MOL   C17412076   6.322   7.977   1.248  0.0487 -0.5910  0.1946
   12MOL   O17512077   6.342   7.941   1.118 -0.2164 -0.1688  0.4688
   12MOL   C17612078   6.291   8.033   1.022  0.2583  0.7674 -0.7929
   12MOL   C17712079   6.158   8.069   1.036  0.0265  0.7480  0.2318
   12MOL   C17812080   6.101   8.152   0.932 -0.2946  0.1275  0.5808
   12MOL   C17912081   6.182   8.194   0.828  0.2505  0.8224 -0.7154
   12MOL   C18012082   6.120   0.043   0.732 -0.6898 -0.2677  0.7001
   12MOL   C18112083   6.159   0.183   0.790  0.8672  0.5181  0.4726
   12MOL   C18212084   6.200   0.031   0.597 -0.0542  0.0474  0.2298
   12MOL   C18312085   5.966   0.029   0.705  0.0027 -0.4765  0.7606
   12MOL   C18412086   5.861   0.101   0.774  0.0753  0.1786  0.4221
   12MOL   C18512087   5.725   0.068   0.747  0.5717  0.0826 -0.4006
   12MOL   C18612088   5.687   8.242   0.640 -0.5933 -0.7805 -0.2469
   12MOL   O18712089   5.554   8.228   0.602 -0.2248 -0.2883  0.5065
   12MOL   C18812090   5.793   8.182   0.567  0.3923 -0.0595  0.2334
   12MOL   C18912091   5.925   8.192   0.605  0.1594  0.5897 -0.9454
   12MOL   C19012092   6.317   8.153   0.818 -0.6023  0.3303 -0.1969
   12MOL   C19112093   6.371   8.065   0.914  0.4692  0.0014  0.3274
   12MOL   C19212094   6.340   8.112   1.293  0.4859  0.4074  0.8300
   12MOL   C19312095   6.300   8.154   1.422 -0.1605 -0.2773  0.2093
   12MOL   C19412096   6.113   0.078   1.636  0.0635 -0.2202 -0.4987
   12MOL   C19512097   6.107   0.221   1.660 -1.0740  0.3044  0.0167
   12MOL   H19612098   6.354   0.261   1.897 -2.4280 -0.0390  2.9570
   12MOL   H19712099   6.368   0.007   1.856 -0.4616 -1.2726 -0.4665
   12MOL   H19812100   6.225   7.840   1.545  0.7021 -0.1595  0.7388
   12MOL   H19912101   6.282   7.777   1.317  2.1644 -0.1388  0.0443
   12MOL   H20012102   6.091   8.035   1.113 -0.1452  0.9677  0.1803
   12MOL   H20112103   5.995   8.173   0.940 -0.6290 -0.7387 -1.3235
   12MOL   H20212104   6.128   0.256   0.715 -0.4461  0.8751  1.3371
   12MOL   H20312105   6.267   0.186   0.798  0.9892  0.1580 -0.8737
   12MOL   H20412106   6.111   0.204   0.886 -0.7287 -2.0746  0.2987
   12MOL   H20512107   6.197   8.187   0.549 -3.0034  0.3224 -0.2296
   12MOL   H20612108   6.154   0.103   0.529  2.0531 -0.0819 -1.3635
   12MOL   H20712109   6.301   0.071   0.603  0.2370 -0.8869  2.1431
   12MOL   H20812110   5.883   0.177   0.847 -1.4402  1.1402 -0.0938
   12MOL   H20912111   5.646   0.124   0.795  0.6718  0.4165 -0.6268
   12MOL   H21012112   5.760   8.113   0.491 -1.3059  2.6988 -1.6142
   12MOL   H21112113   5.999   8.130   0.558 -0.3287 -0.2753 -0.5838
   12MOL   H21212114   6.382   8.194   0.742  1.2673 -3.9931 -1.0805
   12MOL   H21312115   6.475   8.035   0.910  0.5663  0.0519  2.0896
   12MOL   H21412116   6.371   8.184   1.219 -1.8560 -0.3713 -0.9574
   12MOL   H21512117   6.321   0.003   1.451  1.8228 -1.0900  1.7330
   12MOL   H21612118   6.046   0.034   1.564 -1.7495  1.3071  0.2137
   12MOL   H21712119   6.046   0.278   1.592  0.8922 -0.4375 -2.4740
   12MOL   C21812120   5.467   8.149   0.668 -0.7217  0.1880  1.0592
   12MOL   C21912121   5.502   8.017   0.708 -0.0051  0.1028  0.3056
   12MOL   C22012122   5.405   7.936   0.774 -0.0802  0.4927  0.0182
   12MOL   C22112123   5.273   7.986   0.783  0.3623  0.3059  0.4821
   12MOL   S22212124   5.150   7.873   0.858 -0.0766  0.3624  0.0903
   12MOL   O22312125   5.209   7.802   0.976 -0.0333  0.6236 -0.2827
   12MOL   O22412126   5.090   7.790   0.748 -0.1066 -0.5697 -0.0343
   12MOL   C22512127   5.013   7.976   0.915  0.5316 -1.1552  0.0938
   12MOL   C22612128   4.894   7.987   0.840 -0.1704 -0.3244 -0.2484
   12MOL   C22712129   4.788   8.058   0.891  0.0142 -1.0577  0.9565
   12MOL   C22812130   4.791   8.120   1.020 -0.0149 -0.0721  1.0148
   12MOL   O22912131   4.688   8.194   1.062 -0.4262 -0.4868  0.0065
   12MOL   C23012132   4.651   0.051   0.989  0.6363 -0.4070 -0.0244
   12MOL   C23112133   4.532   0.040   0.917 -0.7656  0.0484  0.0719
   12MOL   C23212134   4.476   0.154   0.851 -0.2105 -0.6996 -1.3295
   12MOL   C23312135   4.550   0.279   0.858 -0.3184 -0.1093  0.6416
   12MOL   C23412136   4.502   0.401   0.779  0.3657  0.6639  0.5332
   12MOL   C23512137   4.625   0.475   0.717  0.8375 -0.4644  0.5188
   12MOL   C23612138   4.403   0.365   0.665 -0.2439  0.8442 -0.4631
   12MOL   C23712139   4.429   0.493   0.877 -0.5899  0.1285  0.3849
   12MOL   C23812140   4.332   0.444   0.970  0.4450  0.0823 -0.1227
   12MOL   C23912141   4.262   0.536   1.049 -0.3673  1.0350  0.1129
   12MOL   C24012142   4.271   0.674   1.034  0.2001  0.2037 -0.5757
   12MOL   O24112143   4.200   0.769   1.098  0.2962 -0.2037  0.2925
   12MOL   C24212144   4.358   0.718   0.934 -0.6020 -0.1612 -0.2836
   12MOL   C24312145   4.448   0.632   0.868  0.0911 -0.9127  0.6191
   12MOL   C24412146   4.676   0.281   0.920  0.0626  1.0091 -0.0518
   12MOL   C24512147   4.727   0.168   0.989 -0.2815  0.1645  0.4163
   12MOL   C24612148   4.917   8.114   1.092 -0.3930  0.1466  0.0224
   12MOL   C24712149   5.031   8.046   1.033 -0.3764  0.1329 -0.2664
   12MOL   C24812150   5.240   8.114   0.743 -0.3491 -0.2791 -0.2166
   12MOL   C24912151   5.337   8.194   0.682  0.3839  0.3819  0.3191
   12MOL   H25012152   5.604   7.983   0.701  0.2484  1.0033 -0.4799
   12MOL   H25112153   5.431   7.840   0.817  1.4792  0.0865 -1.7839
   12MOL   H25212154   4.896   7.939   0.744 -1.5199 -0.2861 -0.3112
   12MOL   H25312155   4.696   8.079   0.837  0.3751  1.3064  1.2238
   12MOL   H25412156   4.473   8.204   0.925  1.2524 -1.2934  0.2835
   12MOL   H25512157   4.378   0.144   0.807 -0.0575 -0.9871 -1.6084
   12MOL   H25612158   4.592   0.541   0.637 -1.0837 -1.4088  0.5104
   12MOL   H25712159   4.684   0.395   0.671  0.3206 -1.9381  2.3429
   12MOL   H25812160   4.680   0.526   0.796 -0.8450 -0.3508  1.6443
   12MOL   H25912161   4.458   0.293   0.604 -0.2316 -0.5783  1.1940
   12MOL   H26012162   4.316   0.329   0.720  1.8826  0.2884  2.6577
   12MOL   H26112163   4.361   0.448   0.608 -2.1442 -0.0392 -0.3901
   12MOL   H26212164   4.319   0.339   0.992  0.8047  0.5816  2.7048
   12MOL   H26312165   4.191   0.497   1.121  0.3375 -0.8501 -0.1790
   12MOL   H26412166   4.364   0.821   0.901  1.7233 -0.7084 -1.6726
   12MOL   H26512167   4.511   0.686   0.800 -0.5012 -0.8907  0.0846
   12MOL   H26612168   4.741   0.366   0.932  0.4882  0.6193  0.4803
   12MOL   H26712169   4.828   0.157   1.026  0.1872  2.0764 -0.2601
   12MOL   H26812170   4.933   8.151   1.192  1.7461 -1.7970  0.4245
   12MOL   H26912171   5.129   8.049   1.079 -0.3251 -0.8724 -0.2941
   12MOL   H27012172   5.137   8.146   0.738  0.2579  1.4638 -2.5213
   12MOL   H27112173   5.306   0.039   0.648  1.0422  0.3904 -0.2672
   12MOL   C27212174   4.171   0.771   1.233 -0.4522 -0.1912 -0.2104
   12MOL   C27312175   4.057   0.705   1.282  0.0190 -0.3606  0.5344
   12MOL   C27412176   4.019   0.711   1.420 -0.0972 -0.1435  0.7302
   12MOL   C27512177   4.101   0.792   1.501  0.0933 -0.0507 -0.4974
   12MOL   S27612178   4.052   0.811   1.673  0.0049 -0.1938  0.0859
   12MOL   O27712179   3.935   0.724   1.701  0.5022 -0.9811  0.0175
   12MOL   O27812180   4.036   0.951   1.705 -0.0955 -0.0399  0.0816
   12MOL   C27912181   4.188   0.743   1.763 -0.4738 -0.0420  0.1230
   12MOL   C28012182   4.272   0.829   1.835 -0.6576 -0.0352  0.1363
   12MOL   C28112183   4.387   0.774   1.891 -0.1216 -0.5098  0.7504
   12MOL   C28212184   4.415   0.636   1.885 -0.2480  0.1789  0.0740
   12MOL   O28312185   4.521   0.581   1.955 -0.0615  0.3174 -0.1929
   12MOL   C28412186   4.638   0.566   1.888 -0.5642 -0.0402 -0.8663
   12MOL   C28512187   4.664   0.607   1.751  0.5503  0.7520  0.1213
   12MOL   C28612188   4.787   0.584   1.686 -0.6431 -0.8003 -0.3629
   12MOL   C28712189   4.897   0.534   1.762  0.1066 -0.2094  0.1554
   12MOL   C28812190   5.037   0.520   1.694  0.8059  0.1975  0.4887
   12MOL   C28912191   5.039   0.392   1.608  0.4506  0.0034  0.1557
   12MOL   C29012192   5.065   0.642   1.591  1.0944  0.4621 -0.4586
   12MOL   C29112193   5.146   0.516   1.805 -0.4626 -0.0143 -0.1795
   12MOL   C29212194   5.215   0.396   1.841 -0.0754 -0.2441  0.3605
   12MOL   C29312195   5.301   0.385   1.950 -0.0539 -0.3003 -0.7918
   12MOL   C29412196   5.331   0.501   2.024  0.1913  0.1843  0.1375
   12MOL   O29512197   5.408   0.474   2.136  0.5027  0.0870 -0.3371
   12MOL   C29612198   5.272   0.624   1.986 -0.8301 -0.2962  0.1370
   12MOL   C29712199   5.180   0.628   1.883  0.8835  1.1028  0.7165
   12MOL   C29812200   4.874   0.497   1.898  0.0097  0.9380 -0.5543
   12MOL   C29912201   4.745   0.509   1.960 -0.6551 -0.0368  0.0255
   12MOL   C30012202   4.333   0.550   1.811  0.2533  0.8616  0.4273
   12MOL   C30112203   4.218   0.605   1.745 -0.3808  0.2755  0.0044
   12MOL   C30212204   4.221   0.854   1.458  0.7547  0.4000  0.1486
   12MOL   C30312205   4.253   0.842   1.328 -0.8501  0.3125 -0.0299
   12MOL   H30412206   3.997   0.650   1.211 -0.5383  0.2003  0.5708
   12MOL   H30512207   3.922   0.671   1.447  1.0815 -1.3474  3.3871
   12MOL   H30612208   4.266   0.937   1.839  1.4026  0.0896  0.6731
   12MOL   H30712209   4.445   0.842   1.951  1.5490 -1.2313 -0.0252
   12MOL   H30812210   4.581   0.646   1.695  0.9957  1.3101 -0.1539
   12MOL   H30912211   4.791   0.593   1.578 -1.6056 -2.0032 -0.4998
   12MOL   H31012212   5.138   0.390   1.563 -0.4586  2.8165 -2.1151
   12MOL   H31112213   4.969   0.393   1.524 -1.7780 -0.0479  1.9739
   12MOL   H31212214   5.014   0.304   1.668 -0.1270  0.6012  0.7943
   12MOL   H31312215   5.060   0.737   1.644  3.1416  1.6968 -2.3851
   12MOL   H31412216   5.161   0.631   1.539  2.5657  0.1416  2.2248
   12MOL   H31512217   4.991   0.652   1.512  0.0222 -0.5467  0.3919
   12MOL   H31612218   5.194   0.302   1.791  1.7372 -1.5810  2.0050
   12MOL   H31712219   5.324   0.286   1.985  0.2011  0.4029  1.1048
   12MOL   H31812220   5.292   0.713   2.044 -0.9957 -0.3403  0.2608
   12MOL   H31912221   5.124   0.715   1.853 -0.8659  0.6712  2.6480
   12MOL   H32012222   4.947   0.449   1.962  0.0323  0.4427 -0.9464
   12MOL   H32112223   4.717   0.479   2.060 -0.2579  1.9593  0.7647
   12MOL   H32212224   4.347   0.444   1.800 -2.5249  0.6998 -2.1514
   12MOL   H32312225   4.149   0.542   1.691 -1.6330  0.5992  1.1976
   12MOL   H32412226   4.278   0.923   1.519  3.0013 -1.3329  0.0921
   12MOL   H32512227   4.339   0.892   1.286 -0.2119 -1.2211 -0.6182
   12MOL   C32612228   5.423   0.579   2.223  0.5665 -0.4225  0.1312
   12MOL   C32712229   5.328   0.596   2.330  0.2341 -0.2551  0.4747
   12MOL   C32812230   5.333   0.706   2.418  0.5358 -0.1352 -0.0158
   12MOL   C32912231   5.444   0.789   2.403  0.1573  0.0692  0.2517
   12MOL   S33012232   5.443   0.952   2.490 -0.3525  0.4262 -0.6560
   12MOL   O33112233   5.587   0.987   2.486 -0.0552  0.2251 -0.2261
   12MOL   O33212234   5.375   0.933   2.619  0.4830 -0.3884 -0.5881
   12MOL   C33312235   5.354   1.081   2.400 -0.1943  0.4710 -0.1086
   12MOL   C33412236   5.370   1.216   2.429 -0.3877  0.1288  0.1970
   12MOL   C33512237   5.288   1.314   2.368  0.3198  0.5801  0.3600
   12MOL   C33612238   5.194   1.277   2.268 -0.1600 -1.1199  0.4160
   12MOL   O33712239   5.102   1.360   2.214  0.1220  0.7399  0.0432
   12MOL   C33812240   4.970   1.371   2.268  0.4207  0.4883  0.6291
   12MOL   C33912241   4.905   1.266   2.338 -0.9013 -0.3760 -0.0727
   12MOL   C34012242   4.773   1.279   2.370 -0.5565 -0.3659  0.3624
   12MOL   C34112243   4.695   1.395   2.344 -0.1999 -0.0489  0.7558
   12MOL   C34212244   4.549   1.416   2.394  0.5048  0.7231 -0.0490
   12MOL   C34312245   4.468   1.287   2.395  0.2422  0.0536 -0.2993
   12MOL   C34412246   4.563   1.466   2.542 -0.3901  0.2560 -0.4276
   12MOL   C34512247   4.471   1.510   2.299  0.3436  0.0144 -0.2103
   12MOL   C34612248   4.458   1.474   2.161 -0.2347 -0.0009  0.3088
   12MOL   C34712249   4.382   1.556   2.077 -0.0560  0.1847  0.0823
   12MOL   C34812250   4.323   1.676   2.128  0.7986 -0.0320 -0.3803
   12MOL   O34912251   4.241   1.747   2.046 -0.0051  0.1826  0.0542
   12MOL   C35012252   4.328   1.709   2.265 -0.0230 -0.0742  0.4687
   12MOL   C35112253   4.404   1.625   2.350  0.2618 -0.2116  0.9720
   12MOL   C35212254   4.768   1.501   2.282  0.4401  0.4713 -0.0741
   12MOL   C35312255   4.904   1.489   2.247 -0.0569 -0.5624  0.3939
   12MOL   C35412256   5.184   1.140   2.236 -0.7470  0.7164  0.2105
   12MOL   C35512257   5.260   1.043   2.296  0.8145  0.8263 -0.0035
   12MOL   C35612258   5.545   0.772   2.304  0.0272  0.3477  0.6932
   12MOL   C35712259   5.532   0.663   2.221  0.2481 -0.3794 -0.7605
   12MOL   H35812260   5.241   0.532   2.328 -0.8647  1.0893 -4.7680
   12MOL   H35912261   5.256   0.719   2.492 -0.9283 -0.1300 -1.4902
   12MOL   H36012262   5.436   1.256   2.505 -0.8269  1.9431 -0.3524
   12MOL   H36112263   5.277   1.408   2.420  0.8165  0.5816  0.4686
   12MOL   H36212264   4.964   1.184   2.375 -0.4355 -0.0792 -0.1539
   12MOL   H36312265   4.723   1.199   2.422 -1.7135 -0.9487 -1.5947
   12MOL   H36412266   4.517   1.217   2.462  1.2871  2.7999  1.8988
   12MOL   H36512267   4.470   1.236   2.298 -1.6154  0.0031 -0.3305
   12MOL   H36612268   4.364   1.303   2.422 -0.1650 -0.7467 -1.3426
   12MOL   H36712269   4.611   1.563   2.554  1.0951 -0.5694  0.4284
   12MOL   H36812270   4.465   1.476   2.591  0.2114  1.9739  0.4851
   12MOL   H36912271   4.633   1.398   2.590  2.3019  1.8919 -1.9715
   12MOL   H37012272   4.497   1.378   2.131  0.7216  0.0887  1.2519
   12MOL   H37112273   4.364   1.527   1.975  1.1312 -0.0272 -0.0734
   12MOL   H37212274   4.282   1.794   2.313 -1.1640  0.2372 -1.1311
   12MOL   H37312275   4.422   1.654   2.452 -1.6849 -0.3679  1.3834
   12MOL   H37412276   4.711   1.592   2.291  0.6316  0.5826  0.0339
   12MOL   H37512277   4.955   1.575   2.207  0.0897 -0.1986  1.3381
   12MOL   H37612278   5.104   1.110   2.169 -0.1890  0.6050 -0.4129
   12MOL   H37712279   5.250   0.938   2.272  0.8318  0.4485  1.6039
   12MOL   H37812280   5.631   0.837   2.295  1.2001 -1.0186  1.7812
   12MOL   H37912281   5.612   0.629   2.158 -0.0677 -0.3285 -1.1915
   12MOL   C38012282   4.109   1.720   2.046 -0.2521  0.0439 -0.1702
   12MOL   C38112283   4.051   1.617   1.970  0.7715  0.2506 -0.1656
   12MOL   C38212284   3.914   1.592   1.965 -0.0982 -0.1233  0.4194
   12MOL   C38312285   3.824   1.671   2.040  0.7703 -0.3955 -0.0425
   12MOL   S38412286   3.651   1.640   2.042 -0.1251  0.4349  0.0058
   12MOL   O38512287   3.580   1.715   2.148 -0.0468 -0.3055  0.2567
   12MOL   O38612288   3.633   1.495   2.036 -0.3589  0.2031 -0.5232
   12MOL   C38712289   3.590   1.711   1.887  0.6264 -0.1778 -0.0829
   12MOL   C38812290   3.476   1.797   1.893 -0.0188 -0.3980  0.2219
   12MOL   C38912291   3.432   1.872   1.780 -0.7899 -0.7053  0.3338
   12MOL   C39012292   3.498   1.852   1.654  0.3025 -0.1710 -0.3480
   12MOL   O39112293   3.448   1.918   1.546  0.3598 -0.0086 -0.3250
   12MOL   C39212294   3.457   2.052   1.521 -0.4474 -0.1381  0.1902
   12MOL   C39312295   3.565   2.104   1.445 -0.1756 -0.5037  0.8109
   12MOL   C39412296   3.575   2.243   1.418  0.2732 -0.2780  0.2371
   12MOL   C39512297   3.465   2.331   1.451 -0.3365  0.2114  0.0334
   12MOL   C39612298   3.482   2.478   1.409  0.0404  0.1279 -0.1639
   12MOL   C39712299   3.362   2.563   1.458 -0.4506 -0.0298  0.1310
   12MOL   C39812300   3.611   2.526   1.487  0.1685  0.2247 -0.5321
   12MOL   C39912301   3.494   2.497   1.253 -0.2008 -0.6718  0.7058
   12MOL   C40012302   3.433   2.401   1.164 -0.5175 -0.1818 -0.0160
   12MOL   C40112303   3.429   2.428   1.022 -0.1766  0.1213 -0.5163
   12MOL   C40212304   3.495   2.546   0.976  0.3926  0.8778 -0.4167
   12MOL   O40312305   3.496   2.568   0.843  0.0808  0.5500  0.0437
   12MOL   C40412306   3.542   2.641   1.058  0.0870  0.3979 -0.0720
   12MOL   C40512307   3.542   2.623   1.198 -0.1582  0.5267 -0.7483
   12MOL   C40612308   3.352   2.274   1.518  0.3301  0.7196  0.4064
   12MOL   C40712309   3.346   2.136   1.552  0.5079  0.6141 -0.1486
   12MOL   C40812310   3.604   1.764   1.649  0.5624  0.3515  1.2357
   12MOL   C40912311   3.658   1.703   1.763 -0.7106  0.1549 -0.1638
   12MOL   C41012312   3.885   1.763   2.131  0.3195 -0.1331  0.3228
   12MOL   C41112313   4.023   1.792   2.134 -0.1729  0.2955 -0.3274
   12MOL   H41212314   4.118   1.556   1.911  0.3494  0.6243 -1.0476
   12MOL   H41312315   3.871   1.518   1.899  1.3917 -1.6987  1.2069
   12MOL   H41412316   3.423   1.799   1.987  0.4182 -0.8389  0.4776
   12MOL   H41512317   3.345   1.937   1.781 -0.0732  0.2621  0.3216
   12MOL   H41612318   3.646   2.037   1.424  0.4333  0.3655  0.3536
   12MOL   H41712319   3.657   2.282   1.359 -0.0323 -1.2735 -0.8417
   12MOL   H41812320   3.273   2.534   1.402 -1.5653 -1.6237  2.6106
   12MOL   H41912321   3.391   2.666   1.437  0.4122 -0.4091 -0.5743
   12MOL   H42012322   3.337   2.543   1.562  1.8368  0.3918  0.7855
   12MOL   H42112323   3.618   2.634   1.481 -3.0210  0.6949  2.6339
   12MOL   H42212324   3.613   2.503   1.593 -0.6527  1.0909 -0.3217
   12MOL   H42312325   3.702   2.483   1.446  0.4713 -0.1887  0.5661
   12MOL   H42412326   3.390   2.312   1.206 -0.6954  0.1899  0.5955
   12MOL   H42512327   3.388   2.366   0.944 -0.2486 -0.5037  0.0125
   12MOL   H42612328   3.569   2.733   1.010 -2.2993  1.4375  0.4819
   12MOL   H42712329   3.572   2.710   1.254 -0.2154  0.4596 -0.6145
   12MOL   H42812330   3.278   2.345   1.552  1.1421  1.1709  1.2943
   12MOL   H42912331   3.262   2.090   1.601  0.0102  1.5614 -0.0985
   12MOL   H43012332   3.653   1.742   1.555  0.1511  0.8984  0.8839
   12MOL   H43112333   3.749   1.645   1.757  0.2500  1.5181  1.0043
   12MOL   H43212334   3.822   1.825   2.193  0.5986 -1.5203  2.0223
   12MOL   H43312335   4.060   1.870   2.197 -0.3597 -0.1368  0.3204
   12MOL   C43412336   3.588   2.504   0.772 -0.1088  0.4607  0.3612
   12MOL   C43512337   3.711   2.568   0.745 -0.7368  0.5331  0.5234
   12MOL   C43612338   3.803   2.506   0.660  0.4434 -0.2875  0.7359
   12MOL   C43712339   3.776   2.378   0.613  0.6878  0.1405  0.1968
   12MOL   S43812340   3.897   2.293   0.501  0.1931 -0.1646 -0.1174
   12MOL   O43912341   3.880   2.150   0.530 -0.2497  0.0659  0.0290
   12MOL   O44012342   4.034   2.356   0.509  0.4737  0.0090  0.8379
   12MOL   C44112343   3.827   2.330   0.343  0.3476 -0.1246  0.0812
   12MOL   C44212344   3.797   2.467   0.304  0.1169  0.2057 -0.8878
   12MOL   C44312345   3.758   2.497   0.172  0.3897  0.2730  0.1850
   12MOL   C44412346   3.744   2.396   0.077  0.6748 -0.1319  0.1509
   12MOL   O44512347   3.705   2.417   8.199  0.9129  0.0864 -0.4414
   12MOL   C44612348   3.744   2.534   8.137 -0.4010  0.3134 -0.6864
   12MOL   C44712349   3.651   2.625   8.090  0.1767 -0.0997  0.0754
   12MOL   C44812350   3.690   2.749   8.028 -0.5718  0.0538 -0.1249
   12MOL   C44912351   3.827   2.783   8.025  0.2268 -0.4071 -0.2968
   12MOL   C45012352   3.870   2.913   7.960  0.6313  0.1353  0.1906
   12MOL   C45112353   3.751   3.001   7.919  0.0511 -0.7553 -0.0288
   12MOL   C45212354   3.929   2.996   8.079  0.5724 -0.3622 -0.2019
   12MOL   C45312355   3.958   2.897   7.835 -0.1130  0.0121 -0.3196
   12MOL   C45412356   4.085   2.956   7.826 -0.0008 -0.1496  0.1602
   12MOL   C45512357   4.163   2.938   7.713  1.2785 -0.5507 -0.3753
   12MOL   C45612358   4.116   2.865   7.604 -0.2321  0.3088 -0.6780
   12MOL   O45712359   4.203   2.845   7.503 -0.3946 -0.3138 -0.3569
   12MOL   C45812360   3.985   2.812   7.609  0.4933 -0.4006  0.0346
   12MOL   C45912361   3.907   2.827   7.725 -0.0102  0.7398  1.0963
   12MOL   C46012362   3.922   2.692   8.080 -0.2581 -0.0988 -0.2193
   12MOL   C46112363   3.882   2.565   8.126  0.9465 -0.2387 -0.2328
   12MOL   C46212364   3.778   2.263   0.115 -0.3539  0.3608  0.4443
   12MOL   C46312365   3.810   2.229   0.247  0.7063 -0.7190  0.5086
   12MOL   C46412366   3.650   2.317   0.633 -0.5899  0.0502 -0.1917
   12MOL   C46512367   3.557   2.384   0.709  0.6202  0.3547  0.3010
   12MOL   H46612368   3.747   2.664   0.782  1.4212 -0.2801  0.5779
   12MOL   H46712369   3.898   2.556   0.645  0.5601 -0.7337 -0.0482
   12MOL   H46812370   3.807   2.538   0.384  0.1616 -1.5346  0.6709
   12MOL   H46912371   3.730   2.600   0.152 -2.0579 -0.5270 -0.6628
   12MOL   H47012372   3.547   2.601   8.107  0.5728 -2.7243 -0.9818
   12MOL   H47112373   3.609   2.814   7.999 -1.6744 -0.8898  0.7625
   12MOL   H47212374   3.777   3.092   7.866  0.2371 -0.2515  0.9065
   12MOL   H47312375   3.689   3.027   8.005  4.6584  1.1617  2.9706
   12MOL   H47412376   3.694   2.951   7.842  0.4067 -2.1419  0.5914
   12MOL   H47512377   3.967   3.088   8.034 -2.5944  0.9493 -0.2814
   12MOL   H47612378   3.856   3.023   8.155 -0.0606 -0.5996 -0.7210
   12MOL   H47712379   4.007   2.940   8.132 -1.3017 -1.0954  1.8884
   12MOL   H47812380   4.134   3.008   7.908  1.7268  1.2177 -1.6724
   12MOL   H47912381   4.264   2.974   7.699  1.0070  0.5119  0.3201
   12MOL   H48012382   3.941   2.768   7.520 -1.2238 -0.2085  0.7721
   12MOL   H48112383   3.809   2.782   7.728 -0.2671  1.3446  1.6361
   12MOL   H48212384   4.028   2.716   8.075 -0.3014  0.3510  0.9190
   12MOL   H48312385   3.956   2.501   8.172  1.7297  1.6412  1.1668
   12MOL   H48412386   3.780   2.189   0.036  0.3574  1.5896 -0.7186
   12MOL   H48512387   3.839   2.128   0.272 -0.1600 -0.7565  1.4098
   12MOL   H48612388   3.627   2.220   0.590  1.1291 -0.6891  0.5102
   12MOL   H48712389   3.461   2.338   0.722  1.3408 -0.9825  0.9703
   12MOL   C48812390   4.193   2.726   7.439  0.0509 -0.3736 -0.6743
   12MOL   C48912391   4.198   2.604   7.511  0.4715  0.0269 -0.5259
   12MOL   C49012392   4.177   2.489   7.447  0.3622  0.1468  0.3085
   12MOL   C49112393   4.177   2.477   7.307  0.1277 -0.6449 -0.5787
   12MOL   S49212394   4.169   2.309   7.224  0.3140  0.2358  0.2600
   12MOL   O49312395   4.039   2.250   7.255 -0.4577  0.1975 -0.1895
   12MOL   O49412396   4.294   2.234   7.251  0.2258 -0.1636 -0.2609
   12MOL   C49512397   4.182   2.324   7.050 -0.5824  0.6374 -0.2037
   12MOL   C49612398   4.084   2.265   6.970 -0.3744  0.4683 -0.5172
   12MOL   C49712399   4.094   2.268   6.826  0.4827  0.1677  0.0512
   12MOL   C49812400   4.213   2.330   6.771  0.4115  0.2521  0.7100
   12MOL   O49912401   4.223   2.345   6.634  0.4336  0.4184  0.0082
   12MOL   C50012402   4.334   2.303   6.570  0.2124  0.0648  0.6235
   12MOL   C50112403   4.392   2.392   6.481 -0.2576  0.5061 -0.2477
   12MOL   C50212404   4.503   2.352   6.417 -0.5027 -0.2873  0.0301
   12MOL   C50312405   4.563   2.231   6.436  0.1150  0.1005  0.0493
   12MOL   C50412406   4.687   2.190   6.348  0.3414  0.3220 -0.4411
   12MOL   C50512407   4.723   2.294   6.228 -0.0299 -0.0724  0.0696
   12MOL   C50612408   4.809   2.175   6.436 -0.4696 -0.0003  0.0730
   12MOL   C50712409   4.649   2.053   6.277 -0.5696  0.2063 -0.2590
   12MOL   C50812410   4.693   1.927   6.314  0.2609  0.7978 -0.1784
   12MOL   C50912411   4.653   1.810   6.253 -0.0724  0.3109  0.1524
   12MOL   C51012412   4.568   1.820   6.139  0.0954  0.2117  0.3470
   12MOL   O51112413   4.532   1.698   6.087  0.2793  0.0092  0.4995
   12MOL   C51212414   4.529   1.940   6.092  0.3167 -0.1685  0.3325
   12MOL   C51312415   4.568   2.056   6.160  0.2854 -0.6677 -0.7079
   12MOL   C51412416   4.515   2.148   6.538  0.3072  0.2180 -0.3095
   12MOL   C51512417   4.402   2.184   6.609 -0.4047  0.4681 -0.4740
   12MOL   C51612418   4.313   2.386   6.853  0.7886 -0.2852 -0.2937
   12MOL   C51712419   4.299   2.385   6.992  0.2982 -0.4422  0.0273
   12MOL   C51812420   4.176   2.594   7.231 -0.4055  0.2307 -0.8014
   12MOL   C51912421   4.181   2.719   7.301 -0.1811 -0.1647  0.2497
   12MOL   H52012422   4.206   2.608   7.619  0.9323 -0.2430 -0.5517
   12MOL   H52112423   4.171   2.400   7.508  1.8188 -1.3421 -1.6464
   12MOL   H52212424   4.006   2.214   7.024  2.0824 -2.7257  0.1224
   12MOL   H52312425   4.019   2.231   6.757  0.5214  0.4049 -0.1188
   12MOL   H52412426   4.352   2.492   6.468 -1.3050  0.0951 -0.1963
   12MOL   H52512427   4.558   2.428   6.362 -0.5663  0.6515  1.2371
   12MOL   H52612428   4.635   2.317   6.169  1.6899 -0.8281 -2.8855
   12MOL   H52712429   4.791   2.253   6.153 -1.8690  0.5750 -2.0064
   12MOL   H52812430   4.765   2.392   6.254  0.8510 -0.7879  1.3895
   12MOL   H52912431   4.796   2.108   6.520  0.7912  0.5262  0.6996
   12MOL   H53012432   4.892   2.131   6.381 -0.0004  1.2906 -0.2676
   12MOL   H53112433   4.851   2.267   6.477 -1.4319  0.2197  0.5879
   12MOL   H53212434   4.745   1.924   6.409 -0.6987  0.6951  0.3532
   12MOL   H53312435   4.686   1.718   6.298  3.0549  1.1220 -0.3543
   12MOL   H53412436   4.467   1.950   6.003  0.2512 -3.6100 -0.0718
   12MOL   H53512437   4.528   2.145   6.112  0.2770 -0.9647 -1.2615
   12MOL   H53612438   4.559   2.053   6.566  0.1884  0.5615  1.0857
   12MOL   H53712439   4.367   2.118   6.687  1.1601 -3.0259 -2.6489
   12MOL   H53812440   4.392   2.439   6.801 -0.2434  0.9586 -0.6224
   12MOL   H53912441   4.370   2.433   7.058 -0.2891  0.8989 -0.3142
   12MOL   H54012442   4.188   2.600   7.124  0.5987 -0.0942 -0.7165
   12MOL   H54112443   4.177   2.812   7.247 -0.2064 -0.3804 -0.1239
   12MOL   C54212444   4.410   1.651   6.115  0.3513 -0.4390 -0.4443
   12MOL   C54312445   4.405   1.532   6.183  0.4077 -0.3412 -0.7940
   12MOL   C54412446   4.280   1.478   6.211 -0.1025 -0.7291  0.7318
   12MOL   C54512447   4.164   1.542   6.162 -0.0129  0.1321  0.3284
   12MOL   S54612448   4.004   1.469   6.212 -0.2650 -0.0716 -0.0264
   12MOL   O54712449   4.005   1.436   6.355 -0.3832  0.2060 -0.0626
   12MOL   O54812450   3.987   1.360   6.116  0.3166 -0.3812  0.2492
   12MOL   C54912451   3.880   1.603   6.168  0.7691 -0.1018  0.0337
   12MOL   C55012452   3.875   1.712   6.250  0.2409 -0.6088  0.0199
   12MOL   C55112453   3.788   1.819   6.220 -0.2275  0.1058  0.0540
   12MOL   C55212454   3.692   1.809   6.116 -0.2797 -0.2515  0.0663
   12MOL   O55312455   3.610   1.911   6.078 -0.1639 -0.0876  0.3306
   12MOL   C55412456   3.618   2.037   6.135  0.4485 -0.3417  0.2243
   12MOL   C55512457   3.535   2.075   6.251  0.6856 -0.0191  0.0734
   12MOL   C55612458   3.518   2.209   6.288  0.2906 -0.0862  0.1426
   12MOL   C55712459   3.584   2.309   6.208  0.3700  0.0884 -1.3930
   12MOL   C55812460   3.533   2.449   6.239 -0.1920 -0.3762  0.2765
   12MOL   C55912461   3.584   2.496   6.373 -0.1621  0.4955  0.2105
   12MOL   C56012462   3.585   2.551   6.142 -0.0670 -0.1021 -1.3080
   12MOL   C56112463   3.377   2.441   6.223  1.0105 -0.0472  0.3886
   12MOL   C56212464   3.287   2.470   6.327  0.3512 -0.1693 -0.1172
   12MOL   C56312465   3.151   2.443   6.327 -0.3538 -0.0191  0.7621
   12MOL   C56412466   3.091   2.398   6.207  0.3802 -0.3492  0.0012
   12MOL   O56512467   2.957   2.381   6.212  0.3354 -0.4414  0.1267
   12MOL   C56612468   3.173   2.376   6.099  0.6998  0.1054  0.3890
   12MOL   C56712469   3.315   2.406   6.101  0.0982 -0.3556 -0.9166
   12MOL   C56812470   3.669   2.271   6.106 -0.2574 -0.2277  0.0699
   12MOL   C56912471   3.694   2.139   6.068 -0.0882  0.3409 -0.1902
   12MOL   C57012472   3.688   1.686   6.044 -0.0319  0.2849 -0.3263
   12MOL   C57112473   3.783   1.585   6.071  0.1755  0.5611  0.0678
   12MOL   C57212474   4.176   1.663   6.097 -0.3928  0.0374 -0.1171
   12MOL   C57312475   4.300   1.722   6.076 -0.4889  0.2940 -0.1495
   12MOL   H57412476   4.490   1.473   6.212 -1.4483 -2.2802  0.8788
   12MOL   H57512477   4.271   1.382   6.261  2.3613  0.5913  3.8436
   12MOL   H57612478   3.960   1.728   6.315 -0.0868  0.3406  0.2222
   12MOL   H57712479   3.791   1.915   6.270  1.4328 -0.9864  2.1250
   12MOL   H57812480   3.474   1.999   6.296  0.4647 -0.1796 -0.4842
   12MOL   H57912481   3.451   2.234   6.369  1.8509 -0.4826  1.5832
   12MOL   H58012482   3.691   2.477   6.362  0.2808  0.5284  3.7498
   12MOL   H58112483   3.553   2.435   6.458  2.0749  0.3078  0.9371
   12MOL   H58212484   3.552   2.600   6.385  0.8950  0.8966 -0.3753
   12MOL   H58312485   3.573   2.518   6.039 -2.6795 -2.3400 -0.3475
   12MOL   H58412486   3.531   2.646   6.150  0.6043  0.2272 -0.6278
   12MOL   H58512487   3.688   2.585   6.151 -0.9283  2.1939  0.6414
   12MOL   H58612488   3.317   2.504   6.425 -3.3799 -2.1496  1.8308
   12MOL   H58712489   3.089   2.480   6.407  0.8234  1.1793  1.1431
   12MOL   H58812490   3.133   2.343   6.004 -1.3132 -0.6225  1.4651
   12MOL   H58912491   3.370   2.372   6.015 -1.1624 -2.2405 -1.0052
   12MOL   H59012492   3.716   2.349   6.048 -0.3207 -1.6750 -1.9994
   12MOL   H59112493   3.756   2.116   5.983  2.4153  1.1275  1.3683
   12MOL   H59212494   3.609   1.666   5.973  0.1358  0.9925 -0.7192
   12MOL   H59312495   3.775   1.493   6.016 -2.1809  0.7461  0.0190
   12MOL   H59412496   4.087   1.715   6.063  0.7640  1.3714 -1.2148
   12MOL   H59512497   4.305   1.825   6.042 -0.8805  0.2880 -0.2242
   12MOL   C59612498   2.876   2.471   6.153  0.3302  0.2645 -0.1040
   12MOL   C59712499   2.859   2.466   6.016 -0.2229  0.2568 -0.3274
   12MOL   C59812500   2.788   2.564   5.942  0.0461 -0.1773  0.6640
   12MOL   C59912501   2.712   2.655   6.015 -0.2077 -0.3873 -0.1205
   12MOL   S60012502   2.615   2.777   5.923  0.5375  0.0922 -0.0369
   12MOL   O60112503   2.692   2.820   5.801 -0.7147  0.2135  0.1096
   12MOL   O60212504   2.569   2.882   6.018 -0.3093 -0.5270 -0.1413
   12MOL   C60312505   2.478   2.667   5.857  0.4457 -0.0404 -0.2006
   12MOL   C60412506   2.377   2.604   5.938 -1.0518  0.2500  0.3120
   12MOL   C60512507   2.282   2.514   5.879 -0.1613  0.7160  0.0899
   12MOL   C60612508   2.280   2.494   5.742  0.4428 -0.0263  0.1131
   12MOL   O60712509   2.191   2.407   5.679  0.1025 -0.5623  0.4706
   12MOL   C60812510   2.103   2.454   5.591  0.2098 -0.4435  0.3574
   12MOL   C60912511   2.043   2.583   5.610 -0.2478  0.4894  0.6075
   12MOL   C61012512   1.952   2.628   5.517 -0.0275  0.3549  0.9566
   12MOL   C61112513   1.913   2.546   5.408  0.2313  1.1248 -0.1798
   12MOL   C61212514   1.814   2.606   5.314 -0.4100 -0.0246  0.2432
   12MOL   C61312515   1.892   2.718   5.237 -1.1657 -0.4141  0.4820
   12MOL   C61412516   1.786   2.506   5.190  0.1023  0.0859  0.3610
   12MOL   C61512517   1.679   2.648   5.373  0.6195  0.1876 -0.5296
   12MOL   C61612518   1.627   2.779   5.359  0.3248 -0.1383 -0.4036
   12MOL   C61712519   1.491   2.805   5.391 -0.2301  0.9424 -0.0097
   12MOL   C61812520   1.410   2.702   5.446  0.1637  0.1482  0.6216
   12MOL   O61912521   1.276   2.723   5.478 -0.0093  0.2314  0.3619
   12MOL   C62012522   1.467   2.574   5.471 -0.8138 -0.5212  0.1956
   12MOL   C62112523   1.598   2.546   5.428  0.1402  0.0052  0.3542
   12MOL   C62212524   1.975   2.418   5.397  0.6879  0.4963 -0.7823
   12MOL   C62312525   2.063   2.367   5.493 -0.3964 -0.3411  0.1420
   12MOL   C62412526   2.368   2.565   5.658 -0.7796  0.7186  0.2580
   12MOL   C62512527   2.462   2.655   5.720  0.0813 -0.4901 -0.4182
   12MOL   C62612528   2.715   2.662   6.157 -0.4406 -0.2926 -0.4098
   12MOL   C62712529   2.800   2.568   6.229  0.1536 -0.1114 -0.0085
   12MOL   H62812530   2.918   2.390   5.966 -0.8364 -1.4173  1.3999
   12MOL   H62912531   2.787   2.558   5.834 -1.2911 -2.5029  0.7766
   12MOL   H63012532   2.363   2.627   6.043 -0.1895  0.1372  0.4598
   12MOL   H63112533   2.220   2.451   5.941  0.5506  0.7521  0.8567
   12MOL   H63212534   2.072   2.649   5.691  0.7352 -0.3305  0.9280
   12MOL   H63312535   1.902   2.722   5.537  1.0785  0.8988  1.2347
   12MOL   H63412536   1.913   2.809   5.293  0.2672 -0.5294  0.1487
   12MOL   H63512537   1.832   2.741   5.149  0.7000 -1.1933 -1.0234
   12MOL   H63612538   1.987   2.683   5.196 -2.3331 -2.0445 -0.9224
   12MOL   H63712539   1.866   2.493   5.117 -1.7275  0.3333 -1.7404
   12MOL   H63812540   1.748   2.408   5.220  0.8562 -0.4847 -0.5322
   12MOL   H63912541   1.703   2.545   5.130  1.1569 -0.4399 -1.4908
   12MOL   H64012542   1.683   2.856   5.309  0.2804 -0.1706 -0.5018
   12MOL   H64112543   1.456   2.908   5.388  0.4810  1.1400 -2.9337
   12MOL   H64212544   1.401   2.506   5.522 -1.0316  0.6391  1.4962
   12MOL   H64312545   1.631   2.443   5.428 -2.0683 -0.7854 -2.6515
   12MOL   H64412546   1.947   2.355   5.314  0.1493  1.9528 -1.7183
   12MOL   H64512547   2.102   2.267   5.486  2.0817  0.5929  0.1266
   12MOL   H64612548   2.372   2.545   5.552  0.9473 -1.6694  0.7410
   12MOL   H64712549   2.531   2.701   5.650 -0.6573  0.1581 -0.7333
   12MOL   H64812550   2.654   2.741   6.199  0.0586 -0.0808 -0.0733
   12MOL   H64912551   2.809   2.574   6.336  0.0588 -4.0661  0.2951
   12MOL   C65012552   1.235   2.835   5.541 -0.0173 -0.4608  0.1560
   12MOL   C65112553   1.125   2.913   5.494 -0.0454  0.6082 -0.0584
   12MOL   C65212554   1.088   3.034   5.553  0.1587 -0.2008  0.6627
   12MOL   C65312555   1.137   3.058   5.682 -0.5702 -0.3538  0.4611
   12MOL   S65412556   1.063   3.188   5.774  0.0898  0.1981 -0.1295
   12MOL   O65512557   0.929   3.228   5.715 -0.3431 -0.6178  0.2912
   12MOL   O65612558   1.161   3.295   5.789 -0.0130  0.3650  0.7361
   12MOL   C65712559   1.028   3.131   5.937 -0.7836 -0.9724 -0.1576
   12MOL   C65812560   0.985   2.995   5.953 -0.6896  0.5798 -0.5030
   12MOL   C65912561   0.957   2.951   6.079  1.1822 -0.1877 -0.2699
   12MOL   C66012562   0.972   3.028   6.191 -1.0973  0.0746 -0.0321
   12MOL   O66112563   0.930   2.969   6.306  0.2076  0.5267 -0.7249
   12MOL   C66212564   0.943   3.038   6.423  0.4226 -0.6798 -0.0123
   12MOL   C66312565   0.827   3.071   6.490 -0.2539 -0.6000  0.1891
   12MOL   C66412566   0.838   3.127   6.621 -0.2321  0.2288 -0.5720
   12MOL   C66512567   0.967   3.169   6.670  0.3921 -0.2292 -0.4398
   12MOL   C66612568   0.993   3.247   6.798 -0.2404  0.6239  0.0420
   12MOL   C66712569   0.859   3.277   6.873  0.4591  0.2944  0.0657
   12MOL   C66812570   1.082   3.166   6.895  0.0674 -0.3637 -0.2805
   12MOL   C66912571   1.063   3.384   6.763 -0.3612  0.4091 -0.0605
   12MOL   C67012572   1.023   3.449   6.644 -0.3193 -0.1467 -0.2420
   12MOL   C67112573   1.077   3.576   6.615 -0.0032  0.4074  0.0422
   12MOL   C67212574   1.153   3.646   6.706 -0.2835  0.2302  0.2731
   12MOL   O67312575   1.180   3.776   6.679 -0.0988  0.4258  0.1890
   12MOL   C67412576   1.195   3.584   6.825 -0.2815  1.1059 -0.0509
   12MOL   C67512577   1.142   3.452   6.858 -0.0675 -0.3695  0.4366
   12MOL   C67612578   1.083   3.133   6.595 -0.0454 -0.1282 -0.1053
   12MOL   C67712579   1.068   3.052   6.482 -0.2573  0.1583 -0.4459
   12MOL   C67812580   1.003   3.164   6.177  0.3510  0.0700  0.0423
   12MOL   C67912581   1.034   3.216   6.049  0.5854  0.2887  0.1805
   12MOL   C68012582   1.243   2.980   5.736 -0.0514  0.7246 -0.4691
   12MOL   C68112583   1.290   2.868   5.665 -0.0367 -0.4606 -0.2025
   12MOL   H68212584   1.075   2.886   5.403  0.7453 -0.2038 -0.2650
   12MOL   H68312585   1.003   3.081   5.505  1.1488  0.1993 -0.7624
   12MOL   H68412586   0.981   2.930   5.866 -0.9223  1.3714 -1.0875
   12MOL   H68512587   0.920   2.850   6.081 -0.2199  0.3220  0.0514
   12MOL   H68612588   0.730   3.045   6.450  0.3524  1.7057 -2.8983
   12MOL   H68712589   0.750   3.142   6.682 -1.2368 -1.3183 -1.6113
   12MOL   H68812590   0.800   3.329   6.798 -0.2163  2.1415  1.8452
   12MOL   H68912591   0.874   3.338   6.962  0.0103 -0.6523  0.8087
   12MOL   H69012592   0.803   3.186   6.894 -0.5814  0.3523 -2.3575
   12MOL   H69112593   1.073   3.219   6.989 -0.6472 -1.3389  0.2161
   12MOL   H69212594   1.040   3.067   6.913 -2.9117  1.0328  0.7802
   12MOL   H69312595   1.188   3.172   6.868  0.7192  0.6661  2.4079
   12MOL   H69412596   0.951   3.405   6.577 -0.2383  0.4770 -0.7497
   12MOL   H69512597   1.045   3.626   6.524 -1.7759 -1.0297 -0.1489
   12MOL   H69612598   1.267   3.635   6.888 -0.6140 -0.4440  1.6445
   12MOL   H69712599   1.187   3.410   6.948 -0.2334 -0.1949  0.6003
   12MOL   H69812600   1.183   3.155   6.628  1.0063 -2.0506 -1.8828
   12MOL   H69912601   1.155   3.021   6.425 -1.0156 -0.8200 -1.0881
   12MOL   H70012602   1.013   3.222   6.267 -2.6518  2.8305 -1.3230
   12MOL   H70112603   1.056   3.320   6.030 -0.4336  0.1179 -2.0436
   12MOL   H70212604   1.274   3.008   5.836 -0.6296  0.3400 -0.1770
   12MOL   H70312605   1.370   2.809   5.707 -0.7928  0.5664  2.8620
   12MOL   C70412606   1.076   3.874   6.665 -0.3080 -0.0004  0.4393
   12MOL   C70512607   0.957   3.869   6.740 -0.3797  0.1032  0.0329
   12MOL   C70612608   0.864   3.971   6.726  0.2816  0.3145  0.5776
   12MOL   C70712609   0.891   4.080   6.636 -0.2940 -0.0442 -0.5016
   12MOL   S70812610   0.765   4.207   6.637  0.2856 -0.2572  0.2004
   12MOL   O70912611   0.760   4.261   6.500  0.3342  0.4096 -0.8024
   12MOL   O71012612   0.778   4.299   6.751 -0.1039  0.1019  0.5202
   12MOL   C71112613   0.615   4.118   6.653 -0.7465  0.3714  0.2264
   12MOL   C71212614   0.523   4.153   6.757  0.6260 -0.4734  0.4023
   12MOL   C71312615   0.399   4.085   6.765  0.1811 -0.7045 -0.6166
   12MOL   C71412616   0.363   3.994   6.669  0.1708 -0.2535  0.4830
   12MOL   O71512617   0.245   3.926   6.682  0.6063  0.0205  0.4418
   12MOL   C71612618   0.216   3.856   6.793  0.1648 -0.0339 -0.2123
   12MOL   C71712619   0.077   3.849   6.826  0.4164  0.0657  0.3366
   12MOL   C71812620   0.034   3.774   6.938 -0.1908  0.8653  0.3285
   12MOL   C71912621   0.130   3.714   7.019 -0.2893 -0.0211 -0.4737
   12MOL   C72012622   0.099   3.609   7.129 -0.2207 -0.5120 -0.3113
   12MOL   C72112623   8.203   3.613   7.163 -0.5621  0.4341  0.5298
   12MOL   C72212624   0.130   3.468   7.071 -0.6510 -0.3076  0.4025
   12MOL   C72312625   0.172   3.645   7.263 -0.8133  0.0101  0.0779
   12MOL   C72412626   0.180   3.774   7.311  0.4004 -0.7502  0.3920
   12MOL   C72512627   0.244   3.801   7.435  0.2787  0.2041  0.3242
   12MOL   C72612628   0.307   3.697   7.506  0.0155 -0.2393  0.1856
   12MOL   O72712629   0.353   3.729   7.635 -0.1908  0.0755 -0.2618
   12MOL   C72812630   0.303   3.568   7.458 -0.3234  0.1747  1.3236
   12MOL   C72912631   0.234   3.537   7.339  0.1313 -0.2537  0.5571
   12MOL   C73012632   0.270   3.737   6.994 -0.2752 -0.4733 -0.4421
   12MOL   C73112633   0.311   3.806   6.881 -0.8185 -0.0150 -1.1908
   12MOL   C73212634   0.455   3.960   6.570 -0.3291 -0.0840 -0.3662
   12MOL   C73312635   0.577   4.024   6.556 -0.1182 -0.4436  0.2856
   12MOL   C73412636   1.006   4.077   6.551 -0.0578  0.1576 -0.7127
   12MOL   C73512637   1.095   3.972   6.564 -0.8509 -0.6893  0.2064
   12MOL   H73612638   0.939   3.786   6.806 -0.8440 -1.5187 -2.0690
   12MOL   H73712639   0.786   3.988   6.799  1.0310 -1.1271  1.7299
   12MOL   H73812640   0.552   4.216   6.840  0.8281 -1.8897  1.4258
   12MOL   H73912641   0.325   4.116   6.837  2.9225  0.5186  1.7686
   12MOL   H74012642   8.251   3.879   6.759 -0.4233 -0.2048  1.1974
   12MOL   H74112643   8.181   3.768   6.952 -0.2165  0.9360  0.1640
   12MOL   H74212644   8.142   3.585   7.077  3.2101 -0.7150 -1.8903
   12MOL   H74312645   8.171   3.709   7.204 -3.3230  0.0428 -0.5500
   12MOL   H74412646   8.181   3.535   7.237 -1.9822  0.8005  0.5158
   12MOL   H74512647   0.237   3.459   7.052 -0.1730  3.4934  0.9684
   12MOL   H74612648   0.110   3.390   7.144 -0.9359 -0.5060  0.1118
   12MOL   H74712649   0.079   3.451   6.976 -0.7809  0.7053  0.2890
   12MOL   H74812650   0.144   3.861   7.258 -1.1152 -1.3007  0.4921
   12MOL   H74912651   0.242   3.902   7.474 -0.0590  0.1718  0.3892
   12MOL   H75012652   0.349   3.491   7.517  0.3873 -0.1146  0.4036
   12MOL   H75112653   0.246   3.444   7.285 -0.9524  0.6101 -1.2175
   12MOL   H75212654   0.343   3.706   7.067 -1.9686  0.0941  1.5435
   12MOL   H75312655   0.417   3.821   6.870 -0.5582 -1.1483 -0.3021
   12MOL   H75412656   0.416   3.889   6.498 -1.1934  1.2027 -1.1756
   12MOL   H75512657   0.639   3.999   6.472 -1.7663 -2.0601 -0.4772
   12MOL   H75612658   1.028   4.164   6.490  0.1637  0.8783  0.3879
   12MOL   H75712659   1.189   3.979   6.511 -2.2382  2.0442 -1.9718
   12MOL   C75812660   0.475   3.678   7.667 -0.1277 -0.3462 -0.6497
   12MOL   C75912661   0.482   3.550   7.730 -0.0303 -0.4022  0.4352
   12MOL   C76012662   0.608   3.482   7.732  0.0472 -0.2589 -0.1201
   12MOL   C76112663   0.725   3.547   7.688  0.1464  0.0463 -0.1726
   12MOL   S76212664   0.875   3.450   7.686  0.0223 -0.2521  0.1877
   12MOL   O76312665   0.940   3.455   7.553 -0.7048 -0.2514 -0.0438
   12MOL   O76412666   0.840   3.317   7.734 -0.2377 -0.1356  0.2519
   12MOL   C76512667   0.991   3.512   7.807 -0.7020  0.2318 -0.5530
   12MOL   C76612668   1.124   3.489   7.791  0.3607  0.0532 -0.4978
   12MOL   C76712669   1.213   3.517   7.897 -0.2095 -0.1530 -0.0769
   12MOL   C76812670   1.161   3.566   8.013 -0.0371 -0.4042 -0.1499
   12MOL   O76912671   1.241   3.580   8.121 -0.3229 -0.3892  0.3519
   12MOL   C77012672   1.312   3.468   8.174 -0.2263 -0.0641 -0.1216
   12MOL   C77112673   1.453   3.446   8.141 -0.5607  0.2711 -0.2358
   12MOL   C77212674   1.517   3.337   8.201  0.7800  0.0942  0.4181
   12MOL   C77312675   1.452   3.249   0.040 -0.1983  0.2080  0.7718
   12MOL   C77412676   1.527   3.123   0.096 -0.0499  0.1868  0.8414
   12MOL   C77512677   1.645   3.177   0.183 -0.2765  0.0154 -0.1623
   12MOL   C77612678   1.430   3.037   0.185  0.2361  0.5522  0.2047
   12MOL   C77712679   1.582   3.034   8.229  1.1888  0.3876 -0.1218
   12MOL   C77812680   1.484   2.975   8.141 -0.6827 -1.1115  0.2963
   12MOL   C77912681   1.527   2.895   8.034  0.5813  0.0601 -0.2192
   12MOL   C78012682   1.660   2.864   8.011  0.2721  0.2494  0.4012
   12MOL   O78112683   1.698   2.779   7.907 -0.1992 -0.5275 -0.5882
   12MOL   C78212684   1.757   2.909   8.100  0.4098 -0.1398 -0.1696
   12MOL   C78312685   1.719   2.996   8.206  0.6000 -0.3737  0.1596
   12MOL   C78412686   1.313   3.274   0.072  0.0167  0.1477  0.0706
   12MOL   C78512687   1.244   3.381   0.010  0.1352  0.2716  0.5877
   12MOL   C78612688   1.026   3.606   8.027  0.2838 -0.4017  0.4406
   12MOL   C78712689   0.943   3.570   7.926  0.2647 -0.3064  0.6448
   12MOL   C78812690   0.722   3.676   7.642  0.2022  0.2685  0.4013
   12MOL   C78912691   0.592   3.745   7.629 -0.2599 -0.2122 -0.3063
   12MOL   H79012692   0.392   3.497   7.754  0.6733 -2.5874 -1.5568
   12MOL   H79112693   0.617   3.381   7.769 -1.4291 -0.3116  0.1448
   12MOL   H79212694   1.151   3.435   7.702  1.9564 -0.4678  0.2879
   12MOL   H79312695   1.315   3.487   7.879  0.0810  1.5246 -1.3501
   12MOL   H79412696   1.513   3.518   8.088  1.6039 -0.5188  1.0684
   12MOL   H79512697   1.619   3.310   8.179  0.8785  0.1242  0.8360
   12MOL   H79612698   1.701   3.092   0.221  0.2793  0.1816 -0.5977
   12MOL   H79712699   1.601   3.240   0.260  2.1586 -0.0297  1.3257
   12MOL   H79812700   1.713   3.232   0.117 -0.9553  2.2854  0.9719
   12MOL   H79912701   1.352   2.996   0.122  1.5544  1.4531 -2.0624
   12MOL   H80012702   1.482   2.953   0.232 -1.1723  0.3534  1.4560
   12MOL   H80112703   1.391   3.094   0.269 -1.4823 -0.0523 -0.1596
   12MOL   H80212704   1.377   2.989   8.148 -0.4831  0.6241  0.1431
   12MOL   H80312705   1.453   2.851   7.969 -1.3547  2.7400  0.1080
   12MOL   H80412706   1.859   2.878   8.085 -0.5531 -2.8565 -1.4809
   12MOL   H80512707   1.796   3.032   0.019  0.5184 -0.8787  0.5325
   12MOL   H80612708   1.250   3.211   0.133  0.4079 -0.3863 -0.0760
   12MOL   H80712709   1.139   3.398   0.026  0.0415  1.6003 -1.1931
   12MOL   H80812710   0.985   3.656   8.113  0.7263  0.6615  0.0327
   12MOL   H80912711   0.838   3.596   7.929  0.6986  1.8866 -1.4099
   12MOL   H81012712   0.812   3.724   7.607  0.8843 -0.3208  1.3005
   12MOL   H81112713   0.580   3.842   7.584  1.1309 -0.1602 -0.5927
   12MOL   C81212714   1.769   2.661   7.930 -0.0590  0.0383 -0.6321
   12MOL   C81312715   1.771   2.595   8.059 -0.2255  0.4524  0.4114
   12MOL   C81412716   1.854   2.486   8.086 -0.0957  0.1776  0.3708
   12MOL   C81512717   1.931   2.427   7.991  0.0297  0.2490 -0.2416
   12MOL   S81612718   2.004   2.267   8.038 -0.0876 -0.1224  0.4086
   12MOL   O81712719   1.897   2.172   8.004 -0.0731 -0.3278  0.3657
   12MOL   O81812720   2.058   2.268   8.173  0.4436  0.2038 -0.3535
   12MOL   C81912721   2.134   2.231   7.923  0.0419 -0.0023 -0.3660
   12MOL   C82012722   2.201   2.336   7.858 -0.5105  0.1013 -0.4610
   12MOL   C82112723   2.304   2.305   7.766  0.1020 -0.6003  0.1464
   12MOL   C82212724   2.336   2.170   7.738 -0.0499 -0.3814 -0.3606
   12MOL   O82312725   2.428   2.147   7.639 -1.1209  0.5487 -0.1356
   12MOL   C82412726   2.369   2.103   7.521  0.1574  0.0408 -1.4067
   12MOL   C82512727   2.304   2.188   7.430 -0.1557  0.3474 -0.4871
   12MOL   C82612728   2.234   2.138   7.319 -0.5983 -0.2121  0.5816
   12MOL   C82712729   2.221   2.000   7.303 -0.3936  0.2341 -0.5122
   12MOL   C82812730   2.136   1.951   7.182 -0.4611  0.8599 -0.2798
   12MOL   C82912731   2.002   1.909   7.244  0.0378  0.1143 -0.2695
   12MOL   C83012732   2.110   2.056   7.071 -0.2607 -0.8197  0.1964
   12MOL   C83112733   2.209   1.833   7.118  0.1470  0.2348  0.1631
   12MOL   C83212734   2.349   1.843   7.092 -0.3584 -0.4369  0.2935
   12MOL   C83312735   2.430   1.739   7.037  0.2294 -0.3323  0.4085
   12MOL   C83412736   2.370   1.623   6.989  0.1913 -0.5713 -0.5222
   12MOL   O83512737   2.447   1.527   6.921  0.4168  0.2907 -0.1085
   12MOL   C83612738   2.230   1.607   7.010 -0.6956 -0.3122 -0.2768
   12MOL   C83712739   2.155   1.709   7.079 -0.6659  0.5699  0.6415
   12MOL   C83812740   2.282   1.910   7.390 -0.6622 -0.0360  0.4471
   12MOL   C83912741   2.353   1.967   7.499 -0.0691  0.0306  0.6639
   12MOL   C84012742   2.271   2.063   7.805 -0.0790 -0.5803 -0.4475
   12MOL   C84112743   2.168   2.098   7.895  0.2889 -0.4691 -0.1172
   12MOL   C84212744   1.926   2.481   7.858  0.4053  0.3863 -0.1134
   12MOL   C84312745   1.842   2.594   7.830 -0.7893  0.5747  0.0876
   12MOL   H84412746   1.714   2.630   8.143 -1.1288  1.2668 -0.5145
   12MOL   H84512747   1.856   2.442   8.184 -2.5547  1.4007  1.0129
   12MOL   H84612748   2.179   2.440   7.880  0.4729  0.4909 -1.2501
   12MOL   H84712749   2.359   2.385   7.719 -0.4441 -0.2522  0.0942
   12MOL   H84812750   2.312   2.296   7.439  0.2714  0.2590  0.2873
   12MOL   H84912751   2.188   2.213   7.257  1.1205  1.5277  1.3351
   12MOL   H85012752   1.925   1.873   7.175 -0.7447 -0.5996  0.9688
   12MOL   H85112753   1.961   2.003   7.281  3.9404  2.9684 -2.7465
   12MOL   H85212754   2.024   1.836   7.322 -0.5016  1.2022  0.8968
   12MOL   H85312755   2.063   2.010   6.985 -1.6444  1.7812 -0.5001
   12MOL   H85412756   2.049   2.143   7.099  2.5858  1.0557  0.8024
   12MOL   H85512757   2.206   2.096   7.040  0.7709 -2.8875  0.6273
   12MOL   H85612758   2.398   1.935   7.120  0.0880 -0.7061  0.4101
   12MOL   H85712759   2.535   1.758   7.022 -0.0827  1.6919  0.5573
   12MOL   H85812760   2.181   1.512   6.990  0.3972 -1.0408  0.4578
   12MOL   H85912761   2.051   1.691   7.103 -0.0769 -2.6578  0.9627
   12MOL   H86012762   2.279   1.805   7.364 -3.3759  0.3272 -0.9101
   12MOL   H86112763   2.406   1.898   7.563  0.6683 -1.6591 -1.6835
   12MOL   H86212764   2.289   1.957   7.791 -0.2739 -0.8089  0.9162
   12MOL   H86312765   2.109   2.018   7.937  2.6422 -0.8588  2.5913
   12MOL   H86412766   1.983   2.426   7.785  1.7065 -0.3983  1.4693
   12MOL   H86512767   1.842   2.626   7.727  0.3061 -0.0398 -0.1006
   12MOL   C86612768   2.523   1.560   6.803  0.3067 -0.1835 -0.2019
   12MOL   C86712769   2.605   1.458   6.744 -0.1843  1.2040 -0.0023
   12MOL   C86812770   2.677   1.486   6.628  0.1231 -0.0633 -0.1129
   12MOL   C86912771   2.673   1.618   6.574 -0.1910 -0.1225  0.2740
   12MOL   S87012772   2.764   1.646   6.417 -0.1575 -0.0688 -0.1010
   12MOL   O87112773   2.828   1.522   6.372  0.6196  0.1028 -0.0627
   12MOL   O87212774   2.851   1.761   6.436 -0.8946 -0.0171 -0.1504
   12MOL   C87312775   2.634   1.692   6.310  0.3964  0.6751  0.2634
   12MOL   C87412776   2.596   1.827   6.288  0.1680 -0.0234 -0.8531
   12MOL   C87512777   2.505   1.860   6.187 -0.4032 -0.3422  0.0224
   12MOL   C87612778   2.428   1.748   6.130  0.2444 -0.1386  0.2114
   12MOL   O87712779   2.333   1.780   6.036 -0.2990 -0.0022  0.2118
   12MOL   C87812780   2.373   1.860   5.932 -0.7013  0.0654 -0.6013
   12MOL   C87912781   2.297   1.975   5.902  0.4711  0.0419  0.5314
   12MOL   C88012782   2.330   2.052   5.790  0.4741 -0.3978  0.6415
   12MOL   C88112783   2.440   2.006   5.705 -1.1097  0.4384 -0.1478
   12MOL   C88212784   2.473   2.080   5.574 -0.3324 -0.0205  0.9854
   12MOL   C88312785   2.386   2.206   5.570 -0.0227 -0.2961  0.6332
   12MOL   C88412786   2.622   2.126   5.571  0.0786  0.4420  0.5519
   12MOL   C88512787   2.442   1.999   5.444 -0.2588 -0.1861 -0.3388
   12MOL   C88612788   2.462   2.063   5.316  0.4761 -0.4527 -0.0539
   12MOL   C88712789   2.426   1.996   5.194 -0.2393 -0.3708  0.1864
   12MOL   C88812790   2.365   1.871   5.198  0.5180 -0.0435  0.6763
   12MOL   O88912791   2.316   1.805   5.085 -0.1217  0.5158 -0.4625
   12MOL   C89012792   2.351   1.808   5.321  0.0588  0.1626  1.0138
   12MOL   C89112793   2.392   1.868   5.441 -0.2157  0.5711 -0.2611
   12MOL   C89212794   2.518   1.896   5.744  0.0183  0.4148 -0.0111
   12MOL   C89312795   2.479   1.818   5.856  0.6796 -0.3324  0.2862
   12MOL   C89412796   2.456   1.614   6.173  0.2455 -1.4177  0.5931
   12MOL   C89512797   2.558   1.584   6.262 -0.1096 -0.4698  0.7474
   12MOL   C89612798   2.592   1.717   6.628  0.3226 -1.2849  0.8576
   12MOL   C89712799   2.520   1.685   6.741  0.9445 -0.5154 -0.4117
   12MOL   H89812800   2.591   1.357   6.779 -0.4889  1.1743 -0.2072
   12MOL   H89912801   2.726   1.400   6.586 -0.4439 -0.2229 -0.4514
   12MOL   H90012802   2.653   1.905   6.338  0.4848 -0.6923 -0.1661
   12MOL   H90112803   2.478   1.958   6.150  1.1453  0.8273  1.8653
   12MOL   H90212804   2.204   1.984   5.955  0.3024  0.6654  0.1373
   12MOL   H90312805   2.256   2.126   5.761  0.1930 -1.4842 -1.4599
   12MOL   H90412806   2.409   2.261   5.661  1.8027 -4.0628  2.5423
   12MOL   H90512807   2.278   2.195   5.564 -0.1745 -0.0578  2.7044
   12MOL   H90612808   2.419   2.274   5.491  1.4944 -0.8671  0.7485
   12MOL   H90712809   2.641   2.198   5.491 -3.4968 -1.3758 -2.1092
   12MOL   H90812810   2.641   2.165   5.671  0.7423 -0.1828  0.6814
   12MOL   H90912811   2.680   2.035   5.555 -0.3279  0.0471  1.3368
   12MOL   H91012812   2.495   2.166   5.310  1.6628 -0.8030  0.2742
   12MOL   H91112813   2.436   2.045   5.098  0.1823 -2.1414 -0.6808
   12MOL   H91212814   2.306   1.710   5.337 -1.2471  0.3631 -1.1438
   12MOL   H91312815   2.376   1.812   5.531  0.1413 -0.3861 -0.7822
   12MOL   H91412816   2.609   1.875   5.690 -0.3601  0.4508 -0.6703
   12MOL   H91512817   2.536   1.730   5.882 -0.5863 -1.6503 -1.2768
   12MOL   H91612818   2.387   1.538   6.140 -0.8593  0.8953 -2.6972
   12MOL   H91712819   2.580   1.482   6.289  2.0650 -0.5852 -1.2362
   12MOL   H91812820   2.584   1.814   6.582 -0.0168 -2.7100 -2.1925
   12MOL   H91912821   2.460   1.760   6.789  1.4680  0.0936 -0.7055
   12MOL   C92012822   2.381   1.823   4.966 -0.0778 -0.0112 -0.5352
   12MOL   C92112823   2.510   1.771   4.936  0.5521  0.4423  0.0750
   12MOL   C92212824   2.573   1.810   4.819  0.3561 -0.1484  0.7932
   12MOL   C92312825   2.505   1.884   4.722  0.0763 -0.4855 -0.7899
   12MOL   S92412826   2.589   1.934   4.572  0.1004  0.1105  0.0575
   12MOL   O92512827   2.487   2.017   4.501 -0.2275 -0.5402  0.0716
   12MOL   O92612828   2.638   1.809   4.511  0.2732 -0.5102 -0.1954
   12MOL   C92712829   2.724   2.032   4.621  1.0183  0.0537  0.2796
   12MOL   C92812830   2.825   2.046   4.520  0.4739  0.1960 -0.4361
   12MOL   C92912831   2.939   2.127   4.539 -0.6647 -0.5460 -0.0780
   12MOL   C93012832   2.957   2.193   4.665 -0.0959  0.0166  0.3872
   12MOL   O93112833   3.065   2.274   4.678 -0.3214  0.2882 -0.0673
   12MOL   C93212834   3.041   2.406   4.638  0.0641  0.5282 -0.0389
   12MOL   C93312835   3.073   2.440   4.503  0.4002 -0.2902  0.3927
   12MOL   C93412836   3.051   2.567   4.452  0.5487  0.9827 -1.0990
   12MOL   C93512837   2.996   2.662   4.539 -0.1566  0.3425 -0.1505
   12MOL   C93612838   2.980   2.807   4.485  0.2201  0.7199 -0.1692
   12MOL   C93712839   2.871   2.885   4.555 -0.2461  0.3102  0.3023
   12MOL   C93812840   3.111   2.872   4.512  0.3300  0.3437  0.3415
   12MOL   C93912841   2.939   2.806   4.333  0.1873  0.4869  0.0668
   12MOL   C94012842   2.830   2.726   4.302 -0.5121  0.3649  0.3968
   12MOL   C94112843   2.776   2.730   4.169  0.1180  0.2731 -0.4532
   12MOL   C94212844   2.839   2.804   4.070 -0.7926 -0.3355 -0.9088
   12MOL   O94312845   2.789   2.802   3.946  0.0082 -0.3868  0.4007
   12MOL   C94412846   2.951   2.886   4.103  0.4991 -0.3298 -0.5517
   12MOL   C94512847   2.996   2.892   4.234 -0.3733 -0.0603  0.3333
   12MOL   C94612848   2.952   2.626   4.667  0.6743  0.3605 -0.0990
   12MOL   C94712849   2.985   2.496   4.725  0.3467  0.1233 -0.6166
   12MOL   C94812850   2.850   2.194   4.758  0.2846  0.0138  0.2608
   12MOL   C94912851   2.728   2.118   4.736 -0.0467  0.1692 -0.1375
   12MOL   C95012852   2.368   1.924   4.746 -0.2742 -0.6593 -0.2588
   12MOL   C95112853   2.309   1.897   4.867 -0.1201 -0.0507  0.2330
   12MOL   H95212854   2.564   1.703   5.000 -1.2798  0.6210  1.8839
   12MOL   H95312855   2.670   1.772   4.791 -1.0213 -2.1912 -1.3997
   12MOL   H95412856   2.815   1.981   4.435  1.8016 -0.7337  0.1070
   12MOL   H95512857   3.021   2.131   4.469  1.7894  1.4712  2.7530
   12MOL   H95612858   3.119   2.369   4.436 -0.3925  1.3452 -1.9329
   12MOL   H95712859   3.096   2.580   4.354  2.1368 -2.3450 -0.8729
   12MOL   H95812860   2.866   2.983   4.507  1.2134  1.5964  2.6920
   12MOL   H95912861   2.908   2.898   4.657  1.9125 -0.1936 -0.3745
   12MOL   H96012862   2.775   2.834   4.565 -1.4533  2.0054 -2.1430
   12MOL   H96112863   3.192   2.820   4.461 -1.5350 -1.1939 -1.0997
   12MOL   H96212864   3.126   2.970   4.466 -1.6677  0.6779  0.3497
   12MOL   H96312865   3.135   2.888   4.618 -1.0517  0.4961  0.6340
   12MOL   H96412866   2.784   2.655   4.369  0.2721 -0.7895 -0.2667
   12MOL   H96512867   2.698   2.663   4.135 -0.2265  0.6616 -0.4397
   12MOL   H96612868   2.988   2.949   4.023 -0.4727 -0.3454 -1.0161
   12MOL   H96712869   3.079   2.958   4.253 -1.8402  1.4314  1.7693
   12MOL   H96812870   2.902   2.694   4.734  2.1605 -0.0880  1.4994
   12MOL   H96912871   2.966   2.471   4.828  0.6444  2.4626  0.0377
   12MOL   H97012872   2.856   2.254   4.847  1.0297  0.2504  0.0544
   12MOL   H97112873   2.642   2.127   4.801  0.5506  0.3398  0.6305
   12MOL   H97212874   2.319   1.994   4.680 -0.5003 -1.3259 -0.7910
   12MOL   H97312875   2.207   1.931   4.874  0.6698  2.4894  0.2410
   12MOL   C97412876   2.659   2.841   3.918 -0.5700 -0.2907 -0.6290
   12MOL   C97512877   2.565   2.741   3.866 -0.8605  0.3263 -0.4543
   12MOL   C97612878   2.436   2.778   3.842 -0.2085  0.0993  0.3462
   12MOL   C97712879   2.395   2.911   3.874  0.0546 -0.2059 -0.7173
   12MOL   S97812880   2.218   2.950   3.852  0.0804  0.2716  0.3010
   12MOL   O97912881   2.142   2.895   3.965 -0.2164 -0.0105 -0.3940
   12MOL   O98012882   2.179   2.906   3.721 -0.1073  0.2775 -0.0193
   12MOL   C98112883   2.204   3.118   3.857  0.4549  0.0058 -0.2757
   12MOL   C98212884   2.214   3.195   3.742  0.5601  0.1379 -0.0245
   12MOL   C98312885   2.227   3.333   3.753  0.5290  0.0158  0.3656
   12MOL   C98412886   2.206   3.392   3.878  0.3778  0.5627  0.2185
   12MOL   O98512887   2.221   3.527   3.894 -0.2228 -0.0999  0.0535
   12MOL   C98612888   2.109   3.602   3.860  0.4472  0.0248  1.1651
   12MOL   C98712889   2.080   3.635   3.725  0.0837 -0.7986  0.1801
   12MOL   C98812890   1.956   3.698   3.695  0.0241  0.0243  0.2825
   12MOL   C98912891   1.871   3.750   3.799  0.4976 -0.3572 -0.0453
   12MOL   C99012892   1.746   3.829   3.754 -0.5936 -0.2049  0.3548
   12MOL   C99112893   1.658   3.728   3.670 -0.0291 -0.5687 -0.2986
   12MOL   C99212894   1.665   3.879   3.873 -0.7012  0.2073  0.5411
   12MOL   C99312895   1.801   3.949   3.678  0.1029 -0.3880  0.5340
   12MOL   C99412896   1.738   4.006   3.568  1.0430 -0.1042 -0.0366
   12MOL   C99512897   1.786   4.122   3.502  0.2507 -0.0343 -0.0065
   12MOL   C99612898   1.900   4.187   3.554  0.2280  0.1522  0.3673
   12MOL   O99712899   1.942   4.301   3.499 -0.3963 -0.1807  0.2577
   12MOL   C99812900   1.957   4.143   3.675  1.0862 -0.6719  0.3297
   12MOL   C99912901   1.909   4.026   3.732 -0.0972  0.0032  0.3022
   12MOL     C112902   1.905   3.725   3.932 -0.2063  0.2931  0.0603
   12MOL     C212903   2.025   3.655   3.964 -0.5225  0.2258 -0.5040
   12MOL     C312904   2.170   3.316   3.986  0.0541 -0.0334  0.0124
   12MOL     C412905   2.167   3.176   3.977  0.3601  0.0524 -0.4783
   12MOL     C512906   2.479   3.004   3.928 -0.2367  0.2815 -0.2217
   12MOL     C612907   2.613   2.977   3.948 -0.1666  0.0442 -0.5346
   12MOL     H712908   2.592   2.638   3.852 -0.9323 -0.0566  1.9629
   12MOL     H812909   2.364   2.708   3.803  0.3682  0.5040 -1.5000
   12MOL     H912910   2.238   3.141   3.652 -2.6486  1.0874 -1.5335
   12MOL    H1012911   2.254   3.391   3.666  1.0299 -1.2689 -0.3534
   12MOL    H1112912   2.142   3.613   3.639  1.0332  0.0586  0.6399
   12MOL    H1212913   1.930   3.730   3.595  0.1477  0.2164  0.3108
   12MOL    H1312914   1.708   3.697   3.579  2.9750 -0.4529  1.2460
   12MOL    H1412915   1.566   3.784   3.652  1.0247  1.1160 -0.5634
   12MOL    H1512916   1.640   3.635   3.724 -0.8513  0.4493  1.2501
   12MOL    H1612917   1.587   3.953   3.854 -0.9920 -0.4758 -1.0245
   12MOL    H1712918   1.625   3.797   3.934  1.1583 -0.4302  0.9292
   12MOL    H1812919   1.725   3.936   3.944 -0.9823 -0.8900  1.6972
   12MOL    H1912920   1.649   3.965   3.523  1.3012 -0.8047  0.0997
   12MOL    H2012921   1.735   4.158   3.413  0.5337 -0.6528 -0.4213
   12MOL    H2112922   2.033   4.206   3.717  1.3145 -0.6109 -0.1844
   12MOL    H2212923   1.967   4.008   3.822 -0.3130  2.3536  0.9380
   12MOL    H2312924   1.846   3.762   4.015  1.8811  0.7684  1.3760
   12MOL    H2412925   2.028   3.633   4.070  2.1032  0.0697 -0.5973
   12MOL    H2512926   2.163   3.366   4.082 -3.3464  2.4101 -1.4088
   12MOL    H2612927   2.133   3.115   4.060  1.8963 -0.5275 -0.2710
   12MOL    H2712928   2.445   3.105   3.947  0.6535  0.8079 -1.2774
   12MOL    H2812929   2.676   3.059   3.979 -1.1807  0.6056  0.0747
   12MOL    C2912930   2.006   4.299   3.376 -0.4234  0.6605  0.0991
   12MOL    C3012931   1.935   4.322   3.252  0.8257  0.3737  0.0708
   12MOL    C3112932   2.005   4.335   3.135 -0.0815 -0.1229 -0.0751
   12MOL    C3212933   2.146   4.329   3.135 -0.2249 -0.4645 -0.1585
   12MOL    S3312934   2.233   4.344   2.976 -0.1040  0.1951  0.2891
   12MOL    O3412935   2.358   4.269   2.982  0.0545 -0.2043 -0.4445
   12MOL    O3512936   2.232   4.482   2.943  0.2037  0.0340  0.0627
   12MOL    C3612937   2.124   4.259   2.862 -0.7942 -0.4011  0.1010
   12MOL    C3712938   2.069   4.319   2.746 -0.2091 -0.3530 -0.1583
   12MOL    C3812939   1.981   4.250   2.661 -0.6579  0.2249 -0.0008
   12MOL    C3912940   1.940   4.119   2.693 -0.2041  0.6796 -0.1455
   12MOL    O4012941   1.835   4.058   2.623 -0.2452 -0.6202 -0.4404
   12MOL    C4112942   1.817   3.922   2.637 -0.2588 -0.2940  0.7835
   12MOL    C4212943   1.711   3.867   2.712 -0.0661 -0.5030  0.0525
   12MOL    C4312944   1.684   3.730   2.700  1.2369  0.4565 -0.2582
   12MOL    C4412945   1.758   3.643   2.616  0.5092  0.1467 -0.3733
   12MOL    C4512946   1.721   3.499   2.604 -0.0131 -0.0272  0.0791
   12MOL    C4612947   1.583   3.491   2.569  0.5782 -0.0011 -0.2905
   12MOL    C4712948   1.795   3.425   2.490  0.1717  0.1483  0.4250
   12MOL    C4812949   1.758   3.425   2.735 -0.1877  0.3068 -0.0546
   12MOL    C4912950   1.871   3.463   2.816  0.1799 -1.0420  0.4074
   12MOL    C5012951   1.904   3.390   2.929 -0.0710 -0.7008 -0.5625
   12MOL    C5112952   1.845   3.262   2.951  0.2700 -0.1473  0.0591
   12MOL    O5212953   1.876   3.192   3.068 -0.4426 -0.3740  0.3476
   12MOL    C5312954   1.747   3.212   2.869 -0.3462 -0.1920 -0.0498
   12MOL    C5412955   1.695   3.294   2.765  0.0400 -1.3752 -0.2397
   12MOL    C5512956   1.882   3.697   2.568 -0.3073 -0.2512  0.1339
   12MOL    C5612957   1.902   3.834   2.567  0.7601 -0.0675  1.0284
   12MOL    C5712958   2.001   4.060   2.807  0.1687  1.2482  1.2598
   12MOL    C5812959   2.094   4.127   2.889  0.2670 -0.2025 -1.0072
   12MOL    C5912960   2.222   4.298   3.251 -0.1203 -0.2000 -0.0793
   12MOL    C6012961   2.150   4.287   3.376  0.2728  0.2067  0.4536
   12MOL    H6112962   1.828   4.326   3.252  0.7154 -0.5111  3.7307
   12MOL    H6212963   1.959   4.360   3.040 -1.4313 -1.5423  0.1833
   12MOL    H6312964   2.089   4.422   2.720 -2.1559 -0.7825 -3.6405
   12MOL    H6412965   1.941   4.298   2.573  0.8604 -0.2908 -0.9974
   12MOL    H6512966   1.658   3.936   2.775  1.4296  1.7830 -1.1224
   12MOL    H6612967   1.590   3.705   2.745  0.7262  1.9995 -0.4214
   12MOL    H6712968   1.550   3.564   2.495  2.0193  0.1578 -0.7824
   12MOL    H6812969   1.525   3.520   2.657  0.5493  2.8139 -1.2017
   12MOL    H6912970   1.556   3.388   2.544  0.3355 -0.4389  1.6936
   12MOL    H7012971   1.777   3.317   2.493  1.4205 -0.0552  0.7532
   12MOL    H7112972   1.783   3.448   2.384  3.1099  1.1687  0.2957
   12MOL    H7212973   1.903   3.432   2.490  0.1502  0.5645  2.1732
   12MOL    H7312974   1.932   3.550   2.801  1.2344 -1.9068 -0.3702
   12MOL    H7412975   1.977   3.438   2.993 -0.9499  0.5587 -0.4886
   12MOL    H7512976   1.706   3.117   2.899 -1.2178  0.5634  1.1985
   12MOL    H7612977   1.614   3.267   2.698 -1.4590 -1.2129  1.4540
   12MOL    H7712978   1.966   3.647   2.523 -1.1624 -0.9274 -0.7206
   12MOL    H7812979   1.991   3.864   2.514 -0.2009  0.3798 -0.3574
   12MOL    H7912980   1.975   3.958   2.835  0.9220  0.3999 -1.0313
   12MOL    H8012981   2.144   4.084   2.974  1.6267  0.3035 -1.5411
   12MOL    H8112982   2.330   4.297   3.254 -0.0806  2.1714  1.1044
   12MOL    H8212983   2.195   4.267   3.472 -1.8322 -0.8794  1.2323
   12MOL    H8312984   1.946   3.243   3.106  0.7353 -1.4344 -0.3444
   13MOL     C112985   3.287   6.210   8.154  0.9382 -0.4551 -0.7613
   13MOL     C212986   3.236   6.143   8.039 -0.3837  0.1191 -0.8028
   13MOL     C312987   3.095   6.157   8.014  0.2397  0.0816 -0.5682
   13MOL     C412988   3.009   6.223   8.102  0.2777  0.0436 -0.2088
   13MOL     S512989   2.836   6.233   8.061  0.1639  0.1781 -0.3324
   13MOL     O612990   2.824   6.306   7.934  0.0558  0.0061  0.1208
   13MOL     O712991   2.769   6.288   8.178  0.0435  0.7584  0.3399
   13MOL     C812992   2.767   6.079   8.019 -0.1937  0.9349  0.2724
   13MOL     C912993   2.641   6.065   7.953 -0.2121  0.2058 -0.5536
   13MOL    C1012994   2.591   5.939   7.926 -0.2853 -0.3076  0.1781
   13MOL    C1112995   2.665   5.821   7.956  0.2675  0.3081 -0.2248
   13MOL    O1212996   2.607   5.701   7.937  0.4855  0.6039  0.3051
   13MOL    C1312997   2.609   5.645   7.814  0.1834 -0.0343  0.6403
   13MOL    C1412998   2.503   5.555   7.784  0.4060 -0.2437  0.3620
   13MOL    C1512999   2.481   5.498   7.657  0.1367  0.4766  0.2279
   13MOL    C1613000   2.583   5.515   7.562  0.2470  0.5184  0.3829
   13MOL    C1713001   2.582   5.452   7.419 -0.3169 -0.0791 -0.0231
   13MOL    C1813002   2.650   5.320   7.437 -0.5790 -0.3183 -0.1984
   13MOL    C1913003   2.442   5.421   7.368 -0.1004  0.4127 -0.3324
   13MOL    C2013004   2.647   5.553   7.318 -0.2780  0.1751  0.1273
   13MOL    C2113005   2.609   5.690   7.307 -0.8832 -0.3884 -0.0321
   13MOL    C2213006   2.667   5.774   7.207  0.1916  0.5615 -0.9195
   13MOL    C2313007   2.773   5.733   7.127 -0.4637  0.3473 -0.4422
   13MOL    O2413008   2.821   5.819   7.031 -0.3413 -0.1341  0.3226
   13MOL    C2513009   2.803   5.595   7.131  0.6300  0.4030 -1.1833
   13MOL    C2613010   2.753   5.506   7.228 -0.2932  0.2981  0.3575
   13MOL    C2713011   2.698   5.589   7.601 -0.4727 -0.3207 -0.2028
   13MOL    C2813012   2.709   5.670   7.715  0.7538  0.1469  0.0694
   13MOL    C2913013   2.786   5.833   8.029  0.3690  0.3026  0.2484
   13MOL    C3013014   2.830   5.958   8.059 -0.8470 -0.6756  0.6283
   13MOL    C3113015   3.059   6.272   8.229 -0.5539  0.1386  0.0610
   13MOL    C3213016   3.197   6.264   8.252  0.3925 -0.8157 -0.0740
   13MOL    H3313017   3.296   6.088   7.969  0.5515  0.1152 -0.0077
   13MOL    H3413018   3.053   6.105   7.929  0.3935 -0.8599 -0.0768
   13MOL    H3513019   2.589   6.149   7.910 -2.3863  0.1696  1.8682
   13MOL    H3613020   2.497   5.937   7.873 -0.6180  0.6049  0.7309
   13MOL    H3713021   2.424   5.535   7.855 -1.6311 -0.3543 -1.8842
   13MOL    H3813022   2.394   5.434   7.650  0.7645 -0.3660 -0.0141
   13MOL    H3913023   2.592   5.247   7.493 -1.1110  0.9788  0.9752
   13MOL    H4013024   2.749   5.335   7.480 -2.4910  1.3513  3.8398
   13MOL    H4113025   2.653   5.272   7.339  1.0653  1.6796 -1.1826
   13MOL    H4213026   2.387   5.514   7.353 -0.3226  0.3814  0.2484
   13MOL    H4313027   2.439   5.375   7.269  0.4642  0.0360 -0.1814
   13MOL    H4413028   2.380   5.357   7.432 -0.0200 -0.7563 -1.4117
   13MOL    H4513029   2.533   5.735   7.370  2.0845  2.1261  1.8602
   13MOL    H4613030   2.633   5.877   7.209 -1.9004 -0.1153 -0.0175
   13MOL    H4713031   2.881   5.571   7.060  2.1292 -0.1397  0.6356
   13MOL    H4813032   2.797   5.407   7.233 -3.6195 -1.1633  2.2962
   13MOL    H4913033   2.782   5.591   7.533  0.7472  0.7408  1.3151
   13MOL    H5013034   2.795   5.732   7.736  1.1433  0.2256 -1.6869
   13MOL    H5113035   2.845   5.747   8.058  2.2054  0.7316 -2.0453
   13MOL    H5213036   2.920   5.964   8.119  0.3646 -0.5270 -1.1912
   13MOL    H5313037   2.999   6.310   0.057  1.6505  0.6880  1.4825
   13MOL    H5413038   3.239   6.305   0.089  1.0701 -3.1245  0.6988
   13MOL    H5513039   3.395   6.203   8.164  0.8644  0.1629  0.5178
   13MOL    C5613040   2.958   5.851   7.032 -0.0324 -0.2740 -0.0518
   13MOL    C5713041   3.033   5.843   7.152  0.2692  0.1300 -0.0693
   13MOL    C5813042   3.165   5.890   7.148  0.4644  0.7613  0.6128
   13MOL    C5913043   3.223   5.927   7.018  0.4434  0.2832 -0.3939
   13MOL    S6013044   3.403   5.934   7.012 -0.2966  0.0141  0.1144
   13MOL    O6113045   3.436   6.055   7.088 -0.0737  0.1855  0.4067
   13MOL    O6213046   3.450   5.905   6.875 -0.1291  0.3191  0.1145
   13MOL    C6313047   3.455   5.798   7.118  0.3104  0.8146  0.3425
   13MOL    C6413048   3.428   5.669   7.070 -0.1824 -0.8191 -0.1395
   13MOL    C6513049   3.468   5.561   7.153  0.0365 -0.0800  0.2124
   13MOL    C6613050   3.539   5.578   7.268 -1.3092 -0.1144 -0.5491
   13MOL    O6713051   3.580   5.467   7.332  0.0885 -0.2288  0.4838
   13MOL    C6813052   3.715   5.465   7.362  0.7307 -0.6008  0.4043
   13MOL    C6913053   3.769   5.507   7.491 -0.0759 -0.3933 -0.0874
   13MOL    C7013054   3.904   5.522   7.515  0.1376 -0.6313 -0.4087
   13MOL    C7113055   3.993   5.472   7.423 -0.7422  0.3007 -0.1411
   13MOL    C7213056   4.142   5.476   7.438  0.7988 -0.3107 -0.0576
   13MOL    C7313057   4.186   5.523   7.580  0.6283 -0.3316  0.0944
   13MOL    C7413058   4.194   5.333   7.436  0.8656  0.5535  0.0244
   13MOL    C7513059   4.215   5.572   7.339 -0.0598 -0.4766  0.0114
   13MOL    C7613060   4.334   5.534   7.271  0.1730 -0.1485  0.4981
   13MOL    C7713061   4.392   5.614   7.177 -0.1814 -0.4901 -0.2467
   13MOL    C7813062   4.345   5.746   7.163 -0.3968 -0.2260 -0.5986
   13MOL    O7913063   4.399   5.825   7.070  0.3863  0.8812  0.1494
   13MOL    C8013064   4.226   5.788   7.228  0.2040  0.2404  0.4346
   13MOL    C8113065   4.161   5.699   7.317  0.3040  0.2902  0.1046
   13MOL    C8213066   3.949   5.435   7.293  1.0696  0.0855  0.2924
   13MOL    C8313067   3.809   5.430   7.265 -0.0763  0.3805 -0.1769
   13MOL    C8413068   3.564   5.715   7.313  0.1293 -0.2204 -0.0142
   13MOL    C8513069   3.522   5.829   7.237 -0.6679  0.0246  0.4236
   13MOL    C8613070   3.143   5.943   6.898 -0.4001  0.2734 -0.1800
   13MOL    C8713071   3.008   5.893   6.907 -0.1013  0.2600  0.2539
   13MOL    H8813072   2.983   5.813   7.242  0.9214  0.6328  0.4705
   13MOL    H8913073   3.233   5.877   7.230  1.0620 -2.2558 -0.2852
   13MOL    H9013074   3.375   5.646   6.980 -1.3859  1.0728  0.0532
   13MOL    H9113075   3.445   5.462   7.116 -2.3812  0.6964 -0.4237
   13MOL    H9213076   3.698   5.543   7.564  2.6240  1.1563  1.8572
   13MOL    H9313077   3.935   5.574   7.605 -0.6870 -1.4459  0.3599
   13MOL    H9413078   4.294   5.531   7.574  0.6235  0.3643  0.8722
   13MOL    H9513079   4.163   5.460   7.666  0.5645  0.2193  0.4848
   13MOL    H9613080   4.150   5.624   7.596  1.1767  0.1738 -1.7452
   13MOL    H9713081   4.297   5.329   7.473 -0.9302 -2.2541  5.1241
   13MOL    H9813082   4.136   5.265   7.498  1.7879 -0.1293  0.1498
   13MOL    H9913083   4.182   5.299   7.333  0.4531  0.6601  0.0398
   13MOL   H10013084   4.386   5.440   7.277  1.5307  0.6385  1.1446
   13MOL   H10113085   4.462   5.572   7.107  0.2564 -0.9836  0.4754
   13MOL   H10213086   4.176   5.881   7.206 -1.1749 -0.2381  1.4414
   13MOL   H10313087   4.062   5.718   7.356 -0.5211 -2.7148 -0.4232
   13MOL   H10413088   4.019   5.410   7.215  1.9148  2.7841  0.1586
   13MOL   H10513089   3.770   5.411   7.166  0.0774 -5.6075  0.7440
   13MOL   H10613090   3.629   5.727   7.399  0.5446  0.6557 -0.4405
   13MOL   H10713091   3.543   5.930   7.266  3.1670 -0.0625 -1.7079
   13MOL   H10813092   3.187   5.970   6.803 -4.3014  1.1336 -1.8282
   13MOL   H10913093   2.943   5.908   6.821  2.0006  0.2187 -1.3869
   13MOL   C11013094   4.440   5.955   7.104 -0.0288  0.3362  0.5116
   13MOL   C11113095   4.464   6.045   6.996  1.1095  0.0023  0.0503
   13MOL   C11213096   4.525   6.174   7.023  0.1653 -0.7422 -0.1023
   13MOL   C11313097   4.567   6.201   7.149 -0.1480 -0.1411 -0.1760
   13MOL   S11413098   4.659   6.346   7.194 -0.4893  0.0129  0.1936
   13MOL   O11513099   4.712   6.406   7.075  0.4941  0.1803  0.1348
   13MOL   O11613100   4.755   6.305   7.304  0.1948  0.0984  0.0896
   13MOL   C11713101   4.537   6.461   7.273 -0.2901 -0.1067 -0.0424
   13MOL   C11813102   4.571   6.524   7.397  0.3178 -0.2834 -0.0147
   13MOL   C11913103   4.474   6.599   7.459  0.8550  0.1838 -0.1506
   13MOL   C12013104   4.345   6.605   7.408 -0.4195  0.5429  0.1616
   13MOL   O12113105   4.256   6.684   7.481  0.3513  0.2932 -0.0733
   13MOL   C12213106   4.125   6.646   7.476 -0.3305 -0.5795  0.5514
   13MOL   C12313107   4.031   6.724   7.410 -0.0386  0.2359  0.2090
   13MOL   C12413108   3.899   6.672   7.395  0.5768 -0.3940 -0.1411
   13MOL   C12513109   3.864   6.545   7.444  0.0766 -0.2077  0.2912
   13MOL   C12613110   3.721   6.491   7.435 -0.2764  0.2609 -0.2009
   13MOL   C12713111   3.716   6.424   7.303 -0.5380  0.1171  0.7114
   13MOL   C12813112   3.680   6.387   7.535  0.3999  0.2027 -0.0641
   13MOL   C12913113   3.625   6.613   7.441 -0.2489 -0.0692 -0.1750
   13MOL   C13013114   3.608   6.685   7.562  0.7288 -0.7544  0.0467
   13MOL   C13113115   3.514   6.789   7.568 -0.1727 -0.2119 -0.1950
   13MOL   C13213116   3.447   6.837   7.450 -0.1417  0.0827 -0.1992
   13MOL   O13313117   3.357   6.937   7.457  0.5255  0.3018  0.0096
   13MOL   C13413118   3.466   6.766   7.332  0.1539  0.1436  0.0685
   13MOL   C13513119   3.555   6.656   7.328 -0.1825  0.1721  0.3340
   13MOL   C13613120   3.958   6.481   7.525 -0.1604 -0.4314  0.0153
   13MOL   C13713121   4.084   6.525   7.536 -1.2824 -0.3916 -0.0387
   13MOL   C13813122   4.310   6.547   7.286  0.2780 -0.5469 -0.3645
   13MOL   C13913123   4.412   6.478   7.216  0.2268  0.1811  0.3627
   13MOL   C14013124   4.543   6.116   7.257 -0.6400  0.6065  0.0973
   13MOL   C14113125   4.465   5.993   7.237  0.1712  0.1227  0.5380
   13MOL   H14213126   4.437   6.022   6.894  0.0614  1.1284  0.0701
   13MOL   H14313127   4.560   6.236   6.942  1.2152  1.3058  1.8316
   13MOL   H14413128   4.667   6.514   7.446 -0.0294  1.9564  1.1734
   13MOL   H14513129   4.506   6.661   7.541  1.0513 -0.9520  0.6421
   13MOL   H14613130   4.063   6.816   7.364  0.0777  0.8139  1.4195
   13MOL   H14713131   3.830   6.724   7.330 -0.0638 -0.2541  0.6495
   13MOL   H14813132   3.616   6.385   7.283 -0.6624  0.4022  0.7834
   13MOL   H14913133   3.772   6.330   7.306 -0.0704  0.4359  1.9598
   13MOL   H15013134   3.750   6.490   7.224 -0.2427  0.0591  0.7911
   13MOL   H15113135   3.580   6.345   7.527  0.4401  0.6704 -3.9457
   13MOL   H15213136   3.753   6.306   7.540  0.5052  0.2496 -0.7921
   13MOL   H15313137   3.679   6.418   7.640 -0.0906 -0.2055  0.0502
   13MOL   H15413138   3.659   6.654   7.651  1.1588  0.7263  0.3246
   13MOL   H15513139   3.507   6.838   7.664 -2.0713  0.0396 -0.4376
   13MOL   H15613140   3.418   6.803   7.243 -1.1210 -0.3013  0.5589
   13MOL   H15713141   3.556   6.601   7.234 -0.0802  0.1943  0.3211
   13MOL   H15813142   3.919   6.394   7.576 -0.5610 -0.5012 -0.4062
   13MOL   H15913143   4.160   6.468   7.587 -0.9453  1.1370  1.2224
   13MOL   H16013144   4.214   6.570   7.243 -0.2257 -0.7844  0.5922
   13MOL   H16113145   4.393   6.432   7.119  0.9653  1.4153 -0.3751
   13MOL   H16213146   4.580   6.136   7.356  0.4562  1.7857 -0.5392
   13MOL   H16313147   4.466   5.928   7.324  0.3267 -2.0288 -1.0405
   13MOL   C16413148   3.386   7.058   7.396  0.2290  0.1183 -0.1695
   13MOL   C16513149   3.486   7.140   7.451 -0.1102 -0.4471 -0.7005
   13MOL   C16613150   3.523   7.262   7.386 -0.3978 -0.1220 -0.3967
   13MOL   C16713151   3.452   7.306   7.273 -0.7695 -0.0636 -0.7834
   13MOL   S16813152   3.493   7.471   7.203 -0.1578 -0.0405 -0.0136
   13MOL   O16913153   3.499   7.569   7.311  0.3170 -0.6261 -0.2756
   13MOL   O17013154   3.408   7.486   7.082  0.2847 -0.0441  0.2524
   13MOL   C17113155   3.664   7.449   7.156 -0.3745 -0.3273 -0.0861
   13MOL   C17213156   3.698   7.386   7.035  0.2346  0.3789  0.6666
   13MOL   C17313157   3.838   7.380   6.999  0.8136  0.5760 -0.9470
   13MOL   C17413158   3.936   7.435   7.083 -0.1397 -0.4982 -0.6579
   13MOL   O17513159   4.068   7.428   7.057 -0.2037 -0.0124 -0.1466
   13MOL   C17613160   4.099   7.430   6.926  0.2270 -0.6948 -0.6827
   13MOL   C17713161   4.059   7.538   6.843  0.2018 -0.4334 -0.2149
   13MOL   C17813162   4.055   7.524   6.706 -0.0456 -0.6799 -0.3949
   13MOL   C17913163   4.085   7.407   6.636 -0.3327 -0.0387 -1.0368
   13MOL   C18013164   4.071   7.387   6.482  0.1447 -0.4852 -0.3354
   13MOL   C18113165   4.029   7.525   6.423  0.4426 -0.1715  0.8610
   13MOL   C18213166   4.213   7.347   6.427  0.2295 -0.3235  0.3257
   13MOL   C18313167   3.957   7.288   6.440 -0.6215 -0.2621  0.1817
   13MOL   C18413168   3.989   7.151   6.415 -0.4045  0.1411  0.6558
   13MOL   C18513169   3.894   7.052   6.373  0.1017  0.0270  0.7870
   13MOL   C18613170   3.760   7.095   6.371 -0.1365 -0.5980  0.4437
   13MOL   O18713171   3.668   7.006   6.326 -0.9828 -0.5022  0.6271
   13MOL   C18813172   3.723   7.223   6.405  0.5355  0.1936  0.7498
   13MOL   C18913173   3.821   7.325   6.433 -0.0963  0.0116  0.3510
   13MOL   C19013174   4.142   7.302   6.713 -0.6520 -0.0035 -0.4189
   13MOL   C19113175   4.146   7.318   6.857  0.1071 -0.4714 -0.9202
   13MOL   C19213176   3.898   7.499   7.205 -0.4449  0.1397  0.4032
   13MOL   C19313177   3.759   7.508   7.242 -0.6646 -0.3596 -0.3668
   13MOL   C19413178   3.351   7.226   7.221  0.1325 -0.3302 -0.1661
   13MOL   C19513179   3.319   7.101   7.280  0.0907  1.2762 -0.8098
   13MOL   H19613180   3.524   7.108   7.547 -1.0059 -1.6951 -0.7387
   13MOL   H19713181   3.602   7.324   7.428 -1.1969  0.4433  0.2858
   13MOL   H19813182   3.620   7.327   6.988 -0.4447  1.3833  0.5218
   13MOL   H19913183   3.852   7.315   6.914 -2.1275 -1.6885  0.2112
   13MOL   H20013184   4.027   7.626   6.897 -0.3519  0.2391 -1.6140
   13MOL   H20113185   4.015   7.612   6.658 -1.8547 -2.1838 -1.7642
   13MOL   H20213186   3.940   7.566   6.471  1.9914  2.2019  1.7828
   13MOL   H20313187   4.012   7.529   6.315  0.1262  0.7366  0.9404
   13MOL   H20413188   4.108   7.599   6.427 -1.2768  1.6518  1.6361
   13MOL   H20513189   4.244   7.250   6.463 -0.6366 -0.1944  1.4328
   13MOL   H20613190   4.208   7.347   6.318 -0.3171  0.5598  0.3399
   13MOL   H20713191   4.283   7.423   6.460 -1.9730  0.3194  3.7391
   13MOL   H20813192   4.089   7.110   6.412 -0.4310  0.1502 -1.1717
   13MOL   H20913193   3.926   6.953   6.345  3.7192  1.6108 -1.0916
   13MOL   H21013194   3.619   7.254   6.401  0.8403  1.0577 -0.9438
   13MOL   H21113195   3.789   7.425   6.455 -1.3693 -0.7841  2.2461
   13MOL   H21213196   4.172   7.212   6.661 -1.5744  1.6018 -3.8891
   13MOL   H21313197   4.179   7.233   6.915  1.2870 -0.6796 -1.8583
   13MOL   H21413198   3.969   7.532   7.279  1.1392  1.1642 -1.5308
   13MOL   H21513199   3.732   7.562   7.332  0.7652  0.6952 -0.5458
   13MOL   H21613200   3.300   7.264   7.133 -0.9874  0.0057  0.6184
   13MOL   H21713201   3.240   7.034   7.248  1.3773 -1.5963  1.7846
   13MOL   C21813202   3.583   6.941   6.413 -0.1552  0.9881  0.1816
   13MOL   C21913203   3.448   6.958   6.387  0.9329  0.3546  0.0571
   13MOL   C22013204   3.359   6.892   6.478 -0.4457  0.3577 -0.2158
   13MOL   C22113205   3.407   6.820   6.583  0.1539  0.4014 -0.6480
   13MOL   S22213206   3.308   6.738   6.711 -0.1748 -0.5466  0.0582
   13MOL   O22313207   3.358   6.787   6.842  0.3131 -0.7264 -0.9353
   13MOL   O22413208   3.305   6.598   6.689 -0.2664  0.4031  0.5386
   13MOL   C22513209   3.136   6.777   6.694  0.1271 -1.0367  0.3999
   13MOL   C22613210   3.047   6.701   6.613 -0.1079  0.0346 -0.3022
   13MOL   C22713211   2.909   6.720   6.616 -0.7329 -0.3302  0.0045
   13MOL   C22813212   2.860   6.826   6.697 -0.0941  0.4056  0.3543
   13MOL   O22913213   2.724   6.831   6.690  0.6291 -0.4498 -0.0656
   13MOL   C23013214   2.661   6.952   6.670  0.7476  0.2880  0.2298
   13MOL   C23113215   2.624   6.992   6.541  0.8174  0.4827  0.2995
   13MOL   C23213216   2.562   7.114   6.505  0.2697 -0.0281  0.0386
   13MOL   C23313217   2.535   7.200   6.613 -0.2559  0.3329 -0.0032
   13MOL   C23413218   2.457   7.337   6.595 -0.0157 -0.1729  0.0670
   13MOL   C23513219   2.474   7.394   6.455  0.4337 -0.5520  0.1252
   13MOL   C23613220   2.304   7.308   6.618 -0.2279  0.2551 -0.2559
   13MOL   C23713221   2.510   7.441   6.700  0.7799  0.1556 -0.4961
   13MOL   C23813222   2.423   7.534   6.767 -0.0543 -0.1191  0.3479
   13MOL   C23913223   2.479   7.628   6.859  0.0510 -0.3742  0.7214
   13MOL   C24013224   2.617   7.627   6.895  0.3665 -0.1190  0.5161
   13MOL   O24113225   2.668   7.707   6.992 -0.4983 -0.5598 -0.4726
   13MOL   C24213226   2.698   7.537   6.829 -0.2166 -0.1565  0.4506
   13MOL   C24313227   2.650   7.453   6.732 -0.5671  0.1145  0.9309
   13MOL   C24413228   2.568   7.154   6.748 -0.1914 -0.2655 -0.4982
   13MOL   C24513229   2.635   7.033   6.774  0.4075  0.5903  0.7541
   13MOL   C24613230   2.943   6.902   6.778 -0.0551  0.7036 -0.4517
   13MOL   C24713231   3.086   6.892   6.761  0.8248  0.1403 -0.0975
   13MOL   C24813232   3.549   6.801   6.602  0.0628  1.0823  0.0056
   13MOL   C24913233   3.639   6.858   6.511  0.5339  0.2574  0.7175
   13MOL   H25013234   3.409   7.015   6.304  0.8823  0.8798  0.4360
   13MOL   H25113235   3.255   6.915   6.462  0.4300  4.0327 -1.1390
   13MOL   H25213236   3.091   6.613   6.569  1.1987  0.8973 -0.7245
   13MOL   H25313237   2.854   6.649   6.556 -0.4876 -1.6086  1.2707
   13MOL   H25413238   2.645   6.921   6.462 -0.0153 -1.4439  1.7612
   13MOL   H25513239   2.529   7.137   6.405  0.2159 -2.9713 -0.6707
   13MOL   H25613240   2.429   7.493   6.455 -0.7203 -1.0693  0.5889
   13MOL   H25713241   2.433   7.335   6.373  0.0792  0.7483 -0.6581
   13MOL   H25813242   2.582   7.405   6.443  0.3007  0.3223 -0.2860
   13MOL   H25913243   2.236   7.387   6.586  0.3353  0.5841 -0.6419
   13MOL   H26013244   2.283   7.232   6.543 -1.8959 -0.3912  0.8429
   13MOL   H26113245   2.274   7.274   6.717  1.4094 -1.1713 -0.2260
   13MOL   H26213246   2.321   7.544   6.732  0.3769 -2.2304 -1.5989
   13MOL   H26313247   2.406   7.699   6.896  1.5398  1.6990 -0.2083
   13MOL   H26413248   2.804   7.533   6.850  0.3372  2.7217 -1.6000
   13MOL   H26513249   2.718   7.379   6.691 -1.0741 -0.3441  0.9061
   13MOL   H26613250   2.545   7.220   6.830 -1.3219 -1.7165  0.3725
   13MOL   H26713251   2.649   6.993   6.873  1.0059 -2.3562 -0.4352
   13MOL   H26813252   2.902   6.979   6.841  0.2120 -0.2507  0.9010
   13MOL   H26913253   3.158   6.949   6.818  1.8402  0.1975 -1.3991
   13MOL   H27013254   3.596   6.740   6.678  1.9634  0.8559 -1.2858
   13MOL   H27113255   3.743   6.840   6.530  0.5775 -2.3088 -1.6120
   13MOL   C27213256   2.710   7.836   6.963  0.0795 -0.2740 -0.1026
   13MOL   C27313257   2.692   7.932   7.066  0.1271 -0.2851  0.2500
   13MOL   C27413258   2.729   8.072   7.050 -0.1298  1.0051  0.3839
   13MOL   C27513259   2.770   8.113   6.921 -0.4927 -0.1651  0.1866
   13MOL   S27613260   2.812   0.031   6.887  0.5111  0.5066 -0.1040
   13MOL   O27713261   2.921   0.027   6.791 -0.5474  0.5087 -0.5858
   13MOL   O27813262   2.840   0.100   7.012  0.4539 -0.1759  0.0161
   13MOL   C27913263   2.669   0.095   6.813  0.7176  0.0998  0.3190
   13MOL   C28013264   2.679   0.141   6.679 -0.8474 -0.2646  0.3173
   13MOL   C28113265   2.563   0.189   6.612  0.7119 -0.0122  0.1616
   13MOL   C28213266   2.436   0.191   6.676  0.0449 -0.0982 -0.6579
   13MOL   O28313267   2.327   0.237   6.607  0.1567  0.7228  0.1213
   13MOL   C28413268   2.231   0.315   6.667 -0.3303 -0.3155 -0.5851
   13MOL   C28513269   2.269   0.435   6.727 -0.5858 -0.3985  0.3947
   13MOL   C28613270   2.183   0.512   6.799  0.1073  0.0182  0.3619
   13MOL   C28713271   2.047   0.467   6.823  0.2479  0.3604 -0.7301
   13MOL   C28813272   1.948   0.550   6.919 -1.3538 -0.4148 -0.3624
   13MOL   C28913273   1.890   0.665   6.830  0.8112 -0.2348  0.4429
   13MOL   C29013274   1.837   0.448   6.962 -0.0911  0.5598 -0.1584
   13MOL   C29113275   2.020   0.610   7.045 -0.2113  1.0041  0.0240
   13MOL   C29213276   1.980   0.733   7.107 -0.4250 -0.8235 -0.0737
   13MOL   C29313277   2.045   0.776   7.227 -0.1717  0.1988 -0.2815
   13MOL   C29413278   2.140   0.698   7.291 -0.2113  0.0364  0.1751
   13MOL   O29513279   2.175   0.723   7.419  0.2092  0.2500 -0.3556
   13MOL   C29613280   2.174   0.572   7.233 -0.5381  0.3554  0.1773
   13MOL   C29713281   2.108   0.529   7.121  0.2057  0.2767  0.4172
   13MOL   C29813282   2.003   0.355   6.757 -1.0430  0.6854 -0.1996
   13MOL   C29913283   2.095   0.277   6.684 -0.4637  0.4198  0.6833
   13MOL   C30013284   2.425   0.146   6.811 -0.0238  0.2666  0.2053
   13MOL   C30113285   2.539   0.092   6.875  0.2658  0.3599 -0.5507
   13MOL   C30213286   2.782   8.017   6.821  0.8142  0.5882  0.7987
   13MOL   C30313287   2.760   7.876   6.836  0.2464  0.0692  0.1640
   13MOL   H30413288   2.642   7.893   7.153  0.2817 -0.8543  0.0864
   13MOL   H30513289   2.717   8.148   7.126 -2.7050  1.5767 -0.5306
   13MOL   H30613290   2.772   0.139   6.624 -0.2956 -1.9427  1.2712
   13MOL   H30713291   2.564   0.236   6.515 -0.3660 -0.8002 -0.2521
   13MOL   H30813292   2.372   0.469   6.719 -1.1711  1.2393 -0.4327
   13MOL   H30913293   2.211   0.614   6.822  3.8487 -1.1484  1.2293
   13MOL   H31013294   1.800   0.701   6.879  1.0630  3.0639 -1.3969
   13MOL   H31113295   1.857   0.622   6.735  0.5465  0.7494  0.0864
   13MOL   H31213296   1.956   0.749   6.808 -2.4072  2.5073  0.9265
   13MOL   H31313297   1.891   0.362   7.001 -0.0178  0.8228  0.3283
   13MOL   H31413298   1.784   0.491   7.047 -2.8766 -1.0512 -1.0233
   13MOL   H31513299   1.760   0.437   6.885 -1.1923  1.2201  0.8149
   13MOL   H31613300   1.905   0.794   7.059 -1.2009 -1.0359  0.8554
   13MOL   H31713301   2.013   0.864   7.280 -0.6515 -0.0119 -0.2196
   13MOL   H31813302   2.232   0.499   7.286  0.1092 -0.0841 -1.1088
   13MOL   H31913303   2.128   0.432   7.077  0.7844  0.4393  0.3229
   13MOL   H32013304   1.900   0.324   6.757 -0.9685  0.3858 -1.3360
   13MOL   H32113305   2.061   0.185   6.639 -2.0314  0.2921  2.0949
   13MOL   H32213306   2.338   0.170   6.870 -0.4284  0.0397 -0.2897
   13MOL   H32313307   2.530   0.045   6.972 -0.2303 -0.1582 -0.8426
   13MOL   H32413308   2.812   8.057   6.725  0.7694  2.4155  1.5091
   13MOL   H32513309   2.778   7.806   6.756 -0.2778 -0.7690  0.7784
   13MOL   C32613310   2.303   0.677   7.461  0.6609  0.0058 -0.0658
   13MOL   C32713311   2.419   0.702   7.375  0.3501 -0.1248 -0.0717
   13MOL   C32813312   2.546   0.661   7.421 -0.2589  0.4933 -0.2750
   13MOL   C32913313   2.556   0.598   7.553 -0.2100 -0.2043  0.2776
   13MOL   S33013314   2.720   0.537   7.610 -0.7129 -0.2985 -0.3952
   13MOL   O33113315   2.762   0.615   7.729  0.2425  0.0907 -0.1218
   13MOL   O33213316   2.805   0.547   7.489 -0.1514 -0.0402  0.3345
   13MOL   C33313317   2.710   0.367   7.670 -0.2934  0.0164 -0.2634
   13MOL   C33413318   2.594   0.287   7.663  0.5986 -0.6184  0.2457
   13MOL   C33513319   2.604   0.153   7.702  0.5714 -0.0080  0.4454
   13MOL   C33613320   2.727   0.099   7.744  0.0566 -0.1902  1.0368
   13MOL   O33713321   2.728   8.216   7.759  0.2431  0.1715  0.3136
   13MOL   C33813322   2.792   8.153   7.861  0.4048 -1.0396  0.9346
   13MOL   C33913323   2.763   8.187   7.995 -0.3169 -0.3501 -0.0670
   13MOL   C34013324   2.819   8.107   8.100 -0.0265  0.4260  0.0628
   13MOL   C34113325   2.900   7.996   8.075 -0.8823  1.1271 -0.7679
   13MOL   C34213326   2.954   7.900   8.186 -0.2787  0.9357  0.1367
   13MOL   C34313327   3.079   7.960   8.251 -1.0328  0.1855 -0.5210
   13MOL   C34413328   2.851   7.888   0.047  0.0712  0.1197 -0.5803
   13MOL   C34513329   3.001   7.757   8.143  1.2451  0.8775  0.2908
   13MOL   C34613330   2.901   7.669   8.110 -0.4365 -0.7882  0.6764
   13MOL   C34713331   2.928   7.547   8.041 -0.3968 -0.3322 -0.2812
   13MOL   C34813332   3.056   7.519   7.996  0.5805  0.1211 -0.3205
   13MOL   O34913333   3.070   7.400   7.929  0.0675  0.3370  0.1453
   13MOL   C35013334   3.163   7.605   8.028 -0.7622 -0.2034 -0.4978
   13MOL   C35113335   3.129   7.725   8.095 -0.0843 -0.3373  0.5016
   13MOL   C35213336   2.933   7.969   7.940  0.8995 -0.0048 -0.6631
   13MOL   C35313337   2.876   8.046   7.835  0.7432  0.6142 -0.0692
   13MOL   C35413338   2.845   0.177   7.755  0.6569 -0.9856 -0.3248
   13MOL   C35513339   2.828   0.314   7.722  0.8891  0.6272 -0.1614
   13MOL   C35613340   2.444   0.593   7.638  0.0937 -0.2677  0.4421
   13MOL   C35713341   2.317   0.627   7.591 -0.1353 -0.2380  0.8286
   13MOL   H35813342   2.414   0.743   7.276 -0.3463 -0.2773 -0.1027
   13MOL   H35913343   2.633   0.662   7.358  0.5990 -2.9025  0.7797
   13MOL   H36013344   2.502   0.335   7.633  2.8842  1.9967 -2.9800
   13MOL   H36113345   2.515   0.093   7.698  1.1152 -0.9168  1.5935
   13MOL   H36213346   2.707   0.020   8.028  0.6996  0.6432 -0.9267
   13MOL   H36313347   2.789   8.138   8.198 -0.7132  0.4357 -0.1430
   13MOL   H36413348   3.123   7.893   0.071 -1.6181  0.6192  0.2293
   13MOL   H36513349   3.053   8.055   0.043 -0.1562 -0.9558  2.4622
   13MOL   H36613350   3.148   7.994   8.174  2.5318  0.4566  2.6766
   13MOL   H36713351   2.874   7.818   0.127 -3.4263  1.4035  1.6443
   13MOL   H36813352   2.818   7.978   0.099 -1.2899  0.5643 -2.1722
   13MOL   H36913353   2.754   7.845   0.025 -0.2066 -1.0184  2.6165
   13MOL   H37013354   2.795   7.679   8.126 -0.9093 -0.9536 -2.1566
   13MOL   H37113355   2.840   7.491   8.014 -0.2800 -0.0081 -1.3447
   13MOL   H37213356   3.263   7.579   7.996 -0.9281 -2.1061  0.4439
   13MOL   H37313357   3.212   7.791   8.113  1.1210 -1.9762  1.0620
   13MOL   H37413358   2.998   7.886   7.916  0.9621  0.2525 -1.4104
   13MOL   H37513359   2.906   8.018   7.736  3.9264  2.4423  0.3083
   13MOL   H37613360   2.944   0.140   7.781  1.0097  1.3888  1.8830
   13MOL   H37713361   2.919   0.372   7.729  1.7630 -0.8012  0.7552
   13MOL   H37813362   2.470   0.564   7.739  0.1689  0.9765  0.7944
   13MOL   H37913363   2.236   0.622   7.662 -0.6389 -1.0779  0.2100
   13MOL   C38013364   3.195   7.340   7.936  0.2739  0.5562 -0.4011
   13MOL   C38113365   3.255   7.295   7.822  0.7439 -0.0222  0.4258
   13MOL   C38213366   3.364   7.212   7.822 -0.5635 -0.3860 -0.1277
   13MOL   C38313367   3.422   7.186   7.947  0.0754  0.2390 -0.1365
   13MOL   S38413368   3.572   7.086   7.963  0.0223 -0.2725  0.1626
   13MOL   O38513369   3.522   6.951   7.969 -0.2344  0.4167  0.3845
   13MOL   O38613370   3.661   7.132   8.072  0.1858  0.1833  0.1026
   13MOL   C38713371   3.662   7.113   7.813 -0.3020 -0.0967  0.0839
   13MOL   C38813372   3.675   7.239   7.757  0.4809 -0.1207 -0.0245
   13MOL   C38913373   3.755   7.259   7.646  0.3981  0.4464 -0.0833
   13MOL   C39013374   3.827   7.147   7.591 -0.4363  0.1001 -0.3427
   13MOL   O39113375   3.911   7.163   7.486  0.6795 -0.3534  0.5680
   13MOL   C39213376   3.885   7.110   7.359  0.1267 -0.4644 -0.0291
   13MOL   C39313377   3.770   7.036   7.325 -0.0015 -0.0426  0.3997
   13MOL   C39413378   3.751   6.988   7.198 -0.4625 -0.0538 -0.6929
   13MOL   C39513379   3.857   7.002   7.103 -0.6303  0.5921  0.0196
   13MOL   C39613380   3.830   6.954   6.958  0.7507  0.1695 -0.0946
   13MOL   C39713381   3.709   7.034   6.903  0.6928  0.2047 -0.2189
   13MOL   C39813382   3.940   6.994   6.861 -0.2328  0.1584  0.5326
   13MOL   C39913383   3.799   6.793   6.963 -0.3164  0.3109  0.1372
   13MOL   C40013384   3.900   6.691   6.971  0.5566 -0.2108  0.4357
   13MOL   C40113385   3.864   6.556   6.949 -0.4722  0.3109  0.2533
   13MOL   C40213386   3.736   6.510   6.924  0.3486 -0.1801 -0.6150
   13MOL   O40313387   3.721   6.377   6.890 -0.0535  0.1517 -0.6352
   13MOL   C40413388   3.633   6.608   6.940 -0.4778  0.3154  0.4348
   13MOL   C40513389   3.667   6.745   6.966  0.4917 -0.1802  0.2462
   13MOL   C40613390   3.977   7.057   7.147  0.3048 -0.3962 -0.1239
   13MOL   C40713391   3.988   7.116   7.271  0.2917 -0.3237  0.7573
   13MOL   C40813392   3.816   7.019   7.651  0.0417  0.2520 -0.7574
   13MOL   C40913393   3.727   7.003   7.764 -0.3334  0.4926 -0.3340
   13MOL   C41013394   3.369   7.235   8.066 -0.5727 -0.4766 -0.6557
   13MOL   C41113395   3.252   7.307   8.059 -0.5949  0.2410 -1.0286
   13MOL   H41213396   3.209   7.313   7.726  0.4625 -0.3928  0.4930
   13MOL   H41313397   3.404   7.174   7.729 -0.8398  1.5379 -1.0528
   13MOL   H41413398   3.621   7.317   7.809 -2.0287 -2.2473  0.6668
   13MOL   H41513399   3.751   7.353   7.593  1.6619  2.0828  2.6079
   13MOL   H41613400   3.687   7.019   7.392 -0.3564  2.9173  0.7804
   13MOL   H41713401   3.663   6.928   7.184  1.3686 -3.1318  0.4820
   13MOL   H41813402   3.746   7.136   6.909 -1.5611  1.0411 -0.1505
   13MOL   H41913403   3.627   7.027   6.974  1.1993 -0.5615  0.3029
   13MOL   H42013404   3.667   7.017   6.804 -1.1507 -0.6445  0.6775
   13MOL   H42113405   3.949   7.103   6.852  2.4996  0.4419  4.9527
   13MOL   H42213406   4.036   6.947   6.886 -0.9131 -1.5372 -0.0163
   13MOL   H42313407   3.920   6.952   6.763 -0.3043  1.0792  0.1425
   13MOL   H42413408   4.003   6.725   6.970 -0.1332  2.0068 -3.1965
   13MOL   H42513409   3.947   6.490   6.928  0.5301  1.4832  0.4973
   13MOL   H42613410   3.527   6.593   6.923 -0.1730 -2.0291  0.5693
   13MOL   H42713411   3.585   6.815   6.969  0.0185 -0.5470 -2.5344
   13MOL   H42813412   4.060   7.065   7.078 -0.7652  0.0490 -1.3944
   13MOL   H42913413   4.076   7.167   7.305 -0.5779 -1.1521  4.4382
   13MOL   H43013414   3.866   6.936   7.605  1.2308 -0.2403  1.3784
   13MOL   H43113415   3.721   6.912   7.821 -1.6946  1.3431  0.9210
   13MOL   H43213416   3.410   7.199   8.159  0.5289  0.3917 -0.8022
   13MOL   H43313417   3.208   7.337   8.152  1.8185 -0.0983  0.2645
   13MOL   C43413418   3.629   6.346   6.793  0.2025  0.8460  0.0923
   13MOL   C43513419   3.561   6.224   6.812  0.2727 -1.2496 -0.2928
   13MOL   C43613420   3.465   6.183   6.720 -0.0673 -0.1366  0.2553
   13MOL   C43713421   3.432   6.266   6.611 -0.1422  0.2706  0.6903
   13MOL   S43813422   3.301   6.231   6.499 -0.4315 -0.1214  0.2695
   13MOL   O43913423   3.234   6.355   6.456  0.1085  0.2966  0.2388
   13MOL   O44013424   3.216   6.128   6.555  0.4607  0.3485  0.4144
   13MOL   C44113425   3.376   6.168   6.352 -0.2049 -0.1607 -0.0720
   13MOL   C44213426   3.301   6.088   6.261 -1.1113  0.3058  0.5093
   13MOL   C44313427   3.364   6.026   6.154  0.4676  0.2857 -0.1091
   13MOL   C44413428   3.502   6.039   6.130 -0.4782 -0.4023 -0.6875
   13MOL   O44513429   3.564   5.974   6.029 -0.4695  0.1214 -0.4013
   13MOL   C44613430   3.617   5.848   6.055 -0.4264 -0.9569 -0.2404
   13MOL   C44713431   3.617   5.793   6.179 -0.8275 -0.3117 -0.7696
   13MOL   C44813432   3.679   5.676   6.209  0.4337 -0.1423 -0.1693
   13MOL   C44913433   3.720   5.591   6.102 -0.3696 -0.3943  0.3493
   13MOL   C45013434   3.764   5.448   6.123  0.5082 -0.0025 -0.0566
   13MOL   C45113435   3.793   5.364   5.991  0.0868  0.0558  0.0238
   13MOL   C45213436   3.899   5.470   6.191  0.1325 -0.3944  0.1808
   13MOL   C45313437   3.654   5.378   6.203  0.0775 -0.0280 -0.5385
   13MOL   C45413438   3.677   5.346   6.338 -0.0135  0.0209  0.2946
   13MOL   C45513439   3.582   5.281   6.422  0.3836 -0.0856  0.2598
   13MOL   C45613440   3.461   5.237   6.361  0.1289 -0.5096 -0.0907
   13MOL   O45713441   3.365   5.167   6.432  0.0026  0.3025 -0.2638
   13MOL   C45813442   3.428   5.276   6.231  0.1823  0.6529 -0.0100
   13MOL   C45913443   3.524   5.345   6.153  0.4579 -0.0236  0.4161
   13MOL   C46013444   3.711   5.645   5.969  0.6193 -0.0336 -0.1907
   13MOL   C46113445   3.667   5.777   5.947 -0.2848  0.1707 -0.4268
   13MOL   C46213446   3.572   6.118   6.223  0.1162 -0.0471 -0.6331
   13MOL   C46313447   3.516   6.179   6.332 -0.3729 -0.2770 -0.3837
   13MOL   C46413448   3.491   6.393   6.599 -0.2407 -0.5822 -0.1358
   13MOL   C46513449   3.596   6.430   6.684  0.0508  0.2226  0.3455
   13MOL   H46613450   3.593   6.165   6.897  1.8896 -0.1527 -0.1092
   13MOL   H46713451   3.429   6.083   6.735  0.8934 -0.7826 -1.5420
   13MOL   H46813452   3.193   6.086   6.273 -1.0220 -0.2999  1.1877
   13MOL   H46913453   3.307   5.976   6.077  1.5042 -2.0781  0.6001
   13MOL   H47013454   3.587   5.848   6.267 -0.8423  0.0667 -1.0120
   13MOL   H47113455   3.672   5.633   6.308 -1.7404 -0.1418 -0.3012
   13MOL   H47213456   3.841   5.270   6.021 -0.1560 -0.3842 -0.9672
   13MOL   H47313457   3.857   5.401   5.911  1.4693  0.1809  1.1664
   13MOL   H47413458   3.702   5.317   5.956  0.4453 -0.9083  0.3649
   13MOL   H47513459   3.898   5.533   6.279  0.3196 -1.7340  1.1602
   13MOL   H47613460   3.941   5.376   6.227  0.0855  0.0976  1.5336
   13MOL   H47713461   3.977   5.508   6.124 -0.7056  0.0816 -0.5305
   13MOL   H47813462   3.768   5.385   6.382  0.2517 -1.0966  0.7580
   13MOL   H47913463   3.603   5.252   6.524 -0.2372  0.5044  0.5562
   13MOL   H48013464   3.336   5.244   6.184 -0.0519 -1.4009  1.7570
   13MOL   H48113465   3.496   5.355   6.049 -1.5450 -0.2927  0.9075
   13MOL   H48213466   3.750   5.589   5.886 -2.9820  0.8042 -2.5540
   13MOL   H48313467   3.666   5.824   5.850  1.8926 -2.0330 -1.5596
   13MOL   H48413468   3.680   6.118   6.217  0.1066  1.6710 -0.9375
   13MOL   H48513469   3.587   6.220   6.401  1.6222 -3.9323 -0.1572
   13MOL   H48613470   3.466   6.458   6.516  0.4634  0.8997  0.7947
   13MOL   H48713471   3.641   6.528   6.686 -0.6927  0.5669  0.5354
   13MOL   C48813472   3.227   5.173   6.404 -0.1728 -0.1221 -0.2663
   13MOL   C48913473   3.158   5.290   6.433  0.1661  0.5151 -0.9122
   13MOL   C49013474   3.018   5.298   6.409 -0.6440 -0.5778 -0.2206
   13MOL   C49113475   2.951   5.200   6.338 -0.0804 -0.0164 -0.5123
   13MOL   S49213476   2.779   5.213   6.284  0.2242 -0.0504  0.0472
   13MOL   O49313477   2.708   5.305   6.375 -0.8640 -0.1438  0.6982
   13MOL   O49413478   2.738   5.071   6.269 -0.1869  0.5310 -0.3109
   13MOL   C49513479   2.791   5.307   6.129  0.6954  0.1095  0.2395
   13MOL   C49613480   2.783   5.449   6.127  0.7659  0.2790 -0.0127
   13MOL   C49713481   2.802   5.523   6.010  1.0248  0.0702  0.0986
   13MOL   C49813482   2.831   5.450   5.892  0.7993 -0.1724  0.0742
   13MOL   O49913483   2.861   5.524   5.782  0.1938  0.1123  0.2133
   13MOL   C50013484   2.989   5.536   5.749 -0.0159  0.0860  0.9940
   13MOL   C50113485   3.068   5.648   5.782  1.0426  0.3958 -0.3411
   13MOL   C50213486   3.202   5.649   5.750  0.6264  0.1382 -0.5750
   13MOL   C50313487   3.265   5.545   5.680  0.5215  0.7083  0.2897
   13MOL   C50413488   3.412   5.545   5.640  0.1942  0.0206 -0.2738
   13MOL   C50513489   3.483   5.682   5.673 -0.4009 -0.3408  0.4918
   13MOL   C50613490   3.485   5.434   5.709  1.1035  0.4427  0.6020
   13MOL   C50713491   3.415   5.516   5.488  0.2315  0.8457  0.4908
   13MOL   C50813492   3.359   5.608   5.400  0.1093  0.6310  0.7284
   13MOL   C50913493   3.348   5.578   5.261  0.6280 -0.1345 -0.1824
   13MOL   C51013494   3.411   5.459   5.211  0.6706  0.4037  0.0612
   13MOL   O51113495   3.421   5.436   5.074  0.1808  0.0563  0.2215
   13MOL   C51213496   3.478   5.369   5.298  0.3524 -0.6173  0.2035
   13MOL   C51313497   3.470   5.395   5.435 -0.3850 -0.3342  0.2572
   13MOL   C51413498   3.180   5.439   5.625 -0.2777  0.7571 -0.2645
   13MOL   C51513499   3.045   5.433   5.673  0.0647  0.2164 -0.3401
   13MOL   C51613500   2.826   5.310   5.888 -0.6551  0.3072  0.2262
   13MOL   C51713501   2.806   5.240   6.007 -0.1387  0.3123  0.2151
   13MOL   C51813502   3.023   5.079   6.309 -0.0452 -0.1522 -0.1286
   13MOL   C51913503   3.155   5.057   6.351  0.7286 -0.3682  0.3822
   13MOL   H52013504   3.206   5.373   6.484  0.8355 -1.4350  1.7037
   13MOL   H52113505   2.969   5.392   6.430  1.7454  0.5900  0.3749
   13MOL   H52213506   2.783   5.495   6.224  0.2826  1.5819 -0.6179
   13MOL   H52313507   2.792   5.630   6.018  1.6604  0.0071  1.9046
   13MOL   H52413508   3.012   5.724   5.835  1.0793  1.1690 -1.3977
   13MOL   H52513509   3.252   5.736   5.790 -0.3996 -0.3554  1.9313
   13MOL   H52613510   3.590   5.684   5.655 -0.7195 -1.2266 -1.7894
   13MOL   H52713511   3.471   5.716   5.775 -0.8740 -1.2386  0.7457
   13MOL   H52813512   3.445   5.767   5.617 -1.1421 -0.5338  0.6870
   13MOL   H52913513   3.472   5.449   5.816  0.1195  1.2159  0.3848
   13MOL   H53013514   3.450   5.332   5.689 -0.0184  0.9459 -0.0969
   13MOL   H53113515   3.588   5.445   5.677  1.7811 -0.9393  2.2208
   13MOL   H53213516   3.309   5.700   5.426 -0.6961  0.2448  0.5403
   13MOL   H53313517   3.298   5.644   5.192 -0.7512 -0.4168  0.5256
   13MOL   H53413518   3.535   5.284   5.263  3.0074  0.5402  1.5664
   13MOL   H53513519   3.534   5.327   5.488  0.3822 -1.8495 -2.5009
   13MOL   H53613520   3.218   5.355   5.569 -1.0475  1.6555 -2.1769
   13MOL   H53713521   2.986   5.349   5.639  1.3845 -0.0573 -2.0304
   13MOL   H53813522   2.846   5.259   5.795 -3.3209 -1.4360  0.5514
   13MOL   H53913523   2.816   5.132   6.007  1.7076  0.4764  0.1876
   13MOL   H54013524   2.970   5.002   6.254 -0.0578 -2.5013  3.0703
   13MOL   H54113525   3.209   4.967   6.323  2.5578  0.7311  0.2946
   13MOL   C54213526   3.526   5.495   5.008  0.0200  0.5007 -0.1642
   13MOL   C54313527   3.512   5.622   4.942  0.0213 -0.1016 -0.1378
   13MOL   C54413528   3.625   5.679   4.874  0.3196 -0.2119 -0.5804
   13MOL   C54513529   3.745   5.606   4.865 -0.0604  0.1508 -0.4861
   13MOL   S54613530   3.879   5.669   4.767 -0.4626 -0.1244 -0.0652
   13MOL   O54713531   3.877   5.589   4.644  0.2171 -0.3240  0.5667
   13MOL   O54813532   4.001   5.674   4.851  0.7215  0.2383  0.5132
   13MOL   C54913533   3.834   5.836   4.721 -0.2280  0.1936 -0.5407
   13MOL   C55013534   3.755   5.857   4.610  0.6179  0.0711 -0.5440
   13MOL   C55113535   3.718   5.990   4.577 -0.0151  0.2348  0.1711
   13MOL   C55213536   3.755   6.101   4.658 -0.4737  0.3955  0.3807
   13MOL   O55313537   3.715   6.229   4.628 -0.2421  0.0727 -0.2152
   13MOL   C55413538   3.806   6.301   4.548  0.3680 -0.5247 -0.6228
   13MOL   C55513539   3.944   6.274   4.548  0.1591 -0.0110  0.1677
   13MOL   C55613540   4.030   6.355   4.477 -1.1249 -0.8421 -0.2692
   13MOL   C55713541   3.997   6.470   4.406 -0.0759 -0.7028 -0.0685
   13MOL   C55813542   4.095   6.562   4.327 -0.1358 -0.3360  0.7209
   13MOL   C55913543   4.112   6.501   4.188 -0.2224 -0.5231  0.3284
   13MOL   C56013544   4.037   6.703   4.322 -0.1827 -0.8541  0.5152
   13MOL   C56113545   4.233   6.575   4.404 -0.7458  0.1799  0.2646
   13MOL   C56213546   4.229   6.601   4.542  0.9253  0.2098  0.4898
   13MOL   C56313547   4.348   6.626   4.617 -0.4836 -0.6629  0.3558
   13MOL   C56413548   4.469   6.628   4.555  0.5445 -0.7988 -0.0549
   13MOL   O56513549   4.589   6.643   4.619 -0.4831  0.3871  0.5381
   13MOL   C56613550   4.471   6.604   4.415 -0.1002  0.1348  0.1665
   13MOL   C56713551   4.357   6.570   4.340 -0.5909  0.4408  0.1253
   13MOL   C56813552   3.860   6.494   4.409  0.6291  0.5137 -0.0823
   13MOL   C56913553   3.764   6.409   4.470  0.7270 -0.0674 -0.3912
   13MOL   C57013554   3.833   6.073   4.775  0.0739  0.4209  0.4904
   13MOL   C57113555   3.873   5.941   4.808  0.1831 -1.0404  0.8036
   13MOL   C57213556   3.754   5.481   4.924  0.5344 -0.2456 -0.7181
   13MOL   C57313557   3.647   5.422   4.996  0.7467 -0.3098  0.2486
   13MOL   H57413558   3.424   5.685   4.946  0.4840  0.7169 -2.5719
   13MOL   H57513559   3.623   5.780   4.837 -5.0652 -0.1353 -0.4207
   13MOL   H57613560   3.728   5.775   4.544  0.2618  0.6429 -1.1137
   13MOL   H57713561   3.676   6.009   4.479 -0.2131  2.2365  0.6143
   13MOL   H57813562   3.967   6.181   4.598 -0.1950 -0.1407  0.0908
   13MOL   H57913563   4.132   6.324   4.460 -1.0030 -0.8809  0.5172
   13MOL   H58013564   4.168   6.565   4.120  1.2251 -0.1900  1.8139
   13MOL   H58113565   4.014   6.478   4.147 -0.3162 -1.1463  0.8810
   13MOL   H58213566   4.166   6.406   4.198 -0.4547 -0.6630  0.2530
   13MOL   H58313567   4.111   6.774   4.286 -0.8351 -0.3138  0.2485
   13MOL   H58413568   3.946   6.710   4.263  0.6474 -1.1018 -0.8192
   13MOL   H58513569   4.010   6.746   4.418 -0.8460 -0.9991  0.3978
   13MOL   H58613570   4.129   6.609   4.582  1.0382 -1.5433  1.1796
   13MOL   H58713571   4.340   6.654   4.721 -0.8788 -0.0729  0.1716
   13MOL   H58813572   4.558   6.575   4.358 -0.0328  0.5303  0.0674
   13MOL   H58913573   4.369   6.540   4.237 -2.5944 -2.3469  0.6450
   13MOL   H59013574   3.818   6.570   4.345 -0.4351 -0.1630 -0.1970
   13MOL   H59113575   3.659   6.431   4.468  0.5700 -0.6705  0.4209
   13MOL   H59213576   3.859   6.158   4.837  1.4579  0.6352 -0.3597
   13MOL   H59313577   3.918   5.921   4.905  1.2370 -0.8647  0.3587
   13MOL   H59413578   3.846   5.426   4.910 -1.0391 -2.6503 -1.9640
   13MOL   H59513579   3.648   5.325   5.043  1.4110 -0.0499  0.7766
   13MOL   C59613580   4.629   6.539   4.711  0.2437 -0.2522 -0.0558
   13MOL   C59713581   4.632   6.571   4.849  0.3180  0.3412 -0.6324
   13MOL   C59813582   4.639   6.473   4.947 -0.4218  0.4280  0.1514
   13MOL   C59913583   4.634   6.334   4.906  0.5764 -0.3435  0.1515
   13MOL   S60013584   4.635   6.199   5.025 -0.1538  0.1470  0.3707
   13MOL   O60113585   4.633   6.070   4.959 -0.0242  0.5903  0.0400
   13MOL   O60213586   4.540   6.231   5.130 -0.3908 -0.4627  0.0471
   13MOL   C60313587   4.797   6.243   5.090 -0.5906  0.3750 -0.2322
   13MOL   C60413588   4.828   6.231   5.229  0.5640 -0.2006  0.4627
   13MOL   C60513589   4.956   6.268   5.281 -0.1592  0.9195  0.6757
   13MOL   C60613590   5.059   6.300   5.189  0.0908 -0.6548 -0.2184
   13MOL   O60713591   5.186   6.324   5.232 -0.7873  0.1042 -0.0354
   13MOL   C60813592   5.292   6.323   5.146 -0.0685 -0.0028  0.2437
   13MOL   C60913593   5.378   6.437   5.147 -0.2358 -0.2284  0.2664
   13MOL   C61013594   5.507   6.424   5.084  0.2929 -0.4551 -0.6758
   13MOL   C61113595   5.532   6.314   4.998  0.5690  0.0886  0.8191
   13MOL   C61213596   5.665   6.306   4.912  0.1516 -0.5763 -0.2926
   13MOL   C61313597   5.774   6.259   5.009 -0.3377 -0.2188 -0.6777
   13MOL   C61413598   5.652   6.208   4.792 -0.9815  0.0076  0.2723
   13MOL   C61513599   5.696   6.444   4.860  0.2552 -1.1421 -0.7169
   13MOL   C61613600   5.594   6.512   4.789  0.3453  0.3852 -0.2869
   13MOL   C61713601   5.613   6.645   4.747  0.1352  0.5899  0.2268
   13MOL   C61813602   5.736   6.711   4.771 -0.1160  0.2244  0.0665
   13MOL   O61913603   5.748   6.843   4.751  0.2420 -0.4082 -0.0186
   13MOL   C62013604   5.838   6.643   4.845 -0.6147  0.3057  0.8965
   13MOL   C62113605   5.819   6.513   4.890  0.2963  0.2255  0.0760
   13MOL   C62213606   5.446   6.205   4.997 -0.0579  0.7189  0.6938
   13MOL   C62313607   5.321   6.213   5.065 -0.4876  0.3533  0.0039
   13MOL   C62413608   5.027   6.319   5.054 -0.8751 -0.0192  0.1976
   13MOL   C62513609   4.898   6.284   5.001  0.9525 -0.2741  0.4525
   13MOL   C62613610   4.633   6.306   4.766 -0.1633  0.3962  0.2429
   13MOL   C62713611   4.628   6.406   4.670 -1.0232  0.0531  0.1452
   13MOL   H62813612   4.614   6.674   4.878  0.3474  0.2019 -0.1230
   13MOL   H62913613   4.648   6.494   5.052  1.0658  0.8283 -0.0412
   13MOL   H63013614   4.746   6.212   5.297 -0.9511  1.0544 -0.9815
   13MOL   H63113615   4.957   6.259   5.389  4.0757 -1.3541  0.5767
   13MOL   H63213616   5.352   6.515   5.218 -0.7455 -0.8156  0.7251
   13MOL   H63313617   5.572   6.510   5.091  0.7035 -0.9710  2.5705
   13MOL   H63413618   5.872   6.248   4.962  1.4548 -1.9781  3.2663
   13MOL   H63513619   5.750   6.159   5.046 -0.7118  0.3819  0.7432
   13MOL   H63613620   5.781   6.323   5.097  0.8740 -1.4741  0.1619
   13MOL   H63713621   5.732   6.231   4.722 -1.5713 -0.6755 -0.6268
   13MOL   H63813622   5.656   6.104   4.825  0.8613 -1.0315 -3.0481
   13MOL   H63913623   5.560   6.217   4.736 -0.0924 -0.0813 -1.2218
   13MOL   H64013624   5.501   6.467   4.758 -0.0106  0.4046  0.7107
   13MOL   H64113625   5.531   6.695   4.699  0.8111  0.8696 -0.6336
   13MOL   H64213626   5.926   6.699   4.872  0.0436 -0.5723  0.5890
   13MOL   H64313627   5.903   6.469   4.943 -1.0576 -1.3029  0.9876
   13MOL   H64413628   5.466   6.111   4.948  2.3570  1.3637  0.3969
   13MOL   H64513629   5.250   6.132   5.065  0.9387 -0.9283 -1.5373
   13MOL   H64613630   5.096   6.350   4.977 -0.9635  1.5056  0.7317
   13MOL   H64713631   4.884   6.291   4.894 -0.0685  0.4102  0.6267
   13MOL   H64813632   4.628   6.200   4.746  1.7404  0.6245 -1.5759
   13MOL   H64913633   4.613   6.378   4.567 -0.7928 -0.3659  0.2265
   13MOL   C65013634   5.875   6.895   4.733  0.2366  0.3745  0.7171
   13MOL   C65113635   5.954   6.942   4.841  0.5905  0.0120 -0.0608
   13MOL   C65213636   6.077   6.995   4.814 -0.2511  0.0310  0.3156
   13MOL   C65313637   6.129   7.019   4.681  0.5145  0.3881  0.2030
   13MOL   S65413638   6.282   7.110   4.649  0.0503 -0.2202 -0.2546
   13MOL   O65513639   6.278   7.228   4.741  0.4310 -0.0437  0.4658
   13MOL   O65613640   6.295   7.119   4.502 -0.0441  0.0635 -0.2527
   13MOL   C65713641   6.417   6.995   4.701 -0.4096  0.4407 -0.3856
   13MOL   C65813642   6.530   7.043   4.771 -0.1030 -0.7214 -0.2201
   13MOL   C65913643   6.639   6.956   4.800 -0.4070  0.1286 -0.1355
   13MOL   C66013644   6.635   6.824   4.757 -0.0551  0.3175 -0.3469
   13MOL   O66113645   6.748   6.741   4.747 -0.3174 -0.2320  0.1481
   13MOL   C66213646   6.812   6.699   4.859 -0.0055  0.1066  0.4265
   13MOL   C66313647   6.943   6.643   4.843  0.4140  0.2464  0.9610
   13MOL   C66413648   7.016   6.599   4.953  0.5397  0.2315  0.3206
   13MOL   C66513649   6.956   6.603   5.086 -0.4904  0.3864  0.2268
   13MOL   C66613650   7.026   6.542   5.211 -0.6515  0.1621 -0.5629
   13MOL   C66713651   6.994   6.385   5.221 -0.2371 -0.3548  0.7552
   13MOL   C66813652   7.178   6.563   5.205 -0.9287 -0.2394 -0.4898
   13MOL   C66913653   6.968   6.618   5.340  0.0914 -0.1495 -0.4728
   13MOL   C67013654   6.859   6.568   5.423  0.7302  0.7512  0.3021
   13MOL   C67113655   6.813   6.647   5.533 -0.4324  0.1930  0.1584
   13MOL   C67213656   6.867   6.772   5.559 -0.9087  0.1093 -0.1412
   13MOL   O67313657   6.834   6.844   5.676 -0.2337  0.1563  0.3456
   13MOL   C67413658   6.969   6.820   5.481 -0.5994 -0.8071 -0.4827
   13MOL   C67513659   7.020   6.743   5.376  0.3901  0.2614 -0.3036
   13MOL   C67613660   6.823   6.658   5.098  0.1846  0.4801  0.5275
   13MOL   C67713661   6.753   6.702   4.987  0.3418 -0.3082 -0.2114
   13MOL   C67813662   6.512   6.774   4.695 -1.0911  0.2994  0.2796
   13MOL   C67913663   6.400   6.858   4.674 -0.5137  0.1767 -0.0283
   13MOL   C68013664   6.055   6.966   4.575  0.8872  0.5458  0.7558
   13MOL   C68113665   5.924   6.915   4.597 -0.8859  0.4711 -0.1598
   13MOL   H68213666   5.913   6.939   4.941 -0.5654 -0.6045 -0.5323
   13MOL   H68313667   6.137   7.038   4.893  0.4078  2.3165 -1.3493
   13MOL   H68413668   6.531   7.149   4.794 -0.2650 -0.7812  0.0622
   13MOL   H68513669   6.724   7.003   4.847  1.4645 -1.2308 -2.0717
   13MOL   H68613670   6.971   6.656   4.739 -1.9162  1.0485  0.3993
   13MOL   H68713671   7.110   6.546   4.953 -0.0477 -0.8428  1.3167
   13MOL   H68813672   7.029   6.340   5.313 -1.2797 -2.6431  0.0611
   13MOL   H68913673   7.026   6.333   5.131  2.3362 -0.5540  1.7402
   13MOL   H69013674   6.886   6.381   5.217 -0.2532 -0.6955  1.5368
   13MOL   H69113675   7.204   6.665   5.177  1.6118 -0.9986 -1.0859
   13MOL   H69213676   7.229   6.538   5.299 -1.2589 -2.7159 -0.9494
   13MOL   H69313677   7.224   6.508   5.123 -1.3000  0.7821 -1.3916
   13MOL   H69413678   6.820   6.469   5.404 -1.6739  1.9491 -1.2975
   13MOL   H69513679   6.747   6.610   5.610 -0.5518 -0.2223 -0.1483
   13MOL   H69613680   7.012   6.912   5.515 -1.2284 -1.4151  2.0641
   13MOL   H69713681   7.100   6.786   5.319  2.2667 -2.1469  0.4199
   13MOL   H69813682   6.764   6.667   5.188 -1.1781 -2.0441 -0.0569
   13MOL   H69913683   6.657   6.748   5.006  0.1665 -0.3156 -1.0710
   13MOL   H70013684   6.514   6.672   4.659  1.2617  0.9295 -1.5273
   13MOL   H70113685   6.316   6.816   4.621 -0.2789 -0.1825 -0.1261
   13MOL   H70213686   6.095   6.974   4.475  2.1055 -0.6072  1.1287
   13MOL   H70313687   5.857   6.886   4.518  0.1928  1.6620 -1.5287
   13MOL   C70413688   6.731   6.937   5.685 -0.0363 -0.6631 -0.2706
   13MOL   C70513689   6.678   6.965   5.815  0.0575 -0.2141 -0.4903
   13MOL   C70613690   6.572   7.049   5.835  0.6127  0.2288  0.1683
   13MOL   C70713691   6.520   7.121   5.727 -0.6209 -0.0536  0.5187
   13MOL   S70813692   6.413   7.262   5.751  0.3558  0.4138 -0.4583
   13MOL   O70913693   6.429   7.353   5.639 -0.0837 -0.0678 -0.8134
   13MOL   O71013694   6.435   7.304   5.888  0.1213 -0.0974  0.0818
   13MOL   C71113695   6.244   7.202   5.747 -0.8045 -0.1931  0.0959
   13MOL   C71213696   6.200   7.097   5.830  0.3751 -0.2506  0.2546
   13MOL   C71313697   6.065   7.060   5.825  0.2583  0.5026 -0.7075
   13MOL   C71413698   5.980   7.126   5.736 -0.0568 -0.0702  0.7262
   13MOL   O71513699   5.846   7.090   5.733  0.3669  0.2165  0.1551
   13MOL   C71613700   5.751   7.166   5.790  0.1960 -0.2619 -0.0209
   13MOL   C71713701   5.777   7.280   5.864 -0.6711  0.1010  1.2925
   13MOL   C71813702   5.673   7.355   5.918  0.0303 -0.5797  0.7147
   13MOL   C71913703   5.536   7.313   5.901  0.0914 -0.7591 -0.4862
   13MOL   C72013704   5.420   7.386   5.968 -0.3901  0.1062 -0.1852
   13MOL   C72113705   5.473   7.477   6.083  0.5793 -0.4161 -0.2196
   13MOL   C72213706   5.352   7.480   5.861 -0.4806  0.2160  0.7198
   13MOL   C72313707   5.330   7.276   6.034 -0.0460 -0.7600  0.2535
   13MOL   C72413708   5.377   7.187   6.135 -0.5036  0.1468  0.5006
   13MOL   C72513709   5.297   7.092   6.196  0.6401  0.0709 -0.7664
   13MOL   C72613710   5.164   7.079   6.155  0.1621  0.6195  0.5671
   13MOL   O72713711   5.090   6.972   6.196 -0.0568  0.1227  0.3657
   13MOL   C72813712   5.103   7.174   6.063 -0.6454 -0.4163 -0.0472
   13MOL   C72913713   5.189   7.270   6.008  0.3146  0.7261 -0.0895
   13MOL   C73013714   5.512   7.196   5.825 -0.5508 -0.2273  0.6810
   13MOL   C73113715   5.618   7.123   5.768  1.2218 -0.5266  0.4525
   13MOL   C73213716   6.024   7.225   5.654 -0.5038  0.6566  0.0919
   13MOL   C73313717   6.155   7.266   5.654  0.2069 -0.2316  0.2481
   13MOL   C73413718   6.580   7.103   5.596  0.2460 -0.0129 -1.0379
   13MOL   C73513719   6.684   7.013   5.575  0.3159 -0.0019  0.2231
   13MOL   H73613720   6.720   6.923   5.905 -1.9089 -1.5041 -0.1227
   13MOL   H73713721   6.530   7.077   5.930 -1.2457  0.2828 -0.6539
   13MOL   H73813722   6.260   7.058   5.911  0.4045 -0.6518  0.0368
   13MOL   H73913723   6.029   6.990   5.899 -0.6421  0.8685 -0.7925
   13MOL   H74013724   5.877   7.321   5.871 -0.4389  0.5470 -3.1576
   13MOL   H74113725   5.692   7.450   5.965 -1.4652 -0.4585  1.0910
   13MOL   H74213726   5.391   7.521   6.141 -1.1364 -0.6303 -2.4209
   13MOL   H74313727   5.516   7.564   6.034  0.1357  0.1035  0.2959
   13MOL   H74413728   5.545   7.431   6.150  1.4011  3.9726  2.1106
   13MOL   H74513729   5.436   7.535   5.820 -0.1969 -1.2034 -0.6467
   13MOL   H74613730   5.316   7.429   5.772  0.4524  1.2124 -0.2372
   13MOL   H74713731   5.277   7.544   5.907 -0.8436  0.7011 -0.5519
   13MOL   H74813732   5.479   7.188   6.172 -0.3711 -1.1473  0.2179
   13MOL   H74913733   5.340   7.022   6.266  2.6553  1.0599 -0.9587
   13MOL   H75013734   5.000   7.177   6.031 -1.2091  0.9539  1.7818
   13MOL   H75113735   5.145   7.341   5.939 -1.3218 -1.2924 -1.1873
   13MOL   H75213736   5.413   7.161   5.803 -0.0338 -1.6966  0.5888
   13MOL   H75313737   5.589   7.039   5.706 -2.7317  1.0444 -0.0112
   13MOL   H75413738   5.963   7.264   5.574  0.7694  1.1131 -0.6745
   13MOL   H75513739   6.185   7.353   5.598  3.6950 -0.9694  0.8422
   13MOL   H75613740   6.532   7.148   5.511 -1.6249 -3.0104 -1.6559
   13MOL   H75713741   6.725   6.993   5.477  1.1722 -2.5683  1.0426
   13MOL   C75813742   5.068   6.970   6.331 -0.2161  0.1790  0.8325
   13MOL   C75913743   4.964   7.051   6.384 -0.0911 -0.6499 -0.0099
   13MOL   C76013744   4.936   7.065   6.521  0.3235  0.6707  0.1610
   13MOL   C76113745   5.007   6.973   6.608 -0.2723 -0.8128 -0.1027
   13MOL   S76213746   4.976   6.973   6.784 -0.1572 -0.1223  0.0361
   13MOL   O76313747   4.926   7.105   6.813 -0.5617  0.4344 -0.5741
   13MOL   O76413748   5.086   6.907   6.856 -0.6557 -0.0012  0.0996
   13MOL   C76513749   4.841   6.854   6.792  0.1857  0.7467  0.0705
   13MOL   C76613750   4.863   6.715   6.802 -0.3988 -0.3946  0.2461
   13MOL   C76713751   4.758   6.619   6.815 -0.1153 -0.7024 -0.5861
   13MOL   C76813752   4.624   6.664   6.829 -0.0649 -0.0479 -0.0882
   13MOL   O76913753   4.523   6.569   6.859  0.1363 -0.1564  0.2324
   13MOL   C77013754   4.409   6.582   6.785  0.3613  0.6202 -0.5097
   13MOL   C77113755   4.398   6.497   6.678 -0.7435 -0.7185  0.4783
   13MOL   C77213756   4.283   6.503   6.596 -0.6225  0.0804  0.0205
   13MOL   C77313757   4.173   6.586   6.623  0.2279  0.6424  0.3151
   13MOL   C77413758   4.048   6.587   6.532  0.4829 -0.4916 -0.2643
   13MOL   C77513759   3.914   6.635   6.595 -0.1609 -0.0819  0.2302
   13MOL   C77613760   4.069   6.691   6.421  0.2252  0.0650 -0.7113
   13MOL   C77713761   4.018   6.446   6.470 -0.1510 -0.1394 -0.1129
   13MOL   C77813762   4.053   6.409   6.337 -1.1081  0.5602 -0.0406
   13MOL   C77913763   4.009   6.292   6.278  0.5280  0.7315  0.3644
   13MOL   C78013764   3.933   6.200   6.352  0.2136  0.2993  0.1529
   13MOL   O78113765   3.891   6.074   6.309  0.1178  0.0555  0.0056
   13MOL   C78213766   3.897   6.235   6.486 -0.2049  0.1277  0.2026
   13MOL   C78313767   3.943   6.353   6.549  0.6447  0.0009  0.7472
   13MOL   C78413768   4.189   6.676   6.733 -0.6832  0.3647  1.3686
   13MOL   C78513769   4.305   6.669   6.816 -0.7145  0.3241  0.2835
   13MOL   C78613770   4.597   6.805   6.826 -0.3960  0.3175  0.5508
   13MOL   C78713771   4.703   6.898   6.807  0.0363 -0.2713 -0.2427
   13MOL   C78813772   5.109   6.890   6.556 -0.2077 -0.3514  0.6988
   13MOL   C78913773   5.144   6.894   6.424 -0.1523 -0.4389 -0.7604
   13MOL   H79013774   4.909   7.112   6.313  1.5006  1.5919  0.6220
   13MOL   H79113775   4.855   7.125   6.559  1.9449  1.9625  1.6521
   13MOL   H79213776   4.963   6.678   6.781 -0.6242  0.9903 -3.5742
   13MOL   H79313777   4.783   6.514   6.823  0.4506 -0.5980 -0.9930
   13MOL   H79413778   4.486   6.442   6.648  0.3798  1.7328 -0.8334
   13MOL   H79513779   4.295   6.437   6.511  0.7916 -0.6584  0.7698
   13MOL   H79613780   3.825   6.618   6.535  0.4599  0.1558 -0.7753
   13MOL   H79713781   3.905   6.740   6.625 -2.0621 -0.4861  1.1634
   13MOL   H79813782   3.900   6.585   6.691 -0.8007  1.3854  0.9228
   13MOL   H79913783   4.168   6.686   6.375  1.0468  0.2303  0.9911
   13MOL   H80013784   3.998   6.677   6.339  0.3628 -0.1261 -0.7972
   13MOL   H80113785   4.072   6.795   6.453  2.2143  0.7301 -2.8650
   13MOL   H80213786   4.112   6.470   6.270  1.9519 -2.7081 -0.4520
   13MOL   H80313787   4.041   6.278   6.176 -0.2382 -0.5619  0.2851
   13MOL   H80413788   3.829   6.169   6.537  1.0481 -2.5071 -1.3907
   13MOL   H80513789   3.912   6.385   6.647 -3.0917  2.0327 -0.9882
   13MOL   H80613790   4.105   6.739   6.759 -1.1290  2.0811 -3.7198
   13MOL   H80713791   4.312   6.740   6.897 -0.6968  2.1780 -1.2956
   13MOL   H80813792   4.498   6.837   6.853  0.2040  2.5817  0.1957
   13MOL   H80913793   4.685   7.004   6.808  0.6830 -0.1595  0.2013
   13MOL   H81013794   5.172   6.828   6.617  0.4502 -1.2657 -0.8990
   13MOL   H81113795   5.229   6.836   6.392 -0.7309 -0.1370 -2.9068
   13MOL   C81213796   3.919   6.020   6.190 -0.1947  0.0128 -0.7885
   13MOL   C81313797   3.893   6.085   6.069  0.6916 -0.1806  0.3933
   13MOL   C81413798   3.918   6.023   5.946 -1.1758  0.4949 -0.3505
   13MOL   C81513799   3.984   5.900   5.941  0.7942  0.7270 -0.2932
   13MOL   S81613800   3.992   5.810   5.788  0.2558  0.1300  0.1586
   13MOL   O81713801   3.867   5.818   5.709  0.8001 -0.1522  0.0150
   13MOL   O81813802   4.048   5.677   5.816  0.1526  0.0120  0.0600
   13MOL   C81913803   4.121   5.901   5.691 -0.2944  0.3136 -0.1151
   13MOL   C82013804   4.255   5.890   5.739  0.4031  0.4341 -0.6562
   13MOL   C82113805   4.356   5.968   5.683 -0.1336 -0.5399  0.4390
   13MOL   C82213806   4.324   6.055   5.576  0.0018  0.3817 -0.0741
   13MOL   O82313807   4.418   6.146   5.530  0.0234 -0.4839  0.6635
   13MOL   C82413808   4.404   6.285   5.550 -0.6136 -0.3402 -0.7818
   13MOL   C82513809   4.469   6.374   5.464  0.3494  0.0536  0.1718
   13MOL   C82613810   4.474   6.510   5.486 -0.0560  0.2549  0.2739
   13MOL   C82713811   4.398   6.567   5.590  0.8477  0.1236  0.1373
   13MOL   C82813812   4.391   6.721   5.607  0.4585  0.2866 -0.0097
   13MOL   C82913813   4.366   6.752   5.756  0.0943 -0.1312  0.2130
   13MOL   C83013814   4.526   6.784   5.567  0.1335 -0.1699  0.4191
   13MOL   C83113815   4.275   6.783   5.528 -0.4533  0.4705 -0.2722
   13MOL   C83213816   4.236   6.912   5.554  0.7563 -0.2292 -0.2085
   13MOL   C83313817   4.137   6.976   5.479  0.5053 -0.5009  0.0494
   13MOL   C83413818   4.077   6.900   5.374 -0.6196 -0.5826  0.2599
   13MOL   O83513819   3.998   6.962   5.280  0.2191  0.4447  0.2215
   13MOL   C83613820   4.103   6.766   5.362  0.0729 -0.3754 -0.6709
   13MOL   C83713821   4.208   6.711   5.433  0.4173 -0.4287 -0.4538
   13MOL   C83813822   4.329   6.479   5.677 -0.1677 -0.2455  0.1465
   13MOL   C83913823   4.335   6.343   5.656 -0.4594 -0.4312  0.5881
   13MOL   C84013824   4.198   6.051   5.517  0.2070 -0.6141 -0.2880
   13MOL   C84113825   4.094   5.971   5.568  0.2978  0.4733  0.1101
   13MOL   C84213826   4.015   5.837   6.068  0.4042  0.1858  0.6151
   13MOL   C84313827   3.989   5.898   6.194  0.1696  0.0763 -0.1984
   13MOL   H84413828   3.853   6.185   6.068 -0.6674 -0.7128 -0.9549
   13MOL   H84513829   3.876   6.070   5.858  0.4057  2.4060 -0.1316
   13MOL   H84613830   4.266   5.814   5.815  0.7052 -1.1603 -2.2294
   13MOL   H84713831   4.460   5.958   5.713  0.1072  0.7439  0.0613
   13MOL   H84813832   4.512   6.343   5.370 -1.6820 -0.3011 -0.6695
   13MOL   H84913833   4.525   6.576   5.418  0.6288  0.1386  0.6717
   13MOL   H85013834   4.436   6.698   5.820 -1.9067 -2.6386  0.3921
   13MOL   H85113835   4.269   6.713   5.787 -0.0712  0.0450 -0.0760
   13MOL   H85213836   4.363   6.858   5.782 -0.6552 -0.3956  1.2588
   13MOL   H85313837   4.526   6.889   5.597 -1.2225  0.1064 -0.5350
   13MOL   H85413838   4.615   6.748   5.620  0.2617 -0.6339 -0.1112
   13MOL   H85513839   4.550   6.779   5.461  0.3641 -0.3949  0.4805
   13MOL   H85613840   4.275   6.986   5.622 -1.8725  0.2552  0.8412
   13MOL   H85713841   4.106   7.079   5.486  3.4711  0.3628  1.0065
   13MOL   H85813842   4.035   6.718   5.293  0.0863  2.2460 -2.5813
   13MOL   H85913843   4.234   6.608   5.411 -1.4122 -1.0508  0.1871
   13MOL   H86013844   4.275   6.527   5.757 -1.0699  1.0876 -1.2407
   13MOL   H86113845   4.278   6.279   5.722 -1.5647  1.0598  1.1133
   13MOL   H86213846   4.186   6.104   5.424 -1.5892  2.1916  1.4915
   13MOL   H86313847   3.998   5.962   5.519  0.2768  1.1843  0.0167
   13MOL   H86413848   4.057   5.737   6.068 -1.6763 -0.7137  0.5835
   13MOL   H86513849   4.008   5.852   6.290  3.4758 -2.3764 -1.9120
   13MOL   C86613850   3.868   6.977   5.312  0.2760 -0.0913 -0.1177
   13MOL   C86713851   3.816   7.079   5.395  0.2821 -0.2366 -0.3396
   13MOL   C86813852   3.676   7.101   5.402 -0.2939 -0.0857  0.0480
   13MOL   C86913853   3.585   7.018   5.330 -0.2284 -0.5876  0.4795
   13MOL   S87013854   3.403   7.047   5.359  0.0140 -0.0214 -0.0946
   13MOL   O87113855   3.389   7.191   5.389  0.0320 -0.1406 -0.0223
   13MOL   O87213856   3.359   6.952   5.458 -0.4338  0.8058 -0.4208
   13MOL   C87313857   3.325   7.031   5.195  0.9588  1.1038 -0.1430
   13MOL   C87413858   3.393   7.027   5.068  0.3081  0.2454 -0.4275
   13MOL   C87513859   3.311   7.016   4.950 -1.4114  0.3168 -0.0280
   13MOL   C87613860   3.170   7.013   4.955 -0.5787  0.1579  0.4612
   13MOL   O87713861   3.093   7.011   4.842 -0.3670  0.4002  0.5592
   13MOL   C87813862   3.053   6.890   4.798  0.0186  0.2869 -0.4318
   13MOL   C87913863   3.146   6.793   4.752 -0.5231  0.6690  0.0275
   13MOL   C88013864   3.108   6.665   4.719 -0.7189  0.1712 -0.1061
   13MOL   C88113865   2.969   6.627   4.729 -0.0348  0.3438 -1.0708
   13MOL   C88213866   2.915   6.485   4.714  1.0030 -0.4316 -0.0438
   13MOL   C88313867   3.012   6.405   4.638  0.0270 -0.7691  1.1033
   13MOL   C88413868   2.906   6.417   4.853  0.1165 -0.0343 -0.7087
   13MOL   C88513869   2.787   6.475   4.625  0.2235  0.4910 -0.4862
   13MOL   C88613870   2.678   6.397   4.674  0.1018 -0.0524 -0.0250
   13MOL   C88713871   2.575   6.362   4.582 -0.2748 -0.3664  0.0930
   13MOL   C88813872   2.566   6.411   4.448  0.7627 -0.2525 -0.6109
   13MOL   O88913873   2.475   6.352   4.365 -0.1989 -0.1479 -0.2737
   13MOL   C89013874   2.665   6.503   4.410 -0.1463 -0.2594  0.0326
   13MOL   C89113875   2.782   6.529   4.493  0.4725  0.6364 -0.3474
   13MOL   C89213876   2.875   6.719   4.781 -0.2099  0.1156  0.4022
   13MOL   C89313877   2.921   6.854   4.815 -0.2317  0.7686 -0.2486
   13MOL   C89413878   3.106   7.015   5.080  0.3629 -0.3784 -0.3259
   13MOL   C89513879   3.182   7.029   5.204  0.3956 -0.3605  0.4126
   13MOL   C89613880   3.630   6.911   5.251 -0.2175  0.9825 -0.1099
   13MOL   C89713881   3.775   6.890   5.243 -0.3915 -0.2104  0.1465
   13MOL   H89813882   3.875   7.142   5.460 -1.6893  2.1603 -0.7858
   13MOL   H89913883   3.638   7.181   5.463 -0.0680  1.0974 -1.3186
   13MOL   H90013884   3.500   7.021   5.058  0.6970  2.5551  1.9151
   13MOL   H90113885   3.366   7.007   4.857 -0.7813  1.0941  0.2659
   13MOL   H90213886   3.244   6.825   4.720  0.6390 -1.1863  1.6475
   13MOL   H90313887   3.185   6.596   4.688 -0.7117 -1.0721  2.4705
   13MOL   H90413888   2.991   6.300   4.618  1.5022 -0.9972  0.6334
   13MOL   H90513889   3.106   6.405   4.693  1.7558 -2.8702 -1.6981
   13MOL   H90613890   3.041   6.451   4.543  0.5011 -2.1159  0.5714
   13MOL   H90713891   3.003   6.424   4.903  0.9342 -0.8601 -2.1220
   13MOL   H90813892   2.832   6.459   4.920 -0.1587 -1.6538  0.0281
   13MOL   H90913893   2.889   6.310   4.844 -1.6092  0.0351  1.3075
   13MOL   H91013894   2.675   6.359   4.775 -0.1575 -0.6227 -0.2470
   13MOL   H91113895   2.501   6.296   4.624 -1.8901  0.9172 -0.6577
   13MOL   H91213896   2.669   6.539   4.308  0.0338 -0.1797  0.0663
   13MOL   H91313897   2.864   6.587   4.455  1.0921  1.4743  2.1934
   13MOL   H91413898   2.772   6.688   4.789 -0.7428  1.2383 -1.7912
   13MOL   H91513899   2.851   6.928   4.853  0.0031 -0.1001  1.9400
   13MOL   H91613900   2.998   7.012   5.078  0.3931 -1.5350 -0.7740
   13MOL   H91713901   3.144   7.016   5.304 -0.7666 -0.7359 -0.0781
   13MOL   H91813902   3.568   6.840   5.197  1.8651  0.6570 -2.1325
   13MOL   H91913903   3.806   6.818   5.169  0.9315  0.1635  0.3348
   13MOL   C92013904   2.413   6.426   4.273 -0.3202 -0.5994  0.2353
   13MOL   C92113905   2.463   6.422   4.142  0.4819  0.2704  0.1051
   13MOL   C92213906   2.405   6.506   4.047 -0.5420  0.4813  0.4435
   13MOL   C92313907   2.296   6.591   4.088 -0.2168 -0.6109 -0.4962
   13MOL   S92413908   2.231   6.709   3.960  0.2203  0.5240  0.3432
   13MOL   O92513909   2.321   6.682   3.847  0.4209 -0.3190 -0.5330
   13MOL   O92613910   2.220   6.845   4.015  0.4336  0.2983  0.1541
   13MOL   C92713911   2.071   6.659   3.901 -0.0364  0.3965 -0.1582
   13MOL   C92813912   1.994   6.558   3.963 -0.5017 -0.0459  1.0310
   13MOL   C92913913   1.868   6.522   3.917 -0.1281  0.8675  0.0480
   13MOL   C93013914   1.811   6.585   3.804 -0.0029 -0.2279 -0.3058
   13MOL   O93113915   1.685   6.552   3.757 -0.4715  0.6603  0.1109
   13MOL   C93213916   1.685   6.471   3.653  0.6175 -0.3489 -0.1642
   13MOL   C93313917   1.690   6.329   3.668  0.2091  0.1270  0.0311
   13MOL   C93413918   1.663   6.248   3.563  0.4332  0.3217  0.1006
   13MOL   C93513919   1.652   6.296   3.428 -0.2286 -0.1609 -0.3015
   13MOL   C93613920   1.615   6.198   3.318 -0.4442 -0.1987  0.0488
   13MOL   C93713921   1.559   6.273   3.200  0.3957 -0.4921  0.0837
   13MOL   C93813922   1.743   6.129   3.268 -0.9223  0.3714 -0.0096
   13MOL   C93913923   1.507   6.101   3.362 -0.7925  0.3492  0.5182
   13MOL   C94013924   1.512   5.963   3.325 -0.0520 -0.4338  0.3796
   13MOL   C94113925   1.418   5.875   3.366 -0.7080  0.2486 -0.2309
   13MOL   C94213926   1.302   5.925   3.431 -0.0548 -0.3354 -0.2496
   13MOL   O94313927   1.193   5.847   3.465  0.2997  0.0761 -0.0212
   13MOL   C94413928   1.290   6.061   3.461 -0.6870  0.6936  0.2323
   13MOL   C94513929   1.390   6.148   3.425  0.0437  0.1148  0.6840
   13MOL   C94613930   1.668   6.434   3.414  0.0593  0.0918 -0.4503
   13MOL   C94713931   1.700   6.525   3.520  0.1762  0.1700 -0.2831
   13MOL   C94813932   1.882   6.692   3.745 -0.4968 -0.6519  0.6492
   13MOL   C94913933   2.010   6.729   3.786 -0.1085 -0.4349 -0.4525
   13MOL   C95013934   2.236   6.581   4.215 -0.3262 -0.5055 -0.0651
   13MOL   C95113935   2.295   6.499   4.310  0.3951  0.1418  0.0679
   13MOL   H95213936   2.540   6.357   4.103 -0.8562 -1.1823 -0.1684
   13MOL   H95313937   2.453   6.507   3.950 -0.2552 -0.1697  0.5799
   13MOL   H95413938   2.037   6.510   4.049 -0.3961  2.6339  2.5205
   13MOL   H95513939   1.803   6.459   3.976  0.2507  0.4396  0.0121
   13MOL   H95613940   1.697   6.282   3.765 -1.0985 -0.6912 -0.2646
   13MOL   H95713941   1.663   6.144   3.591 -0.2832  0.3339  0.1309
   13MOL   H95813942   1.525   6.198   3.129  1.5496 -0.7636 -0.1928
   13MOL   H95913943   1.634   6.335   3.151 -0.2157  0.9491  0.9187
   13MOL   H96013944   1.473   6.334   3.231  0.2309 -1.3242  1.2856
   13MOL   H96113945   1.821   6.200   3.238 -1.6610  0.0425 -2.8024
   13MOL   H96213946   1.791   6.062   3.339  0.3275 -0.3740 -1.5340
   13MOL   H96313947   1.717   6.066   3.184 -2.5183 -0.1894  0.8791
   13MOL   H96413948   1.591   5.925   3.262  1.1594  3.3382 -0.5074
   13MOL   H96513949   1.431   5.770   3.342 -1.7431 -0.9716  4.1100
   13MOL   H96613950   1.204   6.097   3.515 -0.3199  4.6032 -1.6435
   13MOL   H96713951   1.391   6.254   3.445 -1.5812  0.8503 -2.6855
   13MOL   H96813952   1.678   6.465   3.311  0.0668  0.0005 -0.4774
   13MOL   H96913953   1.720   6.628   3.495  2.0290  0.1990  1.2318
   13MOL   H97013954   1.844   6.735   3.653  0.0567 -3.6519 -1.0514
   13MOL   H97113955   2.068   6.799   3.728 -1.7600  0.0737 -1.5364
   13MOL   H97213956   2.149   6.641   4.236 -0.5969 -0.7627 -0.4406
   13MOL   H97313957   2.252   6.476   4.407  0.4047 -1.7430 -0.3448
   13MOL   C97413958   1.200   5.713   3.450 -0.0626  0.4318  0.8488
   13MOL   C97513959   1.254   5.624   3.542 -1.2230 -0.8985 -0.5036
   13MOL   C97613960   1.252   5.488   3.539  0.5904 -0.3829  0.7163
   13MOL   C97713961   1.188   5.427   3.426 -0.4795  0.2255 -1.0250
   13MOL   S97813962   1.174   5.254   3.412  0.0695  0.0580  0.0694
   13MOL   O97913963   1.171   5.205   3.550  0.1321  0.4054  0.2698
   13MOL   O98013964   1.284   5.208   3.326 -0.2297  0.1241  0.2819
   13MOL   C98113965   1.014   5.228   3.332  0.7943 -0.4568  0.6870
   13MOL   C98213966   0.901   5.197   3.410 -0.4315 -0.5228 -0.3392
   13MOL   C98313967   0.773   5.186   3.354 -0.2285  0.1621 -0.1695
   13MOL   C98413968   0.755   5.199   3.214 -0.5221 -0.0682  0.2293
   13MOL   O98513969   0.627   5.183   3.161  0.3289 -0.0972  0.0405
   13MOL   C98613970   0.604   5.073   3.082  0.3327 -0.8869 -0.5360
   13MOL   C98713971   0.596   4.945   3.141  0.4597 -0.6184 -0.1104
   13MOL   C98813972   0.558   4.832   3.064  0.0997  0.3242  0.2364
   13MOL   C98913973   0.529   4.842   2.924 -0.7858 -0.0605 -0.2556
   13MOL   C99013974   0.487   4.715   2.836  0.2311 -0.4686  0.4345
   13MOL   C99113975   0.419   4.607   2.926  0.0689 -0.3681 -0.1421
   13MOL   C99213976   0.377   4.764   2.745 -0.1645  0.3632 -0.2077
   13MOL   C99313977   0.601   4.654   2.759  0.5302  0.4881  0.2094
   13MOL   C99413978   0.591   4.585   2.633  0.1422  1.0125  0.5837
   13MOL   C99513979   0.704   4.547   2.559 -0.2379  0.0117 -0.0388
   13MOL   C99613980   0.831   4.559   2.613  0.1006  0.7279  0.0680
   13MOL   O99713981   0.934   4.514   2.542 -0.4400 -0.0488  0.3486
   13MOL   C99813982   0.846   4.616   2.742 -0.7083 -0.1432  0.1830
   13MOL   C99913983   0.733   4.668   2.807 -0.0760 -0.0370  0.0250
   13MOL     C113984   0.548   4.972   2.864  0.0608  0.5505 -0.4856
   13MOL     C213985   0.582   5.087   2.944 -0.3031 -0.0250  0.2299
   13MOL     C313986   0.865   5.228   3.132  0.3700 -0.1447 -0.0365
   13MOL     C413987   0.995   5.230   3.187  0.1562  0.2754  0.2435
   13MOL     C513988   1.130   5.509   3.328  0.0066 -0.1073 -0.0630
   13MOL     C613989   1.143   5.652   3.338  0.1463  0.1891 -0.4056
   13MOL     H713990   1.298   5.672   3.628 -1.0207 -1.8536 -0.0591
   13MOL     H813991   1.305   5.433   3.615 -0.3297  1.4968  2.7797
   13MOL     H913992   0.920   5.185   3.516 -1.3405 -2.9873 -0.4036
   13MOL    H1013993   0.681   5.165   3.406  0.1898  0.1456  0.5706
   13MOL    H1113994   0.604   4.935   3.248 -0.3968 -2.0299 -0.1590
   13MOL    H1213995   0.551   4.741   3.122  3.7667 -1.5279 -2.0469
   13MOL    H1313996   0.329   4.644   2.976 -0.6033  0.7262 -2.1258
   13MOL    H1413997   0.489   4.573   3.003  0.3687 -0.6311 -0.5301
   13MOL    H1513998   0.382   4.521   2.870  0.1714 -0.7311  0.3445
   13MOL    H1613999   0.335   4.692   2.675 -1.4056  2.6290 -1.8590
   13MOL    H1714000   0.297   4.817   2.797 -2.6979 -1.2248 -2.3078
   13MOL    H1814001   0.405   4.844   2.676  1.1785  1.0784  1.1498
   13MOL    H1914002   0.498   4.572   2.578  0.3603 -0.1461  0.4625
   13MOL    H2014003   0.694   4.496   2.464  1.1671 -1.1605  0.4332
   13MOL    H2114004   0.943   4.627   2.789 -0.4646 -0.3065 -0.2852
   13MOL    H2214005   0.739   4.717   2.904  1.2523 -1.2886  0.6077
   13MOL    H2314006   0.537   4.985   2.757 -2.5830 -0.0613 -0.3135
   13MOL    H2414007   0.611   5.184   2.906 -0.9942  0.9545  2.1528
   13MOL    H2514008   0.844   5.254   3.029 -0.7478 -1.3623 -0.1315
   13MOL    H2614009   1.085   5.250   3.131  1.0789  1.8349  2.2247
   13MOL    H2714010   1.067   5.458   3.256  1.2457 -0.9908 -0.5538
   13MOL    H2814011   1.080   5.716   3.278 -0.5194 -0.8853 -0.8705
   13MOL    C2914012   0.993   4.594   2.447  0.2758  0.1449 -0.4882
   13MOL    C3014013   0.958   4.734   2.437 -0.2460  0.3362  0.7710
   13MOL    C3114014   1.025   4.814   2.343 -0.2944 -0.5716  0.4424
   13MOL    C3214015   1.125   4.765   2.260  0.5216  0.0638 -0.2934
   13MOL    S3314016   1.189   4.871   2.130 -0.3966 -0.4913  0.1501
   13MOL    O3414017   1.065   4.899   2.052 -0.1894 -0.2338 -0.0261
   13MOL    O3514018   1.296   4.798   2.064 -0.5441  0.6085 -0.3328
   13MOL    C3614019   1.258   5.023   2.196 -0.1617 -0.0071 -0.6559
   13MOL    C3714020   1.190   5.144   2.186  0.6218  0.0305  0.3504
   13MOL    C3814021   1.243   5.262   2.255 -0.5085  0.6398 -0.2758
   13MOL    C3914022   1.373   5.265   2.307 -0.0798 -0.5616  0.3138
   13MOL    O4014023   1.421   5.373   2.367 -0.0470 -0.5698 -0.6653
   13MOL    C4114024   1.411   5.361   2.502 -0.1609  0.6142 -0.2770
   13MOL    C4214025   1.518   5.300   2.574 -0.0178 -0.2580 -0.9539
   13MOL    C4314026   1.511   5.291   2.715 -0.4040  0.5833  0.4721
   13MOL    C4414027   1.397   5.340   2.781 -0.4596  0.4689  0.3008
   13MOL    C4514028   1.383   5.326   2.935 -0.6791 -1.1638  0.0806
   13MOL    C4614029   1.260   5.407   2.987 -0.6410 -0.0397 -0.3862
   13MOL    C4714030   1.357   5.175   2.958 -0.1264  0.0115  0.0668
   13MOL    C4814031   1.513   5.373   3.011 -0.1724 -0.3544  0.8071
   13MOL    C4914032   1.571   5.503   2.989 -0.1615 -0.2676 -0.4437
   13MOL    C5014033   1.692   5.543   3.051 -0.5355  0.0896 -0.0170
   13MOL    C5114034   1.759   5.450   3.135 -0.4271 -0.6728  0.7527
   13MOL    O5214035   1.878   5.485   3.200  0.0165 -0.3752  0.2544
   13MOL    C5314036   1.696   5.334   3.165  0.2771 -0.0265  0.8436
   13MOL    C5414037   1.580   5.287   3.094  0.2410 -0.7523  0.5411
   13MOL    C5514038   1.293   5.397   2.699 -0.2366  0.4173 -0.0561
   13MOL    C5614039   1.294   5.405   2.563  0.5654  0.2147  0.7665
   13MOL    C5714040   1.447   5.143   2.303 -0.1103  0.0941 -0.0385
   13MOL    C5814041   1.386   5.020   2.259 -0.0043 -0.3018  0.0772
   13MOL    C5914042   1.158   4.627   2.266  0.2824 -0.0573  0.5879
   13MOL    C6014043   1.093   4.544   2.358  0.1776  0.1092  0.1014
   13MOL    H6114044   0.885   4.785   2.499 -0.3253 -0.4400  1.3241
   13MOL    H6214045   0.991   4.916   2.334  0.0599 -0.6296 -2.1412
   13MOL    H6314046   1.088   5.132   2.154  0.2953 -0.2644  1.4916
   13MOL    H6414047   1.190   5.356   2.246  2.7081  2.4312 -0.9614
   13MOL    H6514048   1.609   5.256   2.535  0.2492  0.3322 -0.9989
   13MOL    H6614049   1.595   5.251   2.768 -0.1119  2.3749  1.4152
   13MOL    H6714050   1.256   5.413   3.096  2.2680  1.0492 -0.3142
   13MOL    H6814051   1.169   5.360   2.950  0.4644 -1.8189 -0.9325
   13MOL    H6914052   1.251   5.512   2.962  0.3485  0.1527  0.0704
   13MOL    H7014053   1.254   5.155   2.926 -0.5479  1.4756  0.4868
   13MOL    H7114054   1.414   5.105   2.898 -0.1196  0.1280 -0.0614
   13MOL    H7214055   1.360   5.146   3.063 -0.8352 -0.7350 -0.1036
   13MOL    H7314056   1.512   5.572   2.930 -0.7367 -1.4624 -1.2920
   13MOL    H7414057   1.729   5.643   3.035 -0.0075 -0.0951  0.0460
   13MOL    H7514058   1.739   5.262   3.233  2.6130 -0.2349 -0.7982
   13MOL    H7614059   1.556   5.187   3.126 -2.1069 -0.9148 -1.5656
   13MOL    H7714060   1.197   5.426   2.739  0.1601 -0.7310  1.8304
   13MOL    H7814061   1.205   5.429   2.506  1.3445 -1.3187 -1.1556
   13MOL    H7914062   1.547   5.136   2.345  0.6167 -0.2017 -1.7693
   13MOL    H8014063   1.443   4.928   2.263 -0.2815 -0.4341  1.5100
   13MOL    H8114064   1.230   4.580   2.201 -0.7471  1.1762 -1.4811
   13MOL    H8214065   1.109   4.437   2.355 -2.8079 -0.3602 -1.4437
   13MOL    H8314066   1.942   5.417   3.186 -1.0946 -1.5455  0.6782
   14MOL     C114067   7.399   5.749   1.287  0.7112 -0.5024  0.1203
   14MOL     C214068   7.282   5.790   1.363 -0.4597 -0.2676 -0.9247
   14MOL     C314069   7.307   5.848   1.490  0.2143  0.8848  0.6319
   14MOL     C414070   7.440   5.850   1.542  0.3342  0.5851 -0.5383
   14MOL     S514071   7.464   5.921   1.697  0.0699  0.2523 -0.1947
   14MOL     O614072   7.517   5.817   1.787  0.0938  0.1114  0.0074
   14MOL     O714073   7.342   5.993   1.744 -0.5349  0.2448 -0.5088
   14MOL     C814074   7.592   6.037   1.662 -0.0672  0.1957  0.5064
   14MOL     C914075   7.560   6.155   1.598  0.4747  0.4819  0.6525
   14MOL    C1014076   7.660   6.244   1.566  0.4314 -0.3948 -0.2802
   14MOL    C1114077   7.790   6.212   1.596 -0.2900 -0.0070  0.3178
   14MOL    O1214078   7.896   6.291   1.548 -0.0686  0.0584  0.4483
   14MOL    C1314079   7.912   6.289   1.413  0.8048 -0.2209 -0.5399
   14MOL    C1414080   7.920   6.169   1.337  0.9318 -0.4515  0.2620
   14MOL    C1514081   7.967   6.179   1.205 -0.3673 -0.3031  0.5767
   14MOL    C1614082   7.977   6.307   1.142  0.1641 -0.0893  0.1150
   14MOL    C1714083   8.025   6.333   1.002 -0.1127 -0.2138  0.3270
   14MOL    C1814084   8.051   6.211   0.919  0.2381  0.2702 -0.7709
   14MOL    C1914085   7.907   6.400   0.927  0.4941  0.0228 -0.0235
   14MOL    C2014086   8.148   6.419   0.996 -0.5762 -0.6822 -0.0929
   14MOL    C2114087   8.158   6.548   0.941 -0.0879 -0.2163 -0.1818
   14MOL    C2214088   0.032   6.609   0.934  0.2967 -0.0753 -0.3915
   14MOL    C2314089   0.144   6.553   0.993 -0.0115  1.1971  0.0312
   14MOL    O2414090   0.261   6.625   0.999  0.1069 -0.0245 -1.1506
   14MOL    C2514091   0.135   6.429   1.048 -0.5526  0.2405 -0.3608
   14MOL    C2614092   0.013   6.364   1.057 -0.5772 -0.2310  1.1492
   14MOL    C2714093   7.952   6.424   1.218  0.4759  0.6924  0.1190
   14MOL    C2814094   7.925   6.414   1.354 -0.0470 -0.5522 -0.6838
   14MOL    C2914095   7.827   6.097   1.672 -0.5629 -0.2235  0.3694
   14MOL    C3014096   7.728   6.010   1.707  0.1988  0.4507 -0.0669
   14MOL    C3114097   7.549   5.798   1.467  0.1690  0.9453  0.1057
   14MOL    C3214098   7.528   5.752   1.337 -0.7422 -0.0810  0.2432
   14MOL    H3314099   7.184   5.782   1.317 -0.1558  0.0412 -1.6356
   14MOL    H3414100   7.222   5.890   1.542 -0.6170 -1.8718  1.6032
   14MOL    H3514101   7.456   6.167   1.573  1.2015 -0.2432 -2.9807
   14MOL    H3614102   7.634   6.329   1.504 -0.1697 -1.4615 -1.5031
   14MOL    H3714103   7.904   6.073   1.382 -0.1864  0.5536  2.0309
   14MOL    H3814104   7.982   6.087   1.151 -0.9278  0.1468 -0.3553
   14MOL    H3914105   8.099   6.242   0.827  1.3985  1.6336  0.2620
   14MOL    H4014106   7.963   6.155   0.888  0.4784 -0.6704  0.2103
   14MOL    H4114107   8.119   6.136   0.960 -1.6070 -1.2270 -0.3842
   14MOL    H4214108   7.938   6.411   0.823 -0.2182  2.1829 -0.0293
   14MOL    H4314109   7.815   6.342   0.933  1.2732 -1.0025  3.3297
   14MOL    H4414110   7.883   6.502   0.958 -1.4514  0.0005 -1.3916
   14MOL    H4514111   8.073   6.600   0.899  0.1119 -0.6586 -1.1555
   14MOL    H4614112   0.046   6.710   0.899 -0.2615  0.4554  0.8805
   14MOL    H4714113   0.225   6.379   1.082 -1.0645 -0.8140 -0.5315
   14MOL    H4814114   0.016   6.271   1.112 -2.6262 -0.1984  1.3836
   14MOL    H4914115   7.976   6.523   1.182  2.0042  1.0876  2.1464
   14MOL    H5014116   7.932   6.499   1.420 -1.1117 -1.3232  0.4540
   14MOL    H5114117   7.930   6.080   1.700  0.4136  1.5485 -1.9528
   14MOL    H5214118   7.750   5.918   1.759 -0.9958  1.0602  1.5707
   14MOL    H5314119   7.649   5.795   1.509  1.2043 -2.1289 -2.4029
   14MOL    H5414120   7.615   5.728   1.277 -1.4188 -1.8196 -0.0624
   14MOL    H5514121   7.376   5.709   1.189  0.0726  3.2296 -1.3194
   14MOL    C5614122   0.288   6.694   1.116  0.1352  0.5206  0.2818
   14MOL    C5714123   0.208   6.801   1.162  0.0772 -0.5248  0.0411
   14MOL    C5814124   0.243   6.876   1.279 -0.2347  0.2732  0.3634
   14MOL    C5914125   0.349   6.825   1.361  0.3089  0.0978  0.1552
   14MOL    S6014126   0.390   6.911   1.511  0.0193  0.3351 -0.5339
   14MOL    O6114127   0.331   6.845   1.628  0.2625 -0.2948  0.6738
   14MOL    O6214128   0.354   7.051   1.483 -0.2054 -0.6643  0.0593
   14MOL    C6314129   0.565   6.896   1.523  0.5864  0.4120  0.2847
   14MOL    C6414130   0.625   6.791   1.591  0.0939 -0.4696 -0.2379
   14MOL    C6514131   0.761   6.766   1.577  0.5863  0.0836 -0.6525
   14MOL    C6614132   0.842   6.851   1.499  0.1692  0.8509 -0.5584
   14MOL    O6714133   0.976   6.821   1.492  0.9790 -0.2365 -0.5179
   14MOL    C6814134   1.041   6.814   1.368  1.0858  0.9647  0.7793
   14MOL    C6914135   1.171   6.868   1.355 -0.5981 -0.1836 -0.4627
   14MOL    C7014136   1.235   6.872   1.233  0.0635  0.5636  0.0335
   14MOL    C7114137   1.180   6.809   1.118 -0.2324 -0.7571 -0.3480
   14MOL    C7214138   1.260   6.808   0.986  0.0726  0.2019 -0.1116
   14MOL    C7314139   1.210   6.727   0.864  0.5674 -0.2351  0.3141
   14MOL    C7414140   1.270   6.958   0.939 -0.4351  0.8061 -0.8259
   14MOL    C7514141   1.398   6.748   1.020  0.5768 -0.1843 -0.3572
   14MOL    C7614142   1.511   6.829   1.036  0.3802 -0.6250 -0.2943
   14MOL    C7714143   1.640   6.775   1.070 -0.5400  0.2202  0.4494
   14MOL    C7814144   1.654   6.636   1.067  0.0894 -0.1999  0.2770
   14MOL    O7914145   1.774   6.581   1.085  0.1328  0.0840 -0.3962
   14MOL    C8014146   1.539   6.554   1.053 -0.3155  0.2572  0.5189
   14MOL    C8114147   1.412   6.607   1.028  0.4230 -0.5010 -1.1203
   14MOL    C8214148   1.046   6.767   1.122  0.3036 -0.5008 -0.3513
   14MOL    C8314149   0.981   6.764   1.246 -0.5350 -0.6239 -0.3277
   14MOL    C8414150   0.786   6.961   1.441 -0.3011 -0.0387 -0.7209
   14MOL    C8514151   0.645   6.978   1.449 -0.2853 -0.0846 -0.0018
   14MOL    C8614152   0.423   6.713   1.317  0.2151  0.5501 -0.4061
   14MOL    C8714153   0.392   6.649   1.197 -0.5270  0.6486 -1.5154
   14MOL    H8814154   0.125   6.834   1.102 -1.2310 -0.9570  1.5742
   14MOL    H8914155   0.182   6.958   1.315  1.9683  2.4307 -0.6981
   14MOL    H9014156   0.564   6.728   1.655 -0.7286  1.4823  0.9652
   14MOL    H9114157   0.812   6.680   1.619 -1.1741 -0.6067  0.0985
   14MOL    H9214158   1.222   6.905   1.443  3.0807 -1.2196 -2.0893
   14MOL    H9314159   1.336   6.911   1.228 -0.2000  1.0794 -1.5951
   14MOL    H9414160   1.178   6.625   0.885 -2.3305  0.6462  0.2808
   14MOL    H9514161   1.272   6.732   0.774 -0.5202 -0.7190 -0.4627
   14MOL    H9614162   1.113   6.762   0.829  1.5500  1.7321 -0.5327
   14MOL    H9714163   1.178   7.002   0.901 -1.6483  2.4467  3.7291
   14MOL    H9814164   1.311   7.026   1.014  0.5774  2.1475 -2.5347
   14MOL    H9914165   1.338   6.961   0.854  0.0386 -1.8913 -0.5757
   14MOL   H10014166   1.496   6.936   1.039  0.8307 -0.5521 -0.6424
   14MOL   H10114167   1.725   6.832   1.105 -0.0753 -0.4666  0.4439
   14MOL   H10214168   1.549   6.447   1.057  1.5518  0.1043 -4.5115
   14MOL   H10314169   1.330   6.538   1.012  0.3911 -0.4061 -1.3763
   14MOL   H10414170   0.999   6.731   1.032 -0.8181  0.7997 -0.3038
   14MOL   H10514171   0.880   6.730   1.268 -0.9963  0.9820  0.1395
   14MOL   H10614172   0.857   7.019   1.383  2.3811 -1.9218  0.5700
   14MOL   H10714173   0.591   7.046   1.385  0.9980  2.3165  1.3904
   14MOL   H10814174   0.496   6.667   1.382 -1.1234  0.1125  0.8178
   14MOL   H10914175   0.451   6.563   1.170  0.0961  0.8450 -0.7736
   14MOL   C11014176   1.803   6.538   1.215 -0.3469 -0.0966  0.4922
   14MOL   C11114177   1.788   6.403   1.259 -0.0928 -0.0233 -0.5021
   14MOL   C11214178   1.828   6.365   1.391  0.2398  0.8122 -0.3854
   14MOL   C11314179   1.888   6.459   1.476 -0.2768 -0.4630 -0.2534
   14MOL   S11414180   1.943   6.409   1.631 -0.0369  0.6407 -0.0516
   14MOL   O11514181   2.005   6.524   1.696 -0.4272  0.0538 -0.1944
   14MOL   O11614182   2.024   6.287   1.603 -0.2141 -0.5250 -0.1116
   14MOL   C11714183   1.793   6.346   1.717 -0.1339 -0.2861 -0.4565
   14MOL   C11814184   1.698   6.435   1.758  0.1797 -0.0208  0.0850
   14MOL   C11914185   1.581   6.397   1.827 -0.2542  0.5752 -0.0199
   14MOL   C12014186   1.551   6.261   1.831 -0.4747  0.0260  0.0368
   14MOL   O12114187   1.429   6.219   1.882  0.0366 -0.3916 -0.5719
   14MOL   C12214188   1.330   6.164   1.800  0.0826 -0.0400  0.3494
   14MOL   C12314189   1.198   6.197   1.824  1.4365  0.3377 -0.0948
   14MOL   C12414190   1.097   6.139   1.751  0.0436  0.7805 -0.0903
   14MOL   C12514191   1.125   6.035   1.663 -0.0103 -0.1404  0.2657
   14MOL   C12614192   1.014   5.961   1.591  0.6807 -0.6129 -0.2165
   14MOL   C12714193   0.926   6.060   1.520  0.8040  0.1759 -0.2030
   14MOL   C12814194   1.065   5.861   1.477  0.1556 -0.2652  0.1390
   14MOL   C12914195   0.929   5.878   1.689  0.5726 -0.3630 -0.1689
   14MOL   C13014196   0.992   5.835   1.807 -0.0718  0.2074  0.3288
   14MOL   C13114197   0.930   5.739   1.886 -0.5152  0.4712  0.4064
   14MOL   C13214198   0.794   5.710   1.869  0.6253 -0.5643  0.1725
   14MOL   O13314199   0.743   5.617   1.948 -0.1028  0.3582 -0.4416
   14MOL   C13414200   0.723   5.765   1.756 -0.0487 -0.5756  0.0404
   14MOL   C13514201   0.797   5.842   1.662 -0.9053 -0.6822  0.4750
   14MOL   C13614202   1.255   6.005   1.626  0.0384  0.5397  0.1096
   14MOL   C13714203   1.360   6.073   1.695 -0.5413 -0.1136 -0.1948
   14MOL   C13814204   1.653   6.165   1.801 -0.2698  0.7872 -0.1487
   14MOL   C13914205   1.772   6.208   1.733 -0.1742 -0.0866  0.0110
   14MOL   C14014206   1.894   6.592   1.435 -0.1701  0.3012 -0.4179
   14MOL   C14114207   1.844   6.634   1.310 -0.0944 -0.8483  0.0238
   14MOL   H14214208   1.757   6.319   1.198 -0.2963 -0.0373 -0.3797
   14MOL   H14314209   1.820   6.268   1.436 -0.1900  0.9834 -0.0879
   14MOL   H14414210   1.717   6.541   1.746 -0.9238  0.3312  1.3176
   14MOL   H14514211   1.509   6.467   1.865  0.6090  1.8563 -0.6967
   14MOL   H14614212   1.174   6.268   1.902  2.4171  0.9015 -0.2976
   14MOL   H14714213   0.992   6.153   1.772 -0.1079  0.4983 -0.6676
   14MOL   H14814214   0.858   6.004   1.457 -0.5491  0.1122  1.2668
   14MOL   H14914215   0.994   6.124   1.463  0.1902  0.3143 -0.7852
   14MOL   H15014216   0.877   6.139   1.577 -0.4988  0.9855 -2.4099
   14MOL   H15114217   1.122   5.916   1.402 -2.3366  1.7398 -0.3495
   14MOL   H15214218   1.120   5.776   1.519 -2.0766 -3.4850 -3.0935
   14MOL   H15314219   0.987   5.813   1.417 -1.2233  2.1299 -0.0656
   14MOL   H15414220   1.097   5.857   1.820  0.4548 -2.6990  1.3932
   14MOL   H15514221   0.995   5.689   1.956  1.0162  0.1129 -1.2242
   14MOL   H15614222   0.617   5.750   1.742 -0.0628 -0.7906  0.3482
   14MOL   H15714223   0.746   5.887   1.578  0.7212 -2.4883 -1.5424
   14MOL   H15814224   1.280   5.931   1.551 -2.3976  0.7274 -0.9294
   14MOL   H15914225   1.455   6.035   1.661 -2.3944 -3.8053 -1.6010
   14MOL   H16014226   1.628   6.061   1.807  3.1327 -0.0382  0.8467
   14MOL   H16114227   1.838   6.131   1.696  0.6386  0.2742  0.6840
   14MOL   H16214228   1.928   6.670   1.502 -0.5781 -0.6928  0.9637
   14MOL   H16314229   1.841   6.739   1.285  0.5978 -0.8977 -0.2978
   14MOL   C16414230   0.696   5.655   2.071 -0.2540  0.2392  0.0532
   14MOL   C16514231   0.743   5.589   2.183 -0.5466 -0.0452 -0.4758
   14MOL   C16614232   0.692   5.618   2.310 -0.0634  1.1539 -0.2840
   14MOL   C16714233   0.618   5.736   2.326  0.4867 -0.0950  0.1545
   14MOL   S16814234   0.569   5.795   2.490 -0.0204  0.1005 -0.0091
   14MOL   O16914235   0.455   5.880   2.473 -0.2415  0.1375  0.4540
   14MOL   O17014236   0.691   5.834   2.564  0.5347 -0.3886  0.2839
   14MOL   C17114237   0.512   5.643   2.568 -0.9670 -0.1931 -0.6575
   14MOL   C17214238   0.389   5.595   2.532 -0.7317 -0.4143  0.5520
   14MOL   C17314239   0.329   5.491   2.603 -0.1976  0.7206 -0.1931
   14MOL   C17414240   0.394   5.435   2.715  0.0068  1.0986  0.2282
   14MOL   O17514241   0.346   5.324   2.770  0.2189  0.1852 -0.0004
   14MOL   C17614242   0.264   5.340   2.873 -0.4280 -0.0509 -0.1107
   14MOL   C17714243   0.303   5.393   2.995  0.3731 -0.1958  0.4714
   14MOL   C17814244   0.223   5.398   3.105  0.3677  0.4187 -0.1078
   14MOL   C17914245   0.086   5.352   3.101  0.2981  0.4273 -0.2943
   14MOL   C18014246   8.248   5.375   3.222  1.0819  0.5529  0.1115
   14MOL   C18114247   8.098   5.366   3.191 -0.5369  0.1171  0.7484
   14MOL   C18214248   0.019   5.263   3.321 -0.7146 -0.1362  0.4476
   14MOL   C18314249   0.020   5.515   3.286  0.1119 -0.6967 -0.3960
   14MOL   C18414250   0.064   5.527   3.420 -0.3984  0.3574  0.4307
   14MOL   C18514251   0.087   5.655   3.472  0.2104  0.1966  0.2114
   14MOL   C18614252   0.072   5.771   3.397 -0.9946  0.3190  0.2694
   14MOL   O18714253   0.089   5.895   3.451  0.0439 -0.4702 -0.0729
   14MOL   C18814254   0.030   5.759   3.264  0.3492 -0.2528  0.0161
   14MOL   C18914255   0.001   5.632   3.207 -1.3427 -0.4276 -0.0644
   14MOL   C19014256   0.045   5.294   2.979  0.6538 -0.0230 -0.4543
   14MOL   C19114257   0.126   5.290   2.865  0.1440 -0.1097 -0.2622
   14MOL   C19214258   0.520   5.485   2.760  0.4795  0.2818  0.0778
   14MOL   C19314259   0.576   5.591   2.683 -1.0469 -0.1800  0.3941
   14MOL   C19414260   0.570   5.803   2.212  0.0840 -0.0452  0.4208
   14MOL   C19514261   0.602   5.758   2.086 -0.3722 -0.1465  0.5295
   14MOL   H19614262   0.817   5.513   2.163 -1.8709 -1.5034  0.0194
   14MOL   H19714263   0.730   5.570   2.399 -0.1829  1.0533 -0.2866
   14MOL   H19814264   0.333   5.640   2.452  0.5751  0.6294  0.2015
   14MOL   H19914265   0.236   5.444   2.574  0.4866 -0.2228 -0.8874
   14MOL   H20014266   0.407   5.422   2.997  0.9782 -2.3161  0.6889
   14MOL   H20114267   0.253   5.432   3.202  0.7296  0.8442 -0.3664
   14MOL   H20214268   8.066   5.266   3.161 -2.9542  1.3139 -0.8780
   14MOL   H20314269   8.088   5.433   3.106  2.0809 -0.6171 -0.1574
   14MOL   H20414270   8.030   5.394   3.272  0.0921  0.7696  1.0511
   14MOL   H20514271   0.002   5.169   3.268  0.8257 -1.1136  1.6309
   14MOL   H20614272   0.124   5.262   3.353 -0.7519  0.3423  0.5856
   14MOL   H20714273   8.202   5.262   3.405 -0.1208 -1.7166  0.9501
   14MOL   H20814274   0.080   5.443   3.485  0.5207 -0.0545 -0.3191
   14MOL   H20914275   0.114   5.663   3.576  1.1902 -0.9520  0.0451
   14MOL   H21014276   0.010   5.847   3.205 -2.1663 -1.5323 -1.1270
   14MOL   H21114277   8.221   5.626   3.104 -1.6540 -0.9286  0.0602
   14MOL   H21214278   8.203   5.242   2.979  0.2457  0.6894  1.3375
   14MOL   H21314279   0.085   5.247   2.775 -2.9737 -0.3338  1.1733
   14MOL   H21414280   0.580   5.445   2.840  2.5756 -1.4738 -2.2890
   14MOL   H21514281   0.674   5.637   2.690 -0.5483 -0.9102 -1.3486
   14MOL   H21614282   0.497   5.883   2.216  0.0802 -0.0177 -0.1835
   14MOL   H21714283   0.547   5.800   2.003 -0.5106 -1.0061  0.1798
   14MOL   C21814284   0.207   5.923   3.519 -0.2369 -0.1243 -0.2083
   14MOL   C21914285   0.198   5.960   3.650 -0.2177 -0.1559  0.2722
   14MOL   C22014286   0.315   6.004   3.723  0.0131 -0.3333  0.3873
   14MOL   C22114287   0.441   5.999   3.657  0.3343 -0.8005  0.1959
   14MOL   S22214288   0.592   6.033   3.748  0.0384  0.3644  0.5253
   14MOL   O22314289   0.587   6.164   3.808  0.3701 -0.2220 -0.6403
   14MOL   O22414290   0.702   5.988   3.660 -0.5212  0.2172 -0.0567
   14MOL   C22514291   0.585   5.913   3.885 -0.0306 -0.3493  0.2488
   14MOL   C22614292   0.615   5.777   3.856  0.3855 -0.2961 -0.3806
   14MOL   C22714293   0.599   5.682   3.963  0.4399  0.0197 -0.6827
   14MOL   C22814294   0.552   5.719   4.092 -0.0997  0.0961  0.1081
   14MOL   O22914295   0.559   5.619   4.186  0.4341 -0.5161 -0.4608
   14MOL   C23014296   0.521   5.638   4.315  0.3728  1.0941  0.1722
   14MOL   C23114297   0.422   5.552   4.359  0.3034 -0.0450  0.2253
   14MOL   C23214298   0.375   5.566   4.492  0.3328  0.8000  0.3766
   14MOL   C23314299   0.430   5.657   4.586 -0.2063 -0.3657  0.1210
   14MOL   C23414300   0.382   5.665   4.728 -0.8239  0.4136  0.5359
   14MOL   C23514301   0.449   5.544   4.813  0.4997  0.2626  0.2305
   14MOL   C23614302   0.424   5.788   4.808 -0.3494  0.0846  0.1133
   14MOL   C23714303   0.223   5.658   4.730  0.5216  0.4023  0.5762
   14MOL   C23814304   0.147   5.767   4.678 -0.3661 -0.2044  0.5304
   14MOL   C23914305   0.014   5.780   4.661 -0.1881  0.0834 -0.6564
   14MOL   C24014306   8.192   5.667   4.693 -0.6733  0.2014  0.5636
   14MOL   O24114307   8.057   5.660   4.662  0.1000  0.2009 -0.1397
   14MOL   C24214308   0.001   5.554   4.748 -0.1495 -0.4529 -0.1509
   14MOL   C24314309   0.143   5.549   4.763  0.5228  0.2948  0.6199
   14MOL   C24414310   0.534   5.741   4.533 -0.2704 -0.1131 -0.0398
   14MOL   C24514311   0.581   5.731   4.406  0.2104 -0.4986 -0.2423
   14MOL   C24614312   0.518   5.847   4.114 -0.7660 -0.4834 -0.2204
   14MOL   C24714313   0.546   5.947   4.017 -0.7239  0.4270  0.2116
   14MOL   C24814314   0.449   5.957   3.527 -0.3206 -0.0136 -0.4839
   14MOL   C24914315   0.335   5.928   3.454 -0.3080 -0.6515  0.3385
   14MOL   H25014316   0.100   5.950   3.695  0.1441 -0.7898  0.9398
   14MOL   H25114317   0.300   6.037   3.825  1.5632  2.8086 -0.3143
   14MOL   H25214318   0.651   5.749   3.758  2.5586 -0.8484  0.5504
   14MOL   H25314319   0.635   5.580   3.955 -0.8492 -0.4808 -0.1719
   14MOL   H25414320   0.378   5.480   4.291 -1.2624  1.1648 -0.0615
   14MOL   H25514321   0.300   5.494   4.520  0.1368 -0.0368 -2.1820
   14MOL   H25614322   0.419   5.548   4.917 -1.7086 -0.2896 -0.3657
   14MOL   H25714323   0.558   5.550   4.804  0.6195  0.3496  1.7586
   14MOL   H25814324   0.427   5.443   4.779 -0.7189  0.1999  1.1642
   14MOL   H25914325   0.533   5.798   4.812 -0.1833 -1.7803  0.7680
   14MOL   H26014326   0.375   5.877   4.770 -0.3306 -0.3258 -0.8832
   14MOL   H26114327   0.382   5.785   4.909 -0.6320 -0.4224 -0.0184
   14MOL   H26214328   0.195   5.861   4.655  1.0470 -1.6177 -2.6501
   14MOL   H26314329   8.216   5.868   4.627 -2.4453 -0.2166  1.8446
   14MOL   H26414330   8.195   5.464   4.756  2.2049 -2.0267  0.2605
   14MOL   H26514331   0.189   5.458   4.799  0.1670 -0.9143 -1.8872
   14MOL   H26614332   0.588   5.818   4.586 -0.2614 -0.5857  0.6441
   14MOL   H26714333   0.669   5.789   4.382  0.3209 -0.0045  1.2982
   14MOL   H26814334   0.494   5.872   4.216  2.2267  1.4032  0.0924
   14MOL   H26914335   0.526   6.053   4.023  0.9280  0.8201 -0.7463
   14MOL   H27014336   0.545   5.957   3.478 -0.1710  1.3257 -0.2026
   14MOL   H27114337   0.351   5.879   3.359  0.8482 -1.2029  0.7988
   14MOL   C27214338   7.985   5.746   4.745 -0.8368 -0.0851 -0.4702
   14MOL   C27314339   7.958   5.719   4.881 -0.6503  0.1478  0.5081
   14MOL   C27414340   7.882   5.810   4.960  0.4459 -0.1269  0.5456
   14MOL   C27514341   7.816   5.920   4.904  0.1477  0.7234 -0.4659
   14MOL   S27614342   7.758   6.048   5.005 -0.2190 -0.1985 -0.2346
   14MOL   O27714343   7.855   6.074   5.113 -0.0998 -0.1073  0.2586
   14MOL   O27814344   7.618   6.019   5.043  0.0383  0.5479  0.5351
   14MOL   C27914345   7.746   6.189   4.906 -0.1789 -0.4867  0.7090
   14MOL   C28014346   7.857   6.273   4.899  1.1355  0.4275 -0.4688
   14MOL   C28114347   7.853   6.379   4.805  0.1349  0.0939 -0.1554
   14MOL   C28214348   7.740   6.400   4.720  0.0287  0.4007 -0.4173
   14MOL   O28314349   7.754   6.496   4.618  0.0607  0.3732 -0.0301
   14MOL   C28414350   7.753   6.461   4.486 -0.2179 -0.0318  0.1838
   14MOL   C28514351   7.807   6.341   4.441 -0.4685  0.1894  0.5171
   14MOL   C28614352   7.823   6.324   4.304 -0.2958  0.6129  0.1090
   14MOL   C28714353   7.766   6.416   4.206  0.1280  0.1782  0.1462
   14MOL   C28814354   7.786   6.402   4.055  0.3152 -0.3700  0.8582
   14MOL   C28914355   7.901   6.494   4.027 -0.9428  0.2843  0.3409
   14MOL   C29014356   7.826   6.269   4.005 -0.4928  0.0964  0.1460
   14MOL   C29114357   7.647   6.437   3.990  0.4627 -0.3544 -0.5842
   14MOL   C29214358   7.535   6.360   4.039  0.2198  0.2377 -0.3122
   14MOL   C29314359   7.410   6.382   3.981 -0.0479  0.7518  0.3793
   14MOL   C29414360   7.400   6.463   3.863 -0.2448  0.4994  0.2514
   14MOL   O29514361   7.280   6.469   3.792 -0.2382 -0.1387 -0.5466
   14MOL   C29614362   7.506   6.540   3.820 -0.9100  0.0034 -0.7268
   14MOL   C29714363   7.631   6.527   3.882 -0.4531 -0.6085  0.1554
   14MOL   C29814364   7.698   6.528   4.258 -0.4282  0.6879  1.0686
   14MOL   C29914365   7.707   6.558   4.393  0.0041  0.3462 -0.4053
   14MOL   C30014366   7.628   6.312   4.728 -0.2168 -0.5290 -0.9464
   14MOL   C30114367   7.630   6.212   4.820 -0.4846 -0.1089  0.1306
   14MOL   C30214368   7.835   5.937   4.762 -0.1713 -1.1461 -1.0655
   14MOL   C30314369   7.928   5.861   4.687 -0.0358 -0.0377  0.0930
   14MOL   H30414370   7.997   5.629   4.926  1.3935  1.1020  0.6837
   14MOL   H30514371   7.882   5.797   5.067  4.8612  0.2719  0.6950
   14MOL   H30614372   7.937   6.247   4.966  0.4040 -0.6776  0.0009
   14MOL   H30714373   7.928   6.456   4.812  1.9508 -1.5904 -0.6182
   14MOL   H30814374   7.844   6.277   4.520  0.0007  0.9493  0.9230
   14MOL   H30914375   7.872   6.235   4.269 -0.7120 -0.6560  2.6630
   14MOL   H31014376   7.937   6.501   3.924  1.7688  0.9093  1.3009
   14MOL   H31114377   7.988   6.468   4.087 -0.9292  0.9153  0.5997
   14MOL   H31214378   7.874   6.594   4.061  0.8632  0.0238  2.6267
   14MOL   H31314379   7.923   6.232   4.040 -1.0608 -1.2904  0.2927
   14MOL   H31414380   7.763   6.186   4.035  0.7024 -1.3410 -1.1918
   14MOL   H31514381   7.817   6.270   3.897  0.8517  2.1462  0.0180
   14MOL   H31614382   7.541   6.293   4.123 -0.9129  1.9359  1.1766
   14MOL   H31714383   7.327   6.316   4.003 -2.1218  2.8432 -0.9263
   14MOL   H31814384   7.488   6.609   3.739  0.2525  1.2124  0.0177
   14MOL   H31914385   7.710   6.590   3.843 -1.5108  1.0354  0.6092
   14MOL   H32014386   7.663   6.604   4.189 -0.0600 -0.8824 -0.8931
   14MOL   H32114387   7.669   6.653   4.428  2.4771  1.7740 -1.4826
   14MOL   H32214388   7.545   6.324   4.660 -0.5359  1.0092 -0.2973
   14MOL   H32314389   7.548   6.144   4.839  0.4682 -1.1844  0.4578
   14MOL   H32414390   7.793   6.025   4.715 -2.3667 -2.4836 -1.6603
   14MOL   H32514391   7.942   5.875   4.581 -2.3030  0.2598 -0.1901
   14MOL   C32614392   7.264   6.357   3.716 -0.0059 -0.2170 -0.4169
   14MOL   C32714393   7.137   6.299   3.722 -0.1964  0.3848  0.0209
   14MOL   C32814394   7.103   6.194   3.636  0.1800  0.7051  0.0086
   14MOL   C32914395   7.189   6.155   3.533  0.8202  0.0596 -0.4241
   14MOL   S33014396   7.152   6.013   3.427 -0.2683 -0.1581 -0.0850
   14MOL   O33114397   7.067   5.921   3.508 -0.2084  0.2721 -0.0024
   14MOL   O33214398   7.281   5.966   3.368 -0.0654  0.2596  0.6282
   14MOL   C33314399   7.050   6.069   3.289  0.7655 -0.0750  0.1145
   14MOL   C33414400   7.080   6.184   3.224 -0.2360  0.0921 -0.8580
   14MOL   C33514401   6.995   6.225   3.118  0.4146  0.7201  0.4320
   14MOL   C33614402   6.889   6.144   3.076  0.2220  0.3316  0.1386
   14MOL   O33714403   6.799   6.188   2.978 -0.3834 -0.3498 -0.4873
   14MOL   C33814404   6.844   6.183   2.848  0.1680  0.0220 -0.0618
   14MOL   C33914405   6.903   6.070   2.793  0.3809 -0.1549 -0.3754
   14MOL   C34014406   6.943   6.069   2.655 -0.1268 -0.1648 -0.3057
   14MOL   C34114407   6.917   6.179   2.572 -0.0252 -0.1472  0.1244
   14MOL   C34214408   6.949   6.181   2.418  0.3179  0.6793  0.3713
   14MOL   C34314409   6.991   6.322   2.373 -0.0897  0.4983  0.3606
   14MOL   C34414410   7.065   6.083   2.378  0.1914 -0.3791 -0.0604
   14MOL   C34514411   6.820   6.127   2.350  0.1861 -0.5064 -0.0691
   14MOL   C34614412   6.794   5.989   2.321  0.7822 -0.9381 -0.2948
   14MOL   C34714413   6.690   5.947   2.239  0.2663  0.5447  0.0942
   14MOL   C34814414   6.591   6.040   2.203 -0.2269  0.4186 -0.0589
   14MOL   O34914415   6.484   5.999   2.126 -0.6345 -0.5071  0.0268
   14MOL   C35014416   6.598   6.169   2.251 -0.2635 -0.0635  0.2622
   14MOL   C35114417   6.712   6.210   2.316 -0.2937 -0.1021  0.3137
   14MOL   C35214418   6.852   6.289   2.626  0.0436  0.0035  0.1913
   14MOL   C35314419   6.812   6.294   2.767  0.5301  0.3633 -0.4115
   14MOL   C35414420   6.863   6.025   3.148  0.3807  0.1349  0.3462
   14MOL   C35514421   6.949   5.986   3.249  0.3382 -0.1376  0.1564
   14MOL   C35614422   7.320   6.218   3.525  0.4896  0.4129 -0.0992
   14MOL   C35714423   7.359   6.312   3.622 -0.4893  0.6687  0.4248
   14MOL   H35814424   7.060   6.335   3.789 -1.9709 -2.7945 -0.2430
   14MOL   H35914425   7.006   6.147   3.637  0.4293  0.2033  0.8267
   14MOL   H36014426   7.164   6.244   3.254  0.1405 -0.3079 -1.1058
   14MOL   H36114427   7.011   6.322   3.071  2.6824 -0.4317 -1.2739
   14MOL   H36214428   6.925   5.987   2.858  0.9011  1.4310  1.5335
   14MOL   H36314429   6.992   5.981   2.614  0.0623 -0.0135 -0.4072
   14MOL   H36414430   7.011   6.325   2.266 -0.7348  3.3388  0.2561
   14MOL   H36514431   7.080   6.354   2.427  0.0167  0.8836 -0.0348
   14MOL   H36614432   6.917   6.399   2.396  0.5162  0.4250  2.6539
   14MOL   H36714433   7.050   5.983   2.418  1.6939 -0.0818  1.2727
   14MOL   H36814434   7.066   6.068   2.270 -0.1931 -0.7302 -0.0186
   14MOL   H36914435   7.168   6.108   2.402  0.1976  0.4262 -0.8698
   14MOL   H37014436   6.872   5.917   2.344  0.8195 -0.1017  2.3348
   14MOL   H37114437   6.677   5.844   2.207 -1.7841  0.8790 -0.2154
   14MOL   H37214438   6.520   6.243   2.241 -1.0633 -1.1303 -1.6527
   14MOL   H37314439   6.720   6.313   2.348 -0.8615 -0.0275  0.2263
   14MOL   H37414440   6.822   6.378   2.572  2.7154  0.8421  0.0200
   14MOL   H37514441   6.770   6.384   2.808  0.9073  0.0329  0.7179
   14MOL   H37614442   6.782   5.961   3.117  3.5921 -2.9212 -2.1378
   14MOL   H37714443   6.939   5.895   3.306  1.0623 -0.7085 -0.6105
   14MOL   H37814444   7.391   6.184   3.452 -1.4832 -0.5157 -1.6289
   14MOL   H37914445   7.457   6.355   3.613  0.9469 -2.3262  1.2650
   14MOL   C38014446   6.387   5.925   2.181  0.0167 -0.7208 -0.2576
   14MOL   C38114447   6.352   5.799   2.120  0.3156 -0.8321 -0.0570
   14MOL   C38214448   6.257   5.720   2.180 -0.3977 -0.7005 -1.0542
   14MOL   C38314449   6.187   5.759   2.296  0.2571 -0.2986  0.1351
   14MOL   S38414450   6.067   5.647   2.371  0.7245  0.0218 -0.5626
   14MOL   O38514451   6.038   5.545   2.271 -0.2338  0.2320  0.0465
   14MOL   O38614452   5.956   5.721   2.426 -0.3011  0.1425 -0.5916
   14MOL   C38714453   6.153   5.563   2.514  0.1291 -0.3504  0.4729
   14MOL   C38814454   6.084   5.533   2.630  0.5054  0.3840 -0.0871
   14MOL   C38914455   6.161   5.472   2.736 -0.2433  0.4866 -0.1150
   14MOL   C39014456   6.299   5.457   2.726 -0.1627  0.5306  0.2262
   14MOL   O39114457   6.372   5.408   2.834  0.3634  0.0010  0.5148
   14MOL   C39214458   6.397   5.483   2.946  0.0724  0.0755  0.1571
   14MOL   C39314459   6.420   5.418   3.073  0.2658  0.4486  0.6746
   14MOL   C39414460   6.439   5.494   3.191  0.3603 -0.4253  0.3587
   14MOL   C39514461   6.441   5.634   3.183  0.4984  0.2552  0.4180
   14MOL   C39614462   6.461   5.723   3.311 -0.3521  0.2358  0.1920
   14MOL   C39714463   6.493   5.641   3.428 -0.0276 -0.2145  0.1977
   14MOL   C39814464   6.579   5.814   3.283 -0.8002  0.7715  0.7779
   14MOL   C39914465   6.331   5.806   3.337 -0.7659 -0.1563 -0.5129
   14MOL   C40014466   6.343   5.935   3.388  0.2775 -0.2433  0.1865
   14MOL   C40114467   6.226   6.020   3.406 -0.0899  0.2662  0.2893
   14MOL   C40214468   6.098   5.976   3.358  0.3085  0.3144 -0.5127
   14MOL   O40314469   5.997   6.079   3.355  0.1157 -0.0427 -0.2724
   14MOL   C40414470   6.089   5.849   3.299 -0.0382  0.5354 -0.1270
   14MOL   C40514471   6.199   5.760   3.296 -0.3372 -0.2936 -0.1805
   14MOL   C40614472   6.423   5.696   3.057 -0.1476  0.2671  0.1932
   14MOL   C40714473   6.409   5.626   2.938  0.6117  0.2046  0.1555
   14MOL   C40814474   6.365   5.506   2.613 -0.3405 -0.6080 -0.3306
   14MOL   C40914475   6.293   5.549   2.507 -0.6189 -0.4426  0.6001
   14MOL   C41014476   6.219   5.882   2.356 -0.8072 -0.2229 -0.6397
   14MOL   C41114477   6.323   5.968   2.302 -0.3298  0.3710 -0.3041
   14MOL   H41214478   6.416   5.762   2.041  2.6785 -0.0744  1.4123
   14MOL   H41314479   6.233   5.623   2.139 -1.1767 -0.5697 -0.9146
   14MOL   H41414480   5.979   5.557   2.634 -0.4215 -2.7810 -2.7168
   14MOL   H41514481   6.126   5.432   2.830  2.1412 -1.4770 -0.0162
   14MOL   H41614482   6.430   5.310   3.077  0.0999  0.3319 -1.3783
   14MOL   H41714483   6.442   5.438   3.283  0.3250  0.0838  0.6669
   14MOL   H41814484   6.521   5.706   3.511 -0.3435 -0.8338  0.7966
   14MOL   H41914485   6.573   5.576   3.394  1.4789  1.6932  0.0271
   14MOL   H42014486   6.409   5.582   3.465  0.2829  0.3800  1.9206
   14MOL   H42114487   6.621   5.879   3.361  0.7828  0.5788  0.1055
   14MOL   H42214488   6.667   5.754   3.261 -0.8136  1.0064  0.0851
   14MOL   H42314489   6.556   5.884   3.203 -1.1552  2.5476  2.3957
   14MOL   H42414490   6.438   5.978   3.415  0.8203 -1.5985  0.4989
   14MOL   H42514491   6.239   6.119   3.448  2.5561 -0.3525  1.0107
   14MOL   H42614492   5.995   5.810   3.263  0.1069  0.0471  0.0212
   14MOL   H42714493   6.194   5.660   3.255  0.7123 -0.3806 -0.0911
   14MOL   H42814494   6.413   5.804   3.059 -0.7724  0.2090  0.5759
   14MOL   H42914495   6.393   5.669   2.840 -1.6638  1.6018  1.0847
   14MOL   H43014496   6.472   5.511   2.600  0.1822  0.0348  3.4454
   14MOL   H43114497   6.343   5.587   2.420 -2.1937  0.5677  0.1111
   14MOL   H43214498   6.173   5.904   2.451 -1.4050 -0.7992 -0.7907
   14MOL   H43314499   6.338   6.069   2.337  0.1243  1.3587 -3.1707
   14MOL   C43414500   5.869   6.048   3.317  0.5126 -0.0545 -0.1689
   14MOL   C43514501   5.781   5.986   3.410 -0.0043 -0.2286  0.3321
   14MOL   C43614502   5.660   5.939   3.367 -0.6052  0.0412 -0.0876
   14MOL   C43714503   5.614   5.968   3.238 -0.4246  0.9499  0.1128
   14MOL   S43814504   5.457   5.912   3.178  0.1843  0.1239 -0.1323
   14MOL   O43914505   5.379   5.835   3.282  0.3626 -0.5636 -0.1085
   14MOL   O44014506   5.480   5.863   3.041  0.1462 -0.2551 -0.0212
   14MOL   C44114507   5.353   6.058   3.145 -0.1004 -0.0624  0.5043
   14MOL   C44214508   5.391   6.181   3.207  0.2854 -0.6955 -0.2832
   14MOL   C44314509   5.309   6.295   3.193 -0.2979  0.1050 -0.5822
   14MOL   C44414510   5.193   6.289   3.118  0.2730  0.0376  0.8198
   14MOL   O44514511   5.115   6.401   3.098 -0.4013  0.4416  0.4410
   14MOL   C44614512   5.179   6.524   3.093  0.7298 -0.2867  1.2787
   14MOL   C44714513   5.244   6.561   2.973 -0.4270  0.9039  0.0132
   14MOL   C44814514   5.317   6.686   2.964 -0.0343  0.3983  0.0861
   14MOL   C44914515   5.315   6.776   3.073 -0.4698 -0.0259 -0.1244
   14MOL   C45014516   5.384   6.913   3.071  0.1292 -0.0534 -0.1634
   14MOL   C45114517   5.476   6.938   2.942 -0.6445 -0.7530 -0.0545
   14MOL   C45214518   5.272   7.022   3.074  0.3162 -0.5510 -0.2853
   14MOL   C45314519   5.470   6.909   3.196 -0.2584 -0.2591  0.2816
   14MOL   C45414520   5.574   6.814   3.212 -0.4585  0.6564  1.0542
   14MOL   C45514521   5.648   6.811   3.333 -0.4209 -0.6828  0.6603
   14MOL   C45614522   5.624   6.911   3.433 -0.4698  0.1992  0.1677
   14MOL   O45714523   5.699   6.906   3.547  0.1999 -0.7505 -0.5072
   14MOL   C45814524   5.521   7.007   3.420 -0.5454 -0.4483  0.7329
   14MOL   C45914525   5.440   6.993   3.307  0.4114  0.7417 -0.2619
   14MOL   C46014526   5.233   6.739   3.180  0.0519  0.4614 -0.2593
   14MOL   C46114527   5.161   6.622   3.190  0.5187  0.5230  0.2446
   14MOL   C46214528   5.159   6.167   3.051  0.6364 -0.2943  0.9498
   14MOL   C46314529   5.241   6.048   3.063 -0.0688  0.6867  0.6524
   14MOL   C46414530   5.698   6.037   3.149  0.4437  0.1664  0.0933
   14MOL   C46514531   5.825   6.078   3.188  0.6648  0.4546  0.3345
   14MOL   H46614532   5.820   5.959   3.507  1.0553  0.8572  0.2237
   14MOL   H46714533   5.597   5.881   3.432  1.6715 -0.8091  1.4147
   14MOL   H46814534   5.486   6.190   3.257 -0.0119 -0.8600  0.3058
   14MOL   H46914535   5.339   6.386   3.241  0.4437 -0.2908 -0.2970
   14MOL   H47014536   5.250   6.493   2.890 -1.6279 -0.4443  1.0044
   14MOL   H47114537   5.374   6.711   2.876 -0.8825 -2.2062 -1.2165
   14MOL   H47214538   5.521   7.037   2.941  0.3841 -1.2069  0.2055
   14MOL   H47314539   5.418   6.933   2.850 -1.8035  0.7637  0.5680
   14MOL   H47414540   5.551   6.861   2.924 -1.5480 -1.5768 -0.3446
   14MOL   H47514541   5.224   7.027   2.976  1.3227  3.7276 -0.6596
   14MOL   H47614542   5.194   7.002   3.147  1.0512 -1.2569  0.3122
   14MOL   H47714543   5.320   7.119   3.080 -0.2463 -0.2614 -0.4351
   14MOL   H47814544   5.592   6.740   3.136 -1.3314  0.6358  0.8656
   14MOL   H47914545   5.721   6.731   3.342  0.9149  0.2135 -1.8044
   14MOL   H48014546   5.502   7.076   3.502  0.2264  0.8478 -0.1580
   14MOL   H48114547   5.360   7.066   3.310 -0.8219 -0.5856  0.3227
   14MOL   H48214548   5.220   6.804   3.265  1.2602 -0.0451  0.3233
   14MOL   H48314549   5.095   6.597   3.272 -0.2911  0.7605 -0.3264
   14MOL   H48414550   5.080   6.164   2.977  0.7552  1.0887  0.7361
   14MOL   H48514551   5.228   5.958   3.003 -2.1339  1.7459 -0.5529
   14MOL   H48614552   5.669   6.037   3.045 -1.7107 -0.6337  0.6805
   14MOL   H48714553   5.894   6.128   3.122  1.9955 -1.5562  0.1518
   14MOL   C48814554   5.835   6.941   3.543 -0.3536  0.0296  0.1500
   14MOL   C48914555   5.904   6.931   3.658  0.4001 -0.8518  0.0959
   14MOL   C49014556   6.041   6.956   3.663  0.0417  0.1242 -0.1769
   14MOL   C49114557   6.109   6.986   3.541 -0.2579 -0.1593  0.7793
   14MOL   S49214558   6.285   7.007   3.535  0.0526  0.3149  0.0889
   14MOL   O49314559   6.340   6.950   3.661  0.0886 -0.1633  0.4706
   14MOL   O49414560   6.310   7.146   3.498 -0.8306  0.4469 -0.7528
   14MOL   C49514561   6.337   6.896   3.407  0.1513 -0.7182  0.3496
   14MOL   C49614562   6.463   6.924   3.344 -0.1984 -0.6390 -0.6414
   14MOL   C49714563   6.497   6.853   3.231 -0.7879  0.3316  0.5302
   14MOL   C49814564   6.418   6.748   3.178  0.6011 -0.5818  0.3509
   14MOL   O49914565   6.467   6.683   3.065 -0.0539 -0.4102  0.0962
   14MOL   C50014566   6.420   6.558   3.026  0.5246 -0.2434 -0.4963
   14MOL   C50114567   6.453   6.450   3.103 -0.4899  0.3421 -0.1160
   14MOL   C50214568   6.404   6.324   3.073 -0.0532  0.8013  0.2164
   14MOL   C50314569   6.327   6.301   2.957 -0.1089  0.1307  0.5657
   14MOL   C50414570   6.272   6.162   2.920  0.6877 -0.7886 -0.4930
   14MOL   C50514571   6.264   6.068   3.043  0.2635 -0.3430  1.2092
   14MOL   C50614572   6.124   6.176   2.875 -0.2624 -0.2271  0.1185
   14MOL   C50714573   6.358   6.090   2.810 -0.4562 -0.2943 -0.2715
   14MOL   C50814574   6.479   6.135   2.751  0.4630  0.0936  0.0608
   14MOL   C50914575   6.559   6.051   2.670 -0.9081 -0.8022 -0.2240
   14MOL   C51014576   6.528   5.914   2.654 -0.9577  0.3470  0.6672
   14MOL   O51114577   6.611   5.827   2.591  0.2758 -0.3678 -0.5265
   14MOL   C51214578   6.398   5.875   2.686 -0.1436  0.4985  0.2487
   14MOL   C51314579   6.315   5.964   2.760  0.0849 -0.1069  0.3397
   14MOL   C51414580   6.302   6.409   2.872  0.4153 -0.0227  0.3077
   14MOL   C51514581   6.344   6.537   2.910  0.5483  0.3665 -0.2323
   14MOL   C51614582   6.295   6.717   3.251  0.5410  0.3756 -1.1303
   14MOL   C51714583   6.254   6.796   3.361  0.7510  0.6387  0.2499
   14MOL   C51814584   6.038   7.003   3.421  0.6627 -0.3662 -0.5721
   14MOL   C51914585   5.897   6.971   3.420  0.2072  0.6805  0.1007
   14MOL   H52014586   5.844   6.904   3.744  1.1838  1.6382  1.4497
   14MOL   H52114587   6.093   6.936   3.755 -2.8206 -1.5318  1.1409
   14MOL   H52214588   6.525   7.007   3.375  0.2821 -1.5279  0.8087
   14MOL   H52314589   6.588   6.887   3.184  2.1367 -4.3358  2.4735
   14MOL   H52414590   6.512   6.459   3.193 -0.8606 -0.2958  0.1956
   14MOL   H52514591   6.431   6.242   3.137  1.7576 -0.3032 -1.8910
   14MOL   H52614592   6.367   6.052   3.076  1.7073 -0.3158 -2.9886
   14MOL   H52714593   6.218   5.971   3.027  0.9801 -0.5013  0.0415
   14MOL   H52814594   6.201   6.114   3.120 -2.1534 -0.6200 -0.5634
   14MOL   H52914595   6.103   6.230   2.783 -0.1943 -0.6015 -0.1212
   14MOL   H53014596   6.063   6.086   2.876 -1.3405  0.4905  1.9987
   14MOL   H53114597   6.077   6.237   2.952 -0.6437  0.3451 -0.5757
   14MOL   H53214598   6.513   6.234   2.779  0.1650  0.0930  0.4273
   14MOL   H53314599   6.656   6.085   2.638 -0.9889  0.2505  0.6049
   14MOL   H53414600   6.361   5.779   2.655 -2.4096  0.7289  2.0391
   14MOL   H53514601   6.220   5.921   2.791 -1.3892  3.2209  0.6788
   14MOL   H53614602   6.248   6.397   2.779  0.9350  1.0248 -0.1405
   14MOL   H53714603   6.319   6.610   2.834 -0.3528 -0.3658 -0.6363
   14MOL   H53814604   6.231   6.637   3.216  0.6054 -0.8328  1.4500
   14MOL   H53914605   6.179   6.766   3.433 -0.7687  1.3696 -0.9934
   14MOL   H54014606   6.097   7.036   3.336  3.8026 -1.7791  0.9905
   14MOL   H54114607   5.838   6.990   3.331 -0.3581  0.2131  0.3754
   14MOL   C54214608   6.708   5.756   2.660  0.2888  0.3261  0.0239
   14MOL   C54314609   6.798   5.673   2.591 -0.5402  1.0695  0.4129
   14MOL   C54414610   6.896   5.598   2.658 -0.2502  0.4935 -0.3242
   14MOL   C54514611   6.885   5.587   2.800 -0.8379 -0.2908  0.0373
   14MOL   S54614612   7.002   5.487   2.892 -0.2311 -0.5315 -0.3310
   14MOL   O54714613   7.075   5.396   2.803  0.3820 -0.2894  0.3447
   14MOL   O54814614   6.928   5.440   3.009  0.1835  0.3470 -0.2256
   14MOL   C54914615   7.123   5.617   2.939  0.0664  0.2739  0.0147
   14MOL   C55014616   7.242   5.633   2.862 -0.2509 -0.8243 -0.1739
   14MOL   C55114617   7.338   5.729   2.901 -0.6486  0.1667 -0.5651
   14MOL   C55214618   7.321   5.798   3.023 -0.2688  0.1388  0.2001
   14MOL   O55314619   7.415   5.888   3.065 -0.1490  0.1177 -0.1359
   14MOL   C55414620   7.390   6.024   3.068 -1.3677  0.4611 -0.3610
   14MOL   C55514621   7.453   6.104   3.165 -0.0523 -0.2376 -0.6826
   14MOL   C55614622   7.445   6.246   3.167 -0.3462 -0.0054  0.5927
   14MOL   C55714623   7.366   6.314   3.065  0.0715  0.5551  0.8747
   14MOL   C55814624   7.361   6.465   3.060 -0.8699  0.1264 -0.5152
   14MOL   C55914625   7.434   6.504   2.932  0.0190 -0.0511 -0.6279
   14MOL   C56014626   7.217   6.519   3.063 -0.1928 -0.1528 -0.0847
   14MOL   C56114627   7.440   6.518   3.187  0.3857 -0.6135  0.9463
   14MOL   C56214628   7.573   6.575   3.178 -0.7399 -0.6244 -0.3206
   14MOL   C56314629   7.634   6.624   3.286 -0.4082  1.0784 -0.0617
   14MOL   C56414630   7.573   6.622   3.411 -0.0037 -0.2899 -0.5442
   14MOL   O56514631   7.637   6.666   3.526  0.1685  0.5010 -0.2927
   14MOL   C56614632   7.440   6.570   3.424 -0.3810 -1.2311 -0.6838
   14MOL   C56714633   7.378   6.515   3.311  0.7461 -0.5204  0.5837
   14MOL   C56814634   7.296   6.239   2.972 -0.4710  0.3674  0.3106
   14MOL   C56914635   7.305   6.095   2.975  0.0023 -1.3066  0.5233
   14MOL   C57014636   7.206   5.776   3.097  0.6046  0.0071  0.8682
   14MOL   C57114637   7.104   5.686   3.058 -0.0137  0.1943  0.1108
   14MOL   C57214638   6.786   5.655   2.870  0.1072  0.0048  0.2464
   14MOL   C57314639   6.698   5.739   2.801 -0.1698  0.3696 -0.0420
   14MOL   H57414640   6.795   5.668   2.484 -1.3946 -0.7433  0.5110
   14MOL   H57514641   6.972   5.535   2.613  0.0137 -0.6372  1.6234
   14MOL   H57614642   7.270   5.570   2.779 -0.7870  0.5228 -1.3968
   14MOL   H57714643   7.425   5.740   2.839 -1.6890 -1.6408 -2.4205
   14MOL   H57814644   7.516   6.049   3.233  0.5659  0.6060 -0.5695
   14MOL   H57914645   7.516   6.299   3.229  1.7771  0.4946 -2.1836
   14MOL   H58014646   7.535   6.464   2.926  0.6533  1.4345 -0.2867
   14MOL   H58114647   7.443   6.612   2.922  1.4286 -0.3107 -2.3176
   14MOL   H58214648   7.385   6.474   2.840 -1.3728 -1.4981  0.5680
   14MOL   H58314649   7.151   6.466   2.994  0.5142  0.1414 -1.0011
   14MOL   H58414650   7.164   6.522   3.158  1.0759 -1.3102  0.6722
   14MOL   H58514651   7.209   6.619   3.020  0.7213 -0.8212 -1.8682
   14MOL   H58614652   7.613   6.601   3.081  0.5769  1.0320  0.6589
   14MOL   H58714653   7.736   6.655   3.275  0.4428 -0.8371  2.0367
   14MOL   H58814654   7.382   6.571   3.515  0.0989 -1.8282 -0.3716
   14MOL   H58914655   7.274   6.488   3.323  0.3759  0.0424 -1.1711
   14MOL   H59014656   7.235   6.288   2.898 -1.2589  0.0912  0.7644
   14MOL   H59114657   7.256   6.042   2.895  1.7152  0.2027 -1.5984
   14MOL   H59214658   7.190   5.817   3.196  1.4217  0.9841  0.6073
   14MOL   H59314659   7.015   5.675   3.119 -0.1163 -0.2582 -0.1234
   14MOL   H59414660   6.778   5.648   2.978 -1.3988 -1.4586  0.0699
   14MOL   H59514661   6.615   5.785   2.853 -0.3023  0.9463 -0.7592
   14MOL   C59614662   7.763   6.609   3.547  0.4777  0.3003 -0.3545
   14MOL   C59714663   7.770   6.467   3.548  0.3289 -1.1248 -1.0296
   14MOL   C59814664   7.896   6.402   3.576 -0.9066  0.0410 -0.5111
   14MOL   C59914665   8.017   6.465   3.591  0.0014 -0.2153  0.1690
   14MOL   S60014666   8.179   6.386   3.615 -0.3649  0.3394  0.5615
   14MOL   O60114667   8.164   6.253   3.668 -0.5936  0.4357 -0.2986
   14MOL   O60214668   0.011   6.482   3.681 -0.1588 -0.1835  0.1753
   14MOL   C60314669   8.231   6.383   3.435 -0.7592 -0.2458  0.2510
   14MOL   C60414670   0.016   6.501   3.369 -0.1542 -0.4653 -0.5952
   14MOL   C60514671   0.062   6.503   3.238 -0.1769 -0.3951  0.4818
   14MOL   C60614672   0.074   6.379   3.174  1.2165 -0.0676 -0.3727
   14MOL   O60714673   0.122   6.384   3.044 -0.3127 -1.4852 -0.1639
   14MOL   C60814674   0.173   6.504   3.002 -0.5718 -0.2259  0.1417
   14MOL   C60914675   0.296   6.547   3.055 -0.4460  0.1217  0.0581
   14MOL   C61014676   0.356   6.662   3.003 -0.0990  0.1255  0.0631
   14MOL   C61114677   0.289   6.744   2.910 -0.0888  0.4180 -0.4326
   14MOL   C61214678   0.345   6.880   2.855 -0.1637 -0.4758  0.6918
   14MOL   C61314679   0.441   6.950   2.947  0.3803 -0.0771 -0.1172
   14MOL   C61414680   0.430   6.841   2.735  0.3385 -0.2425  0.2662
   14MOL   C61514681   0.231   6.976   2.816 -0.5332 -0.3637  0.2460
   14MOL   C61614682   0.163   7.045   2.915  0.7048  0.4997  0.6624
   14MOL   C61714683   0.053   7.127   2.887  0.3665  0.6699 -0.0986
   14MOL   C61814684   0.013   7.157   2.757 -0.3029 -0.3305  0.1916
   14MOL   O61914685   8.161   7.240   2.730 -0.0739  0.0180 -0.1405
   14MOL   C62014686   0.087   7.092   2.652 -0.5876 -0.6129 -0.2945
   14MOL   C62114687   0.195   7.003   2.678  0.2407  0.4196  0.1608
   14MOL   C62214688   0.160   6.702   2.872  0.0726  0.4051 -0.8770
   14MOL   C62314689   0.104   6.577   2.907 -0.3031  0.2391 -0.4542
   14MOL   C62414690   0.037   6.260   3.236 -0.1010 -0.6164 -0.0168
   14MOL   C62514691   8.239   6.262   3.367 -0.5219  0.2529 -0.0876
   14MOL   C62614692   8.003   6.607   3.603 -0.3674  0.3486  0.5120
   14MOL   C62714693   7.882   6.679   3.577  0.9191 -0.5644  1.0131
   14MOL   H62814694   7.677   6.411   3.541 -0.0584 -0.7057  0.5143
   14MOL   H62914695   7.895   6.294   3.568  0.6212 -0.3551  3.6339
   14MOL   H63014696   0.012   6.596   3.420 -2.2665  0.2158 -1.9212
   14MOL   H63114697   0.098   6.597   3.201  1.8444 -1.0489  0.7554
   14MOL   H63214698   0.349   6.493   3.132 -2.1381 -2.5094 -0.5327
   14MOL   H63314699   0.449   6.699   3.043 -0.2094  0.6500 -0.1542
   14MOL   H63414700   0.530   6.889   2.962  0.0488 -0.6542 -0.5097
   14MOL   H63514701   0.408   6.974   3.049 -0.4129 -0.3864 -0.3015
   14MOL   H63614702   0.495   7.034   2.903  2.4956 -1.6717 -0.6364
   14MOL   H63714703   0.499   6.764   2.770 -1.4278 -0.8697  2.5217
   14MOL   H63814704   0.376   6.774   2.667  0.0940  0.3401 -0.1132
   14MOL   H63914705   0.494   6.921   2.700 -0.0902  0.4706  1.0944
   14MOL   H64014706   0.190   7.019   3.017  1.2481 -0.8038  0.1885
   14MOL   H64114707   8.243   7.161   2.968  0.6101 -0.6329  0.6505
   14MOL   H64214708   0.061   7.118   2.550  0.4304  1.8812  0.0507
   14MOL   H64314709   0.256   6.964   2.598  0.6648 -0.5855  0.9562
   14MOL   H64414710   0.096   6.765   2.812 -0.0526  0.6403 -0.4962
   14MOL   H64514711   0.003   6.555   2.876 -0.4421 -0.4021  0.4407
   14MOL   H64614712   0.053   6.160   3.199  0.6622 -0.9034  1.0548
   14MOL   H64714713   8.204   6.165   3.399  0.5007 -0.7324 -1.8737
   14MOL   H64814714   8.101   6.648   3.620 -0.1492 -0.4508  1.2083
   14MOL   H64914715   7.870   6.786   3.582 -1.5023 -0.8470  2.6849
   14MOL   C65014716   8.039   7.179   2.712  0.2081 -0.1519  0.1241
   14MOL   C65114717   8.019   7.088   2.607  0.4228 -0.2813 -0.1334
   14MOL   C65214718   7.901   7.017   2.602  0.4423 -0.1720 -0.1059
   14MOL   C65314719   7.793   7.047   2.689 -0.8011 -0.1815 -0.2418
   14MOL   S65414720   7.642   6.948   2.679  0.3593  0.1943 -0.2123
   14MOL   O65514721   7.527   7.032   2.705 -0.0198 -0.3823 -0.0508
   14MOL   O65614722   7.670   6.827   2.757  0.3216  0.0955 -0.1973
   14MOL   C65714723   7.623   6.894   2.515 -0.7474 -0.0314  0.3103
   14MOL   C65814724   7.689   6.771   2.479  0.9289  0.1546 -1.0862
   14MOL   C65914725   7.673   6.708   2.360 -0.0464 -0.0812 -0.6263
   14MOL   C66014726   7.593   6.767   2.262  0.1138 -0.0045  0.0036
   14MOL   O66114727   7.564   6.694   2.154  0.3934  0.4571  0.1582
   14MOL   C66214728   7.438   6.662   2.116 -0.1508  0.5559  0.2205
   14MOL   C66314729   7.370   6.581   2.202  0.0192 -0.6549  0.8004
   14MOL   C66414730   7.231   6.562   2.178  0.2648 -0.3535 -0.0180
   14MOL   C66514731   7.168   6.609   2.059  0.1759 -0.1940  0.1934
   14MOL   C66614732   7.017   6.572   2.034 -0.7370 -0.0786  0.2218
   14MOL   C66714733   6.932   6.611   2.154 -0.3387  0.7991  0.3931
   14MOL   C66814734   6.948   6.651   1.917  0.1409 -0.4556 -0.0507
   14MOL   C66914735   7.007   6.424   1.997 -0.4901 -0.2970  0.2127
   14MOL   C67014736   6.878   6.360   1.991 -0.3933  0.3635  0.8490
   14MOL   C67114737   6.855   6.231   1.930  0.7434  0.2662 -0.6008
   14MOL   C67214738   6.971   6.162   1.883 -0.3239 -0.5301  0.3494
   14MOL   O67314739   6.963   6.034   1.831  0.3562  0.3900  0.4673
   14MOL   C67414740   7.103   6.215   1.905  0.1898 -0.0103 -0.3835
   14MOL   C67514741   7.118   6.343   1.963  0.6996  0.7919  0.1152
   14MOL   C67614742   7.245   6.687   1.968  0.5902 -0.2740 -0.1624
   14MOL   C67714743   7.382   6.716   1.999  0.4346  0.2683 -0.1838
   14MOL   C67814744   7.527   6.889   2.292  0.5075  0.3891 -0.2069
   14MOL   C67914745   7.537   6.961   2.422  0.7204  0.6621  0.5454
   14MOL   C68014746   7.805   7.145   2.789  0.6342 -0.6061 -0.4967
   14MOL   C68114747   7.931   7.207   2.794  0.0367 -0.7446  0.7191
   14MOL   H68214748   8.092   7.074   2.528 -2.3535 -0.6001 -2.7444
   14MOL   H68314749   7.896   6.927   2.542  1.8155 -1.1194  1.1541
   14MOL   H68414750   7.746   6.725   2.558  1.9420  1.6124 -0.9645
   14MOL   H68514751   7.725   6.617   2.334 -0.4789 -0.4434 -0.2155
   14MOL   H68614752   7.427   6.536   2.282  0.1678 -0.7162  0.6595
   14MOL   H68714753   7.189   6.493   2.250 -1.5317  1.0166  0.2638
   14MOL   H68814754   6.825   6.595   2.136 -0.1893  1.0305 -0.7493
   14MOL   H68914755   6.948   6.713   2.189 -0.4409  1.5523 -1.6448
   14MOL   H69014756   6.961   6.553   2.241  1.4807 -1.0808 -1.4092
   14MOL   H69114757   6.968   6.758   1.922  1.2308 -0.7234  1.8985
   14MOL   H69214758   6.987   6.615   1.822  0.8291 -1.4234  0.5798
   14MOL   H69314759   6.841   6.643   1.896  0.3017 -3.5379  0.0638
   14MOL   H69414760   6.789   6.416   2.013 -0.6835 -0.2538  1.2390
   14MOL   H69514761   6.756   6.188   1.939  0.8930 -0.0403 -0.4183
   14MOL   H69614762   7.193   6.161   1.878  0.6753  1.2246 -1.2847
   14MOL   H69714763   7.217   6.384   1.953  1.5558 -1.0909  0.6609
   14MOL   H69814764   7.200   6.738   1.883  3.3486  1.9272 -0.3619
   14MOL   H69914765   7.442   6.776   1.932  0.0112 -1.5748 -2.2768
   14MOL   H70014766   7.468   6.936   2.214  0.1010  1.6542  0.8517
   14MOL   H70114767   7.481   7.053   2.431  0.6886  0.6963  0.0371
   14MOL   H70214768   7.731   7.156   2.867  2.5454 -1.0694  1.4285
   14MOL   H70314769   7.953   7.276   2.874  1.3521 -1.6476  1.1669
   14MOL   C70414770   7.009   5.921   1.897  0.2764 -0.4057 -0.9153
   14MOL   C70514771   6.977   5.791   1.852 -0.4471  0.1601 -0.5187
   14MOL   C70614772   7.019   5.672   1.920  0.3407  0.4808 -0.1798
   14MOL   C70714773   7.072   5.683   2.045 -0.3669  0.7123  0.5269
   14MOL   S70814774   7.096   5.532   2.146  0.1359 -0.5037 -0.3388
   14MOL   O70914775   6.995   5.436   2.102 -0.3051  0.7907 -0.3965
   14MOL   O71014776   7.107   5.562   2.290 -0.2394 -0.4700  0.5307
   14MOL   C71114777   7.253   5.462   2.097 -0.2212 -0.2645 -0.5963
   14MOL   C71214778   7.284   5.335   2.147 -0.4731  0.1416  0.0209
   14MOL   C71314779   7.407   5.276   2.128  0.7707 -0.4006  0.2597
   14MOL   C71414780   7.502   5.339   2.043 -0.0369  0.3288  0.0247
   14MOL   O71514781   7.621   5.275   2.024 -0.0212 -0.3317  0.5589
   14MOL   C71614782   7.712   5.257   2.130  0.7215 -0.1168 -0.1578
   14MOL   C71714783   7.753   5.370   2.198 -0.0207 -0.1106 -0.3023
   14MOL   C71814784   7.849   5.365   2.300 -1.1226 -0.3321 -0.1842
   14MOL   C71914785   7.912   5.248   2.334 -0.1209  0.0104 -0.1493
   14MOL   C72014786   8.017   5.250   2.444 -0.6537 -0.1185 -0.6236
   14MOL   C72114787   8.093   5.115   2.469 -0.0332  0.5929  0.2943
   14MOL   C72214788   8.130   5.342   2.393 -0.4629  0.7502  0.5074
   14MOL   C72314789   7.965   5.320   2.577 -0.1250  0.5496  0.2375
   14MOL   C72414790   8.051   5.381   2.668  0.0599  0.4350  0.1952
   14MOL   C72514791   8.007   5.410   2.798  0.6136  0.4351  0.3687
   14MOL   C72614792   7.874   5.395   2.834  0.6371  0.0283 -0.1194
   14MOL   O72714793   7.829   5.439   2.960 -0.3896  0.1013 -0.2468
   14MOL   C72814794   7.782   5.355   2.740 -0.1750 -0.4551 -0.0781
   14MOL   C72914795   7.827   5.305   2.614  0.1185 -0.4972  0.3045
   14MOL   C73014796   7.866   5.129   2.275  0.1057 -0.3382  0.4205
   14MOL   C73114797   7.772   5.132   2.169  0.3148 -0.1174  0.8627
   14MOL   C73214798   7.470   5.467   1.984 -0.2348 -0.5972  0.1834
   14MOL   C73314799   7.349   5.528   2.020  0.3846  0.2658 -0.0094
   14MOL   C73414800   7.100   5.812   2.099  0.1206  0.2943 -0.1121
   14MOL   C73514801   7.068   5.927   2.024 -0.2345 -0.1659 -0.4509
   14MOL   H73614802   6.919   5.769   1.765 -0.3535 -2.8906  0.1217
   14MOL   H73714803   6.994   5.575   1.879 -1.8186  0.7916  0.3268
   14MOL   H73814804   7.206   5.285   2.202  0.2515  0.2058  1.1151
   14MOL   H73914805   7.420   5.177   2.169  0.7881  0.2332  1.8304
   14MOL   H74014806   7.706   5.466   2.182  0.7609  0.1742 -0.9532
   14MOL   H74114807   7.888   5.460   2.335  1.8569 -0.7614 -2.1587
   14MOL   H74214808   8.144   5.094   2.375 -1.6919  1.5497 -0.8561
   14MOL   H74314809   8.021   5.036   2.491 -0.7695  1.0466 -0.4660
   14MOL   H74414810   8.177   5.118   2.539  0.0939  0.9414  0.1289
   14MOL   H74514811   8.218   5.349   2.456 -0.9570 -0.5106  1.3492
   14MOL   H74614812   8.170   5.314   2.296 -0.8184  1.3215  0.1894
   14MOL   H74714813   8.086   5.441   2.379  1.3702  1.2051 -2.6973
   14MOL   H74814814   8.158   5.389   2.653 -0.1131  0.0710 -1.3564
   14MOL   H74914815   8.085   5.463   2.851  1.1207 -1.0660  1.1544
   14MOL   H75014816   7.675   5.366   2.747 -0.1385 -0.6655  0.8400
   14MOL   H75114817   7.750   5.263   2.552 -0.9890 -2.8640  3.1608
   14MOL   H75214818   7.911   5.031   2.288 -1.7760 -1.4409 -1.0608
   14MOL   H75314819   7.739   5.036   2.131 -0.0085  0.7039 -0.9697
   14MOL   H75414820   7.539   5.523   1.923 -0.8293 -1.2616 -1.1164
   14MOL   H75514821   7.327   5.626   1.981 -1.8348 -0.2865 -0.2423
   14MOL   H75614822   7.153   5.826   2.192  1.5185 -0.3708 -0.7853
   14MOL   H75714823   7.092   6.023   2.067  1.6595 -0.5217 -0.6824
   14MOL   C75814824   7.712   5.390   3.008  0.8869 -0.3548  0.1212
   14MOL   C75914825   7.593   5.463   3.018 -0.6188  0.2052  0.4603
   14MOL   C76014826   7.474   5.400   3.056 -0.2524  0.1812  0.1882
   14MOL   C76114827   7.476   5.264   3.093 -0.5137 -0.3845 -0.3341
   14MOL   S76214828   7.318   5.191   3.139  0.0028  0.3763  0.0969
   14MOL   O76314829   7.212   5.290   3.105 -0.8728  0.2138  0.0421
   14MOL   O76414830   7.328   5.140   3.277 -0.0061 -0.6171  0.0110
   14MOL   C76514831   7.295   5.055   3.029 -0.1386  0.5991 -0.2394
   14MOL   C76614832   7.356   4.927   3.048  0.0826  0.7070  0.5039
   14MOL   C76714833   7.336   4.822   2.957 -0.3759 -0.1976  0.1356
   14MOL   C76814834   7.249   4.841   2.845 -0.1917 -0.2899 -0.0254
   14MOL   O76914835   7.224   4.742   2.753  0.3590 -0.4424 -0.3794
   14MOL   C77014836   7.131   4.641   2.787  0.1096 -0.1816 -1.2447
   14MOL   C77114837   6.997   4.680   2.818 -0.2397 -0.4071  0.1872
   14MOL   C77214838   6.900   4.583   2.845  0.0985  0.0585 -0.5975
   14MOL   C77314839   6.928   4.444   2.833  0.4413  0.0457  0.1420
   14MOL   C77414840   6.812   4.340   2.861  0.4983 -0.2736 -0.5702
   14MOL   C77514841   6.708   4.409   2.959  1.0506 -0.4452 -0.4921
   14MOL   C77614842   6.733   4.313   2.729  0.9458 -1.1554 -0.8391
   14MOL   C77714843   6.857   4.217   2.929 -0.2085  0.2700 -0.0101
   14MOL   C77814844   6.859   4.089   2.863  0.4997  0.4224  0.0753
   14MOL   C77914845   6.895   3.975   2.936 -0.0032  0.5131 -0.4905
   14MOL   C78014846   6.947   3.990   3.061  0.1323 -0.3580  0.5419
   14MOL   O78114847   6.981   3.878   3.131 -0.2964 -0.9671 -0.5541
   14MOL   C78214848   6.969   4.118   3.121 -0.9982  0.4222 -0.2653
   14MOL   C78314849   6.924   4.232   3.053 -0.1080  0.0840  0.4542
   14MOL   C78414850   7.062   4.404   2.813 -0.3269 -0.2115  0.3397
   14MOL   C78514851   7.165   4.505   2.793 -0.4191 -0.2505 -0.5533
   14MOL   C78614852   7.181   4.962   2.826  0.4909  0.2985  0.1668
   14MOL   C78714853   7.206   5.069   2.919 -0.7658 -0.5833 -0.4267
   14MOL   C78814854   7.595   5.195   3.103  0.1151 -0.2218  0.2407
   14MOL   C78914855   7.715   5.262   3.061 -0.7349  0.2925  0.1232
   14MOL   H79014856   7.596   5.568   2.993 -0.1531  0.8021  2.9163
   14MOL   H79114857   7.379   5.452   3.061  0.3757  1.1865  2.6991
   14MOL   H79214858   7.426   4.909   3.129  0.9888 -0.7735 -0.5784
   14MOL   H79314859   7.387   4.728   2.967 -0.7867 -0.3169  1.1331
   14MOL   H79414860   6.972   4.785   2.819 -0.6273 -0.4819 -1.1032
   14MOL   H79514861   6.804   4.621   2.877 -0.5694 -0.6890 -1.7014
   14MOL   H79614862   6.638   4.329   2.986 -1.7926  2.0703 -0.0655
   14MOL   H79714863   6.640   4.485   2.920 -1.2195 -1.2721  1.6543
   14MOL   H79814864   6.749   4.445   3.054 -3.6882  3.1245  0.3878
   14MOL   H79914865   6.651   4.244   2.747  0.9531 -0.8887  0.2655
   14MOL   H80014866   6.696   4.408   2.690 -0.5576 -1.0431  0.8068
   14MOL   H80114867   6.809   4.282   2.656  2.4456 -0.5372  0.4250
   14MOL   H80214868   6.813   4.079   2.766 -3.0454  0.5562  1.6400
   14MOL   H80314869   6.899   3.879   2.887  3.1557  0.3219 -0.0257
   14MOL   H80414870   7.011   4.131   3.220  1.0224  1.7137 -1.2536
   14MOL   H80514871   6.922   4.324   3.111 -0.3271 -0.6179  1.5840
   14MOL   H80614872   7.084   4.299   2.821 -1.6622 -0.4782  0.7855
   14MOL   H80714873   7.268   4.479   2.771 -0.6084 -1.2814 -0.2575
   14MOL   H80814874   7.117   4.988   2.744  1.0143 -2.0434 -1.0309
   14MOL   H80914875   7.150   5.159   2.899  0.4198 -0.0144 -1.2055
   14MOL   H81014876   7.588   5.095   3.144 -0.5747 -0.5391 -0.6550
   14MOL   H81114877   7.811   5.214   3.075 -1.6409 -0.6631  3.4793
   14MOL   C81214878   7.115   3.846   3.133  0.2381  0.0092  0.0306
   14MOL   C81314879   7.176   3.753   3.050  0.5375 -0.5286 -0.0400
   14MOL   C81414880   7.311   3.728   3.054 -0.4524  1.4897 -0.3120
   14MOL   C81514881   7.396   3.811   3.136 -0.1106 -0.3261  0.5604
   14MOL   S81614882   7.572   3.776   3.125  0.0611 -0.2861  0.4460
   14MOL   O81714883   7.626   3.828   2.999 -0.2948 -0.0172  0.4034
   14MOL   O81814884   7.574   3.637   3.162 -0.7725  0.0822  0.5976
   14MOL   C81914885   7.649   3.874   3.255  0.2772  0.6550 -0.4238
   14MOL   C82014886   7.693   3.815   3.373  0.0067 -0.1570 -0.6317
   14MOL   C82114887   7.758   3.898   3.470 -0.1789 -0.1467 -0.9880
   14MOL   C82214888   7.786   4.031   3.445  0.0592  0.3005  0.0759
   14MOL   O82314889   7.866   4.105   3.524 -0.1681  0.5021  0.0218
   14MOL   C82414890   7.814   4.172   3.636  0.0257 -0.4783 -0.1450
   14MOL   C82514891   7.822   4.309   3.646  0.1215  0.8070  1.2898
   14MOL   C82614892   7.771   4.369   3.763 -0.1915  0.2468 -0.3029
   14MOL   C82714893   7.730   4.289   3.876 -0.1544  0.0923  0.3932
   14MOL   C82814894   7.678   4.350   4.004 -0.3298  0.5043  0.1070
   14MOL   C82914895   7.729   4.495   4.021  1.3613 -0.0688 -0.5488
   14MOL   C83014896   7.525   4.347   3.984  0.2493  0.0435 -0.1148
   14MOL   C83114897   7.729   4.272   4.128  0.3427 -0.5113  0.3676
   14MOL   C83214898   7.650   4.241   4.239  0.0960  0.1577 -0.1521
   14MOL   C83314899   7.704   4.187   4.357 -0.7192  0.3472 -0.5317
   14MOL   C83414900   7.842   4.151   4.363  0.0256  0.1180 -0.1108
   14MOL   O83514901   7.892   4.071   4.466 -0.2445  0.5982 -0.3544
   14MOL   C83614902   7.917   4.171   4.249 -0.0929  0.8130  0.0292
   14MOL   C83714903   7.864   4.236   4.139 -0.6322 -0.9907  0.4204
   14MOL   C83814904   7.727   4.150   3.861 -0.3631  0.1029  0.4568
   14MOL   C83914905   7.756   4.095   3.738 -1.1000  0.2740  0.2487
   14MOL   C84014906   7.742   4.081   3.320  0.3469 -0.1212  0.4501
   14MOL   C84114907   7.663   4.008   3.231  0.2719 -0.2293  0.5287
   14MOL   C84214908   7.339   3.910   3.217 -1.0606  0.7612 -0.7528
   14MOL   C84314909   7.199   3.930   3.217 -0.0800 -0.0182  0.6230
   14MOL   H84414910   7.111   3.711   2.975  2.9255  0.6703 -2.9183
   14MOL   H84514911   7.358   3.666   2.980  1.2146  0.8701  1.2424
   14MOL   H84614912   7.683   3.709   3.388 -0.1559 -0.0950 -0.2897
   14MOL   H84714913   7.795   3.858   3.563 -0.8771  0.5916 -0.3756
   14MOL   H84814914   7.860   4.365   3.562  1.5157  1.0536  2.0743
   14MOL   H84914915   7.779   4.476   3.770 -0.5622  0.2494  0.0531
   14MOL   H85014916   7.700   4.537   4.117  0.4066  0.6938 -1.1668
   14MOL   H85114917   7.694   4.571   3.951  0.7563 -0.1925 -0.3815
   14MOL   H85214918   7.838   4.496   4.022  1.3679 -1.0655 -0.2471
   14MOL   H85314919   7.485   4.246   3.971 -2.6537  1.1191  0.2049
   14MOL   H85414920   7.479   4.382   4.076  1.7724 -0.3612  0.8163
   14MOL   H85514921   7.486   4.400   3.897 -1.0942 -0.8794 -0.0961
   14MOL   H85614922   7.545   4.268   4.237 -0.3180 -1.3486  0.3084
   14MOL   H85714923   7.649   4.157   4.446 -0.4225  0.4598 -0.3099
   14MOL   H85814924   8.024   4.154   4.250 -0.4620 -1.9442 -1.6482
   14MOL   H85914925   7.931   4.269   4.060  1.4063 -1.6139  1.8471
   14MOL   H86014926   7.689   4.082   3.937  2.1166 -1.1945  0.5923
   14MOL   H86114927   7.765   3.987   3.730  0.9599  0.5939 -2.6391
   14MOL   H86214928   7.755   4.184   3.291 -0.1085 -0.5115 -1.1684
   14MOL   H86314929   7.616   4.052   3.145 -2.5108 -0.1063  2.0422
   14MOL   H86414930   7.394   3.978   3.281  1.3565 -0.5947 -1.3532
   14MOL   H86514931   7.157   4.006   3.281 -2.1842 -1.2083  0.7215
   14MOL   C86614932   8.007   4.100   4.529  0.0441  0.4673  0.6462
   14MOL   C86714933   8.010   4.183   4.638 -0.2578 -1.0106 -0.3381
   14MOL   C86814934   8.130   4.216   4.702  0.0842 -0.3781  0.2157
   14MOL   C86914935   8.250   4.157   4.653 -0.4732  1.2263 -1.0194
   14MOL   S87014936   0.153   4.196   4.735  0.1328 -0.4624  0.8793
   14MOL   O87114937   0.139   4.334   4.784 -0.8625  0.1512 -0.0890
   14MOL   O87214938   0.268   4.160   4.651  0.1016  0.4796  0.1599
   14MOL   C87314939   0.154   4.091   4.878  0.5777  1.0550 -0.2792
   14MOL   C87414940   0.074   4.127   4.990 -0.1936  0.1720  0.4069
   14MOL   C87514941   0.072   4.039   5.100 -0.0989 -0.6033 -0.1566
   14MOL   C87614942   0.163   3.932   5.107 -0.0441  0.2829 -0.1909
   14MOL   O87714943   0.168   3.837   5.208  0.2220 -0.4271  0.6687
   14MOL   C87814944   0.064   3.748   5.208 -0.1954  0.4884 -0.1067
   14MOL   C87914945   8.227   3.762   5.311  0.1808 -0.0494  0.1075
   14MOL   C88014946   8.127   3.668   5.327 -0.3135  0.7489  1.1284
   14MOL   C88114947   8.115   3.557   5.240 -0.2845  0.0605  0.0182
   14MOL   C88214948   8.012   3.445   5.271 -0.3626 -0.2932 -0.4805
   14MOL   C88314949   8.000   3.358   5.152 -0.1586 -0.1447  0.0352
   14MOL   C88414950   8.062   3.359   5.392  0.5439  0.2232  0.1418
   14MOL   C88514951   7.871   3.512   5.299 -0.1183  0.5502  0.6674
   14MOL   C88614952   7.822   3.527   5.427 -0.3277 -0.2224 -0.1747
   14MOL   C88714953   7.694   3.580   5.453  0.0730 -0.7638 -0.1027
   14MOL   C88814954   7.611   3.625   5.351 -0.0505  0.0569 -0.0426
   14MOL   O88914955   7.491   3.686   5.378  0.7527 -0.0211  0.0702
   14MOL   C89014956   7.666   3.620   5.223  0.1680 -0.2706  0.4105
   14MOL   C89114957   7.788   3.553   5.191 -0.6402  0.3591 -0.0495
   14MOL   C89214958   8.205   3.551   5.129 -0.8970  0.4720 -0.0913
   14MOL   C89314959   0.053   3.645   5.113 -0.1823 -0.0341 -0.1526
   14MOL   C89414960   0.254   3.905   5.004 -0.4906 -0.3082 -0.1613
   14MOL   C89514961   0.237   3.975   4.888  0.0507  0.6763  0.1579
   14MOL   C89614962   8.250   4.064   4.546  0.4971 -0.4516 -0.2188
   14MOL   C89714963   8.123   4.036   4.485  0.1733 -0.5042  0.0046
   14MOL   H89814964   7.918   4.226   4.675  1.3601  0.4666  2.1004
   14MOL   H89914965   8.135   4.289   4.782  1.4043 -0.9186  0.6418
   14MOL   H90014966   0.023   4.222   4.995 -0.9747 -0.2286 -0.0652
   14MOL   H90114967   0.003   4.064   5.179 -0.7254  1.3552 -1.2997
   14MOL   H90214968   8.233   3.843   5.383 -1.1585 -1.7922  2.2415
   14MOL   H90314969   8.060   3.668   5.412 -1.5321 -3.9474  0.3238
   14MOL   H90414970   7.914   3.294   5.168 -0.5983  0.4579  0.1021
   14MOL   H90514971   8.089   3.295   5.141 -1.2661 -2.1318  2.1167
   14MOL   H90614972   7.987   3.412   5.058  1.6243  1.0243  0.4169
   14MOL   H90714973   8.087   3.404   5.487  1.5780 -0.7419  0.3345
   14MOL   H90814974   7.984   3.284   5.409 -1.1000  1.8233 -0.1942
   14MOL   H90914975   8.157   3.311   5.369 -0.5539 -1.7150 -0.5084
   14MOL   H91014976   7.879   3.492   5.512  1.2776  2.2534 -0.1658
   14MOL   H91114977   7.658   3.579   5.555  0.3454 -0.0303  0.0025
   14MOL   H91214978   7.612   3.674   5.146 -1.0691  0.7171  1.9425
   14MOL   H91314979   7.815   3.541   5.087 -0.1403  1.5236 -0.0692
   14MOL   H91414980   8.209   3.478   5.050 -2.8787  0.7667 -0.5055
   14MOL   H91514981   0.117   3.642   5.026 -0.6913 -0.5810 -0.5140
   14MOL   H91614982   0.328   3.826   5.012  0.2161  0.6580  3.6647
   14MOL   H91714983   0.295   3.956   4.799  1.7384 -0.1696  1.4106
   14MOL   H91814984   0.092   4.024   4.516  0.4648 -2.7568  2.5449
   14MOL   H91914985   8.134   3.980   4.393 -0.8302 -0.9581  0.1600
   14MOL   C92014986   7.380   3.664   5.312 -0.2242  0.5145  0.5521
   14MOL   C92114987   7.355   3.544   5.243 -0.1996  0.2042  1.7483
   14MOL   C92214988   7.235   3.519   5.184 -0.4114  0.3710  0.0974
   14MOL   C92314989   7.133   3.615   5.206  0.5011  0.3729  0.0811
   14MOL   S92414990   6.962   3.571   5.167 -0.2181 -0.2136 -0.1074
   14MOL   O92514991   6.926   3.647   5.050  0.0329  0.9405 -0.7318
   14MOL   O92614992   6.884   3.595   5.293  0.3095  0.3646  0.1291
   14MOL   C92714993   6.960   3.403   5.121 -0.0936  0.6020  0.6093
   14MOL   C92814994   6.900   3.305   5.204 -0.3063  0.2729 -0.1697
   14MOL   C92914995   6.901   3.170   5.174  0.0630  0.5284  0.5702
   14MOL   C93014996   6.955   3.129   5.052  0.3439  0.4732  0.1587
   14MOL   O93114997   6.973   3.002   5.017  0.3336 -0.2475 -0.6183
   14MOL   C93214998   6.981   2.902   5.110 -0.7688  0.1780  0.4455
   14MOL   C93314999   6.903   2.787   5.097 -0.3176 -0.1413  0.3082
   14MOL   C93415000   6.901   2.688   5.199 -0.1672 -0.0676 -0.2830
   14MOL   C93515001   6.992   2.694   5.311 -0.4007  0.2354 -0.1071
   14MOL   C93615002   7.006   2.570   5.398  0.2462  0.2908 -0.2214
   14MOL   C93715003   7.054   2.618   5.535 -1.1254  0.2750 -0.0653
   14MOL   C93815004   6.870   2.499   5.419 -0.2218 -1.6544 -0.3301
   14MOL   C93915005   7.099   2.465   5.344  0.0404  0.8000 -0.6002
   14MOL   C94015006   7.100   2.327   5.393 -0.3245  0.2547  0.3937
   14MOL   C94115007   7.202   2.238   5.345  0.2657  0.1820 -0.0061
   14MOL   C94215008   7.301   2.279   5.258 -0.1492 -0.3919 -0.3363
   14MOL   O94315009   7.405   2.202   5.226 -0.2651  0.2523 -0.3968
   14MOL   C94415010   7.298   2.408   5.208  0.0738 -0.5361  0.1813
   14MOL   C94515011   7.200   2.501   5.251 -0.2979 -1.0107  0.1264
   14MOL   C94615012   7.076   2.810   5.321  0.4898 -0.1543  0.1673
   14MOL   C94715013   7.062   2.911   5.226 -0.0713 -0.2268 -0.3107
   14MOL   C94815014   7.022   3.222   4.973  0.3552 -0.8833  0.0286
   14MOL   C94915015   7.022   3.361   5.002  0.8729  0.4039  0.2306
   14MOL   C95015016   7.160   3.739   5.258  0.3499 -0.3478 -0.4759
   14MOL   C95115017   7.283   3.761   5.316 -0.9752  0.4064 -0.1497
   14MOL   H95215018   7.427   3.465   5.260 -0.7180 -0.8941 -0.9664
   14MOL   H95315019   7.219   3.421   5.142 -3.5354  0.5168  0.8468
   14MOL   H95415020   6.845   3.347   5.287 -0.9054 -0.1691 -0.3424
   14MOL   H95515021   6.840   3.099   5.228 -0.7482  1.7392  1.2690
   14MOL   H95615022   6.828   2.786   5.019 -1.8174  2.6465  1.6256
   14MOL   H95715023   6.827   2.611   5.184 -0.4932 -0.1270  1.5631
   14MOL   H95815024   7.152   2.665   5.544 -0.2660 -1.3963 -0.3885
   14MOL   H95915025   7.059   2.542   5.614  0.6396  2.1883  1.7272
   14MOL   H96015026   6.990   2.698   5.572  0.3781  0.4875  2.2134
   14MOL   H96115027   6.873   2.429   5.502  0.9737 -1.2326 -0.0131
   14MOL   H96215028   6.796   2.575   5.445  2.4552  0.5473  1.1533
   14MOL   H96315029   6.831   2.448   5.331 -3.2057  1.1782 -0.7725
   14MOL   H96415030   7.029   2.287   5.464 -0.7046  0.9879  0.4230
   14MOL   H96515031   7.201   2.133   5.373 -1.3508 -0.0988 -1.0694
   14MOL   H96615032   7.373   2.441   5.138  0.3985 -2.8602 -0.5914
   14MOL   H96715033   7.210   2.604   5.221  2.3533 -0.7829  1.5866
   14MOL   H96815034   7.152   2.835   5.394  3.1547 -2.5668 -1.6669
   14MOL   H96915035   7.120   3.001   5.238 -0.6088  0.0366  0.3192
   14MOL   H97015036   7.084   3.192   4.889 -0.1494 -2.4410  0.1843
   14MOL   H97115037   7.093   3.417   4.943  0.0516 -2.2865 -3.4776
   14MOL   H97215038   7.080   3.810   5.271  1.7117  1.2092 -0.4234
   14MOL   H97315039   7.304   3.853   5.368 -1.5475  0.7605 -0.5367
   14MOL   C97415040   7.408   2.113   5.118  0.0850  1.0222 -0.9186
   14MOL   C97515041   7.341   1.989   5.121  0.0528  0.0201  0.1501
   14MOL   C97615042   7.370   1.892   5.020  0.7253 -0.1680 -0.6835
   14MOL   C97715043   7.442   1.931   4.907  0.5991 -0.4853 -0.0916
   14MOL   S97815044   7.481   1.823   4.770 -0.0405  0.1801 -0.5135
   14MOL   O97915045   7.434   1.885   4.647 -0.4454  0.7260 -0.3688
   14MOL   O98015046   7.430   1.687   4.802 -0.3176 -0.1525 -0.5555
   14MOL   C98115047   7.657   1.827   4.770  0.3136  0.2814  0.2997
   14MOL   C98215048   7.721   1.879   4.654  0.1521  0.3426  0.1923
   14MOL   C98315049   7.862   1.878   4.655 -0.2894  0.3987 -0.0189
   14MOL   C98415050   7.942   1.825   4.758  0.2487  0.9863  0.1056
   14MOL   O98515051   8.074   1.820   4.733 -0.2207 -0.8190 -0.4384
   14MOL   C98615052   8.159   1.873   4.827  0.2520 -0.0387  0.0436
   14MOL   C98715053   8.204   1.999   4.807 -0.5577 -0.2894  0.0882
   14MOL   C98815054   0.043   2.053   4.899  0.1701  0.2344  0.2556
   14MOL   C98915055   0.085   1.983   5.016  0.2522  0.5029 -0.3174
   14MOL   C99015056   0.179   2.033   5.123 -0.0138 -0.1239  0.4845
   14MOL   C99115057   0.161   2.187   5.134 -0.0300  0.3975  0.9300
   14MOL   C99215058   0.139   1.981   5.260  0.2237  0.1371  0.5300
   14MOL   C99315059   0.323   1.997   5.093 -0.5734 -0.1982 -0.4966
   14MOL   C99415060   0.427   2.064   5.158 -1.0164  0.1338  0.5296
   14MOL   C99515061   0.564   2.028   5.144 -0.4674 -0.1203 -0.3865
   14MOL   C99615062   0.595   1.921   5.055 -0.6257  0.0916 -0.2118
   14MOL   O99715063   0.728   1.880   5.042  0.2715 -0.5228  0.6114
   14MOL   C99815064   0.498   1.845   4.990  0.1956  0.3170 -0.7310
   14MOL   C99915065   0.360   1.886   5.012 -0.1242  0.4023 -1.1082
   14MOL     C115066   0.029   1.853   5.034 -0.6854  0.5063  0.6357
   14MOL     C215067   8.200   1.798   4.941 -0.6727  0.3375  0.3719
   14MOL     C315068   7.875   1.779   4.875  0.2505  0.1844  0.1756
   14MOL     C415069   7.736   1.787   4.885  0.7439  0.3761 -0.1861
   14MOL     C515070   7.495   2.061   4.895  0.1285 -0.4995  1.0833
   14MOL     C615071   7.483   2.150   5.008  0.0868  0.0536  0.5791
   14MOL     H715072   7.282   1.962   5.207  0.6737  0.1728  0.6304
   14MOL     H815073   7.317   1.798   5.022 -1.7460  1.2081  0.2827
   14MOL     H915074   7.665   1.909   4.567 -0.1921  1.8507  0.9352
   14MOL    H1015075   7.923   1.917   4.575 -0.9285  0.0928 -0.6559
   14MOL    H1115076   8.172   2.052   4.718  3.8627 -0.5321 -1.7970
   14MOL    H1215077   0.081   2.149   4.866 -0.8546  1.7512  3.3302
   14MOL    H1315078   0.194   2.244   5.048 -1.0142  2.0165  1.6046
   14MOL    H1415079   0.214   2.226   5.221  0.4529  0.4446  0.6178
   14MOL    H1515080   0.054   2.198   5.149  0.1833 -0.5588  3.4518
   14MOL    H1615081   0.034   1.987   5.286  0.0894  0.5491 -0.0862
   14MOL    H1715082   0.162   1.875   5.270  2.6127  0.6578  0.7950
   14MOL    H1815083   0.196   2.025   5.341  0.2338 -0.1924  0.7029
   14MOL    H1915084   0.414   2.142   5.231 -2.3454 -0.3750  0.8529
   14MOL    H2015085   0.638   2.076   5.207 -0.2426 -1.3271  0.2931
   14MOL    H2115086   0.523   1.762   4.926  0.8731 -0.7453  0.8759
   14MOL    H2215087   0.282   1.827   4.966 -2.2013  2.1931  0.0418
   14MOL    H2315088   0.054   1.793   5.120  0.1362 -1.3284 -0.8502
   14MOL    H2415089   8.185   1.692   4.950  2.6404 -0.1678  0.5614
   14MOL    H2515090   7.930   1.741   4.960  2.3730  1.2222 -0.7020
   14MOL    H2615091   7.672   1.752   4.965  0.4167  0.3659 -0.4480
   14MOL    H2715092   7.536   2.096   4.801 -2.6497  1.0839  0.4124
   14MOL    H2815093   7.521   2.251   5.014 -0.0151  0.0231  1.9468
   14MOL    C2915094   0.792   1.877   4.918  0.0303 -0.0467  0.1561
   14MOL    C3015095   0.901   1.795   4.895 -0.0648  0.0134 -0.8380
   14MOL    C3115096   0.977   1.790   4.777  0.7341 -0.1223 -0.1207
   14MOL    C3215097   0.948   1.880   4.673 -0.3680  0.0121  0.6662
   14MOL    S3315098   1.054   1.882   4.527  0.2707  0.0518  0.4303
   14MOL    O3415099   1.078   1.743   4.487  0.0867  0.3438 -0.6058
   14MOL    O3515100   1.168   1.960   4.571  0.2040  0.3342  0.1102
   14MOL    C3615101   0.971   1.963   4.395  0.3211  0.4030  0.1853
   14MOL    C3715102   1.028   2.072   4.326 -0.3650  0.1134  0.0491
   14MOL    C3815103   0.965   2.140   4.223  0.6335 -0.3039  0.1883
   14MOL    C3915104   0.843   2.090   4.172  0.9536  0.4647 -0.2043
   14MOL    O4015105   0.782   2.141   4.056  0.1260 -0.3106 -0.2491
   14MOL    C4115106   0.843   2.246   3.990 -0.0996 -0.2277  0.5046
   14MOL    C4215107   0.937   2.223   3.886 -0.2551 -0.2667  0.0821
   14MOL    C4315108   0.998   2.330   3.820 -0.0115  0.0777  0.2324
   14MOL    C4415109   0.962   2.463   3.851 -0.5806  0.0041 -0.4264
   14MOL    C4515110   1.013   2.570   3.758  0.0786 -0.9279 -0.1223
   14MOL    C4615111   1.114   2.533   3.652 -0.2039 -0.0124  0.6731
   14MOL    C4715112   0.890   2.610   3.678 -0.5479  0.2844  0.1734
   14MOL    C4815113   1.079   2.674   3.855 -0.1368 -0.3768 -0.0502
   14MOL    C4915114   1.150   2.638   3.970  0.7895  0.0010 -0.0284
   14MOL    C5015115   1.214   2.732   4.048  0.0817  0.6286 -0.1580
   14MOL    C5115116   1.212   2.865   4.011 -0.8228  0.2333 -0.2978
   14MOL    O5215117   1.278   2.958   4.091  0.1188 -0.0318 -0.4433
   14MOL    C5315118   1.149   2.906   3.889 -0.0164  0.0967 -0.0499
   14MOL    C5415119   1.086   2.809   3.813  0.3335 -0.9749  0.3137
   14MOL    C5515120   0.881   2.488   3.960 -0.1590  0.8038 -0.1088
   14MOL    C5615121   0.822   2.380   4.032 -0.4383  0.2657 -0.2087
   14MOL    C5715122   0.783   1.980   4.236  1.0077  0.4175  0.1463
   14MOL    C5815123   0.847   1.912   4.348  0.3606 -0.6029 -0.4582
   14MOL    C5915124   0.844   1.972   4.692  0.2629 -0.1558  0.4264
   14MOL    C6015125   0.764   1.970   4.812 -0.1034  0.8569 -0.5515
   14MOL    H6115126   0.929   1.722   4.970  1.3437  0.6444 -0.7389
   14MOL    H6215127   1.048   1.709   4.769 -1.3138 -2.1258  1.4670
   14MOL    H6315128   1.126   2.111   4.352  0.5023 -1.0777 -1.3680
   14MOL    H6415129   1.019   2.218   4.173  0.2738 -0.5743 -0.6347
   14MOL    H6515130   0.956   2.123   3.850 -1.3496 -1.0930  1.7452
   14MOL    H6615131   1.065   2.311   3.737 -1.5881  0.5473 -1.1844
   14MOL    H6715132   1.133   2.612   3.580 -0.6375 -0.1329  0.4318
   14MOL    H6815133   1.072   2.458   3.586  1.1130  1.0668 -1.4544
   14MOL    H6915134   1.213   2.498   3.685 -0.3937 -1.6970 -0.4928
   14MOL    H7015135   0.807   2.639   3.743 -0.6783  0.4218 -0.0508
   14MOL    H7115136   0.911   2.692   3.609  0.1617 -0.7315 -0.8364
   14MOL    H7215137   0.866   2.524   3.615  0.0724  1.1473 -1.2578
   14MOL    H7315138   1.155   2.531   3.983  0.8176 -0.1581 -1.2548
   14MOL    H7415139   1.253   2.708   4.146 -1.2768 -0.5726  0.1092
   14MOL    H7515140   1.169   3.006   3.855  0.2000 -0.6308 -2.1194
   14MOL    H7615141   1.049   2.832   3.714  0.1242 -1.9828  0.1518
   14MOL    H7715142   0.865   2.588   3.999  2.6250  0.7772  1.2694
   14MOL    H7815143   0.753   2.406   4.111  1.1786  0.0382  1.2987
   14MOL    H7915144   0.697   1.938   4.186  1.4220 -0.4533  0.1620
   14MOL    H8015145   0.801   1.818   4.373 -2.0504  0.1389 -1.8819
   14MOL    H8115146   0.834   2.055   4.623  0.3264 -0.3961  0.1283
   14MOL    H8215147   0.693   2.048   4.832 -0.8387  0.1346 -0.3117
   14MOL    H8315148   1.294   3.037   4.041 -2.3670  1.5679  1.1870
   15MOL     C115149   2.186   2.955   6.952  0.6149 -0.2111  0.3200
   15MOL     C215150   2.216   2.908   7.081 -0.4482  0.4692 -0.6160
   15MOL     C315151   2.267   2.991   7.175  0.4623  0.3433 -0.4607
   15MOL     C415152   2.292   3.122   7.147 -0.2807  0.0675  0.1047
   15MOL     S515153   2.361   3.227   7.272  0.1447 -0.8186 -0.0511
   15MOL     O615154   2.445   3.141   7.353  0.3357  0.0579 -0.4907
   15MOL     O715155   2.249   3.301   7.334  0.0410 -0.1396  0.7086
   15MOL     C815156   2.469   3.341   7.193 -0.1529 -0.1905 -0.4946
   15MOL     C915157   2.595   3.301   7.161  0.1909 -0.4483  0.1471
   15MOL    C1015158   2.672   3.394   7.091 -0.3341 -0.5501 -0.6964
   15MOL    C1115159   2.628   3.523   7.052 -0.4803  0.2274 -0.2213
   15MOL    O1215160   2.713   3.611   6.991 -0.1759 -0.5298  0.2234
   15MOL    C1315161   2.697   3.628   6.854  0.2644 -0.7528 -1.2081
   15MOL    C1415162   2.599   3.561   6.776 -0.0878  0.1149 -0.6432
   15MOL    C1515163   2.599   3.567   6.637  0.0309 -0.4840  0.0148
   15MOL    C1615164   2.698   3.654   6.574 -0.4020 -0.3627  0.3522
   15MOL    C1715165   2.710   3.650   6.419 -0.6762  0.3526 -0.4553
   15MOL    C1815166   2.712   3.502   6.368  0.0459 -0.3761 -0.0959
   15MOL    C1915167   2.578   3.720   6.366  0.0609  0.0196  0.2519
   15MOL    C2015168   2.825   3.723   6.353 -0.4916 -0.6151  0.7090
   15MOL    C2115169   2.956   3.666   6.348 -0.4841  0.0895  0.2550
   15MOL    C2215170   3.057   3.729   6.275  0.3919 -0.2596 -0.3319
   15MOL    C2315171   3.033   3.838   6.190 -0.7641  0.4581  0.1839
   15MOL    O2415172   3.134   3.895   6.118  0.1232  0.4296  0.2968
   15MOL    C2515173   2.904   3.897   6.191  0.1904  0.1543 -0.1070
   15MOL    C2615174   2.808   3.843   6.274  0.4261  0.2562  0.0923
   15MOL    C2715175   2.790   3.725   6.655 -0.4764 -0.0624 -0.2668
   15MOL    C2815176   2.789   3.708   6.792  0.5088 -0.5099 -0.4879
   15MOL    C2915177   2.497   3.563   7.095 -0.1311 -0.5629 -0.3463
   15MOL    C3015178   2.421   3.470   7.161  0.0329 -0.2009 -0.3260
   15MOL    C3115179   2.264   3.175   7.017  0.2759  0.2214 -0.6846
   15MOL    C3215180   2.199   3.097   6.923 -0.5625  1.1758  0.2717
   15MOL    H3315181   2.201   2.804   7.109 -1.9303  0.6878 -0.5222
   15MOL    H3415182   2.288   2.951   7.273 -0.7456  1.8540  0.4269
   15MOL    H3515183   2.632   3.202   7.182  2.9371  0.5208 -0.0191
   15MOL    H3615184   2.773   3.363   7.070 -0.8962 -2.8679 -0.0505
   15MOL    H3715185   2.520   3.496   6.812 -0.6953  1.3746  0.3532
   15MOL    H3815186   2.522   3.519   6.580  0.8151 -3.1748  1.1202
   15MOL    H3915187   2.796   3.452   6.416  0.2821  0.3785  0.2847
   15MOL    H4015188   2.735   3.489   6.263  0.7533  2.0986 -0.2646
   15MOL    H4115189   2.617   3.449   6.378 -0.2894  0.1461 -0.4971
   15MOL    H4215190   2.562   3.709   6.259  0.3632 -0.7317  0.2741
   15MOL    H4315191   2.481   3.681   6.397 -0.3969  1.0316  0.1115
   15MOL    H4415192   2.572   3.826   6.390  0.5947  0.0449  0.2769
   15MOL    H4515193   2.984   3.579   6.406 -0.3078  0.9456  1.4892
   15MOL    H4615194   3.160   3.696   6.276  0.0255 -1.3809  0.1572
   15MOL    H4715195   2.885   3.984   6.131 -0.2780  0.3628  0.3428
   15MOL    H4815196   2.717   3.901   6.275  0.5167  0.3945  0.4805
   15MOL    H4915197   2.865   3.796   6.622 -0.5461  2.1998  4.1037
   15MOL    H5015198   2.864   3.755   6.853 -0.2891  0.2845 -0.1159
   15MOL    H5115199   2.463   3.663   7.070 -0.5925 -0.2683  1.3884
   15MOL    H5215200   2.324   3.498   7.200 -0.3040 -0.6460 -0.8456
   15MOL    H5315201   2.298   3.271   6.982  0.7905 -0.1487 -1.2040
   15MOL    H5415202   2.171   3.130   6.824 -0.6931 -0.4484 -0.2557
   15MOL    H5515203   2.147   2.882   6.882 -0.3886  0.0403  0.6072
   15MOL    C5615204   3.156   3.852   5.987  0.2064  0.1997 -0.7836
   15MOL    C5715205   3.164   3.944   5.882 -0.6667 -0.0513  0.2955
   15MOL    C5815206   3.208   3.901   5.756  0.0954  1.1243 -0.1574
   15MOL    C5915207   3.232   3.764   5.729 -0.1274 -0.5638  0.4784
   15MOL    S6015208   3.307   3.700   5.581  0.3045 -0.2716  0.5760
   15MOL    O6115209   3.439   3.647   5.617  0.1094  0.0129  0.1791
   15MOL    O6215210   3.316   3.810   5.484  0.2995 -0.1283 -0.5597
   15MOL    C6315211   3.204   3.566   5.512  0.7001  0.5567  0.1705
   15MOL    C6415212   3.213   3.436   5.559  0.1417  0.1703  0.3874
   15MOL    C6515213   3.126   3.341   5.506  0.3340  0.7930 -0.2473
   15MOL    C6615214   3.030   3.373   5.409 -0.5489 -0.4636  0.2190
   15MOL    O6715215   2.960   3.269   5.353 -1.0789  0.2203 -0.0049
   15MOL    C6815216   2.832   3.243   5.401  0.0299  0.0628  0.1795
   15MOL    C6915217   2.801   3.110   5.438  0.1813  0.1504 -0.2516
   15MOL    C7015218   2.678   3.086   5.504 -0.4283  0.4108 -0.0357
   15MOL    C7115219   2.581   3.194   5.523 -0.0338  0.1872 -0.2581
   15MOL    C7215220   2.446   3.169   5.591 -0.8154 -0.3194  0.0900
   15MOL    C7315221   2.473   3.108   5.735  0.9002  0.0674  0.0815
   15MOL    C7415222   2.364   3.295   5.619  0.3345 -0.6173  0.2906
   15MOL    C7515223   2.370   3.082   5.498  0.0391  0.7099  0.5431
   15MOL    C7615224   2.352   3.122   5.367  0.3150 -0.7639  0.3538
   15MOL    C7715225   2.305   3.036   5.265  0.3723 -0.6240  0.3454
   15MOL    C7815226   2.265   2.908   5.297 -0.0404  0.8894 -0.6311
   15MOL    O7915227   2.203   2.827   5.203 -0.2757  0.3872 -0.3467
   15MOL    C8015228   2.272   2.867   5.434 -0.4105  0.8650 -0.0951
   15MOL    C8115229   2.333   2.950   5.536  0.3250 -0.2838 -0.4845
   15MOL    C8215230   2.612   3.317   5.468 -0.3653 -0.3591  0.1016
   15MOL    C8315231   2.737   3.348   5.405  0.1470  0.3876 -0.1821
   15MOL    C8415232   3.025   3.505   5.357  0.5549 -0.4059  0.1282
   15MOL    C8515233   3.115   3.602   5.405 -0.1381 -0.7562 -0.1609
   15MOL    C8615234   3.204   3.673   5.832 -0.2513  0.0371 -0.5943
   15MOL    C8715235   3.161   3.715   5.962 -0.4786  0.1966 -0.1334
   15MOL    H8815236   3.164   4.050   5.904 -0.2310 -0.6736  3.4807
   15MOL    H8915237   3.225   3.978   5.683 -1.8984 -0.4250 -2.3478
   15MOL    H9015238   3.291   3.416   5.630  2.2210  3.5470 -0.8607
   15MOL    H9115239   3.135   3.247   5.557 -4.5809  0.5000  0.3203
   15MOL    H9215240   2.878   3.035   5.427  0.3056  0.3367 -0.6641
   15MOL    H9315241   2.656   2.985   5.536  1.3546 -0.1862 -0.5994
   15MOL    H9415242   2.381   3.081   5.787  0.0820  1.0141 -0.8707
   15MOL    H9515243   2.534   3.176   5.794 -1.0607  1.1420  0.9026
   15MOL    H9615244   2.530   3.014   5.736 -0.5453 -0.8271 -0.1779
   15MOL    H9715245   2.272   3.274   5.673  1.3072 -0.9661  1.8377
   15MOL    H9815246   2.418   3.360   5.687 -0.1225  0.5329 -0.4217
   15MOL    H9915247   2.332   3.338   5.524 -2.2103 -1.2278  0.8215
   15MOL   H10015248   2.392   3.216   5.334 -0.7570 -0.8255 -1.1869
   15MOL   H10115249   2.299   3.090   5.171  1.2992  0.7347  1.0485
   15MOL   H10215250   2.246   2.765   5.459  1.2528  0.7569  1.3183
   15MOL   H10315251   2.346   2.908   5.635  0.3965  1.1917  0.1564
   15MOL   H10415252   2.547   3.403   5.473  1.7985  1.3641 -0.1334
   15MOL   H10515253   2.765   3.447   5.371  1.0491  0.1881 -0.0045
   15MOL   H10615254   2.960   3.532   5.274  1.7311  1.7434 -0.1260
   15MOL   H10715255   3.106   3.706   5.380 -0.8111 -0.4355  1.3419
   15MOL   H10815256   3.237   3.571   5.814  0.0057 -0.1486  0.8760
   15MOL   H10915257   3.146   3.638   6.036  2.4209  0.1216  0.4077
   15MOL   C11015258   2.294   2.727   5.171 -0.6084  0.4441  0.2799
   15MOL   C11115259   2.276   2.595   5.215 -1.2338 -0.0924 -0.3470
   15MOL   C11215260   2.370   2.498   5.177 -0.0380 -0.3402  0.2722
   15MOL   C11315261   2.488   2.526   5.108 -0.1637  0.1948 -0.2760
   15MOL   S11415262   2.617   2.405   5.080  0.4144  0.0547  0.2084
   15MOL   O11515263   2.684   2.439   4.955  0.2620 -0.0180 -0.1163
   15MOL   O11615264   2.560   2.270   5.091 -0.3374 -0.1982 -0.1532
   15MOL   C11715265   2.723   2.420   5.225  0.6089 -0.0585  0.4408
   15MOL   C11815266   2.671   2.462   5.346  0.0064 -0.3483 -0.1421
   15MOL   C11915267   2.751   2.469   5.463  0.4572  0.8204 -0.7188
   15MOL   C12015268   2.889   2.447   5.458  0.5721  0.5253 -0.3182
   15MOL   O12115269   2.962   2.465   5.572 -0.3126 -0.2572 -0.2974
   15MOL   C12215270   3.061   2.376   5.611 -0.1104  0.1814  0.4780
   15MOL   C12315271   3.034   2.237   5.634 -0.4938  0.2780  0.3357
   15MOL   C12415272   3.138   2.149   5.672 -0.5053 -0.0384  0.0384
   15MOL   C12515273   3.266   2.203   5.705 -0.0583  0.5510 -0.9819
   15MOL   C12615274   3.370   2.107   5.757  0.4657 -0.4266 -0.9075
   15MOL   C12715275   3.504   2.177   5.770  0.4819 -0.3448  0.3112
   15MOL   C12815276   3.327   2.063   5.902 -0.0024  0.0307  0.2403
   15MOL   C12915277   3.385   1.987   5.659 -0.2515 -0.4806 -0.1350
   15MOL   C13015278   3.445   2.006   5.533 -0.2276 -0.5968 -0.4378
   15MOL   C13115279   3.456   1.898   5.439 -0.0492 -0.5649  0.1936
   15MOL   C13215280   3.396   1.773   5.473  0.5252  0.4588  0.2040
   15MOL   O13315281   3.399   1.670   5.380  0.2801  0.3570 -0.0231
   15MOL   C13415282   3.342   1.751   5.602 -0.6335 -0.2079 -0.3868
   15MOL   C13515283   3.334   1.857   5.688 -0.5523  0.3000  0.1166
   15MOL   C13615284   3.292   2.341   5.693 -0.1162 -0.6214 -0.3821
   15MOL   C13715285   3.188   2.427   5.644 -0.0871  0.6328  0.1358
   15MOL   C13815286   2.947   2.429   5.326 -0.1794 -0.5591  0.1983
   15MOL   C13915287   2.866   2.410   5.211  0.1098 -0.3679 -0.6258
   15MOL   C14015288   2.512   2.659   5.069 -0.4773 -0.7357  0.3663
   15MOL   C14115289   2.414   2.755   5.097  0.0248 -0.0388 -0.1917
   15MOL   H14215290   2.189   2.570   5.274 -0.2127 -0.7469  0.9039
   15MOL   H14315291   2.348   2.398   5.210 -0.8455 -0.1471  0.3473
   15MOL   H14415292   2.565   2.474   5.363  0.0907  1.2919 -0.6693
   15MOL   H14515293   2.712   2.470   5.564  0.0616 -6.0568 -0.5695
   15MOL   H14615294   2.933   2.198   5.627 -0.1172 -0.7248  0.3609
   15MOL   H14715295   3.119   2.045   5.693 -0.6367 -0.2051 -0.9044
   15MOL   H14815296   3.576   2.108   5.812  0.0794  0.3682  2.1961
   15MOL   H14915297   3.503   2.273   5.822 -2.8847  1.2015 -2.3539
   15MOL   H15015298   3.547   2.207   5.674 -2.8006 -0.4623 -1.2711
   15MOL   H15115299   3.228   2.017   5.903 -0.3978  0.9020  1.1321
   15MOL   H15215300   3.402   1.999   5.949  0.7496  1.5205  1.1259
   15MOL   H15315301   3.323   2.153   5.963 -0.6059 -0.1406  0.4500
   15MOL   H15415302   3.500   2.091   5.498 -0.5079  0.7318  2.1820
   15MOL   H15515303   3.508   1.911   5.346 -0.0643 -0.6116  0.1787
   15MOL   H15615304   3.307   1.651   5.624  0.3739 -0.9395 -1.9601
   15MOL   H15715305   3.294   1.838   5.786  1.1841 -0.7555  0.6435
   15MOL   H15815306   3.390   2.382   5.713 -0.1420 -0.8695  0.2730
   15MOL   H15915307   3.215   2.531   5.636  0.4675  0.4701 -0.1749
   15MOL   H16015308   3.053   2.424   5.310  0.5321 -0.3810  4.4183
   15MOL   H16115309   2.910   2.393   5.114 -1.4992  0.7669 -1.5717
   15MOL   H16215310   2.595   2.682   5.005 -0.4015  2.8170  1.6384
   15MOL   H16315311   2.427   2.858   5.070  1.4409 -0.0407  0.4646
   15MOL   C16415312   3.289   1.660   5.296 -0.3016  0.3909  0.4467
   15MOL   C16515313   3.237   1.527   5.273  0.0774 -0.7454 -0.2121
   15MOL   C16615314   3.140   1.513   5.169  0.0347  0.1009 -0.6251
   15MOL   C16715315   3.093   1.627   5.103 -0.1672  0.8553  0.5944
   15MOL   S16815316   2.973   1.608   4.976  0.0906 -0.0146  0.1441
   15MOL   O16915317   2.865   1.708   4.995 -0.0330 -0.5157 -0.2013
   15MOL   O17015318   2.948   1.468   4.970 -0.0073  0.9032 -0.0778
   15MOL   C17115319   3.054   1.643   4.820 -0.0085  0.7180  0.1246
   15MOL   C17215320   2.968   1.671   4.713 -1.3806  0.2016 -0.8562
   15MOL   C17315321   3.007   1.662   4.582  0.4569 -0.7237  0.0637
   15MOL   C17415322   3.143   1.627   4.556 -0.3947 -0.7980 -0.0199
   15MOL   O17515323   3.179   1.600   4.424 -0.2022 -0.2991  0.1658
   15MOL   C17615324   3.145   1.487   4.359  0.2738 -0.7180  0.2171
   15MOL   C17715325   3.066   1.487   4.247  0.1477  0.0180  0.1674
   15MOL   C17815326   3.016   1.369   4.195  0.1365 -0.6400  0.4881
   15MOL   C17915327   3.040   1.246   4.254 -0.5233 -0.5722 -0.1446
   15MOL   C18015328   2.981   1.116   4.196  0.1505  0.2975  0.1492
   15MOL   C18115329   3.067   0.994   4.252 -0.1830 -0.2519  0.6638
   15MOL   C18215330   2.833   1.090   4.241 -0.0330 -0.0783  0.0751
   15MOL   C18315331   2.996   1.108   4.046 -1.0366  0.3880 -0.1135
   15MOL   C18415332   3.128   1.131   3.988  0.5126 -0.4941 -0.6043
   15MOL   C18515333   3.148   1.145   3.850  0.4616  0.7399  0.8856
   15MOL   C18615334   3.032   1.140   3.766  0.0365  0.2235  0.6497
   15MOL   O18715335   3.056   1.143   3.633 -0.4369 -0.2860 -0.4462
   15MOL   C18815336   2.903   1.116   3.818 -0.2756 -0.1424  0.5338
   15MOL   C18915337   2.884   1.108   3.957 -0.4271  0.5688  0.3465
   15MOL   C19015338   3.127   1.244   4.368 -0.3476 -0.0811  0.4604
   15MOL   C19115339   3.176   1.368   4.419  0.0751  0.2491  0.0023
   15MOL   C19215340   3.231   1.599   4.660 -0.0320  0.2441 -0.5014
   15MOL   C19315341   3.185   1.600   4.791  0.1462 -0.0100 -0.6529
   15MOL   C19415342   3.140   1.751   5.135 -0.0975  0.1531  0.8869
   15MOL   C19515343   3.238   1.773   5.224  0.3261  0.4260  0.6504
   15MOL   H19615344   3.273   1.444   5.331  2.0827  0.0613 -0.2834
   15MOL   H19715345   3.110   1.413   5.139 -2.5795  0.1215  1.6721
   15MOL   H19815346   2.865   1.689   4.740 -0.3888  1.3440  2.3775
   15MOL   H19915347   2.932   1.683   4.507 -2.9977 -1.9046  3.0592
   15MOL   H20015348   3.031   1.584   4.213 -1.3068 -0.5639 -0.0209
   15MOL   H20115349   2.937   1.372   4.122 -2.0595  0.6517  2.8391
   15MOL   H20215350   3.055   0.898   4.202  2.2583 -0.3355  0.1640
   15MOL   H20315351   3.055   0.977   4.359 -0.6483  0.1586  0.6759
   15MOL   H20415352   3.171   1.017   4.229  0.0269  0.1249  1.9551
   15MOL   H20515353   2.788   0.993   4.218 -1.2249  0.9837 -2.3124
   15MOL   H20615354   2.826   1.084   4.350  0.0818 -1.1243  0.0327
   15MOL   H20715355   2.766   1.172   4.213  0.3865  0.8795  1.7851
   15MOL   H20815356   3.212   1.133   4.056 -0.9819 -3.4721  1.4249
   15MOL   H20915357   3.249   1.152   3.812  1.1373  0.8518  2.6394
   15MOL   H21015358   2.816   1.110   3.754  1.5086 -1.3140 -1.8633
   15MOL   H21115359   2.788   1.114   4.006  0.2325  2.8088  1.4148
   15MOL   H21215360   3.146   1.158   4.430  0.3822 -0.7589 -0.6863
   15MOL   H21315361   3.238   1.372   4.507 -0.2827 -0.5685  0.2941
   15MOL   H21415362   3.333   1.567   4.640 -0.6034 -0.9054 -1.6778
   15MOL   H21515363   3.246   1.575   4.877 -1.0591 -1.4279 -0.1785
   15MOL   H21615364   3.105   1.826   5.066  0.0883 -2.2446 -1.9142
   15MOL   H21715365   3.270   1.873   5.249 -0.3202  0.8500 -0.1730
   15MOL   C21815366   2.968   1.186   3.543 -0.1288 -0.6365 -0.2607
   15MOL   C21915367   2.922   1.113   3.434  0.3324 -0.8483 -0.1438
   15MOL   C22015368   2.843   1.167   3.334 -0.1317 -0.6754  0.0346
   15MOL   C22115369   2.800   1.300   3.353 -0.2087  0.3448  0.6339
   15MOL   S22215370   2.686   1.378   3.237 -0.3087 -0.3200 -0.4017
   15MOL   O22315371   2.583   1.287   3.196 -0.2230  0.2080 -0.4184
   15MOL   O22415372   2.774   1.441   3.137 -0.9000 -0.4719  0.0233
   15MOL   C22515373   2.607   1.512   3.326 -0.2960 -0.3977 -0.4358
   15MOL   C22615374   2.626   1.649   3.283  0.6194 -0.1187  0.2307
   15MOL   C22715375   2.581   1.753   3.370 -0.4453 -0.0856 -0.5671
   15MOL   C22815376   2.518   1.717   3.492 -0.1065  0.2669 -0.3259
   15MOL   O22915377   2.482   1.807   3.585 -0.1795 -0.5163  0.3899
   15MOL   C23015378   2.570   1.904   3.624 -0.7292  0.1616 -0.1126
   15MOL   C23115379   2.530   2.029   3.654  0.2738 -0.3077  0.0282
   15MOL   C23215380   2.617   2.120   3.715 -0.9852 -0.3207  0.4878
   15MOL   C23315381   2.757   2.089   3.740 -0.6347 -0.0759 -0.3472
   15MOL   C23415382   2.854   2.194   3.805  0.0155 -0.7440  0.2428
   15MOL   C23515383   3.001   2.149   3.786 -0.0654  0.4003 -0.1566
   15MOL   C23615384   2.838   2.321   3.721 -0.2270 -0.2247 -0.3628
   15MOL   C23715385   2.822   2.226   3.954 -0.6070 -0.4025  0.3559
   15MOL   C23815386   2.756   2.127   4.035  0.2317 -0.6576 -0.2963
   15MOL   C23915387   2.739   2.147   4.175  0.4956  0.5379 -0.4292
   15MOL   C24015388   2.781   2.273   4.236 -0.3411 -0.2405 -0.0141
   15MOL   O24115389   2.770   2.294   4.370 -0.2898 -0.1706 -0.3978
   15MOL   C24215390   2.836   2.375   4.158 -0.6357  0.2902 -0.1728
   15MOL   C24315391   2.862   2.346   4.020 -0.5658 -0.0998 -0.5144
   15MOL   C24415392   2.801   1.964   3.700 -0.2648 -0.0400 -0.1491
   15MOL   C24515393   2.709   1.871   3.645  0.5546 -1.1604  0.0716
   15MOL   C24615394   2.493   1.585   3.531 -0.5125 -0.2498  0.1947
   15MOL   C24715395   2.545   1.482   3.450  0.2765  0.2369  0.4044
   15MOL   C24815396   2.854   1.381   3.460 -0.4591 -0.8477 -0.8031
   15MOL   C24915397   2.937   1.322   3.559  0.6559 -0.0479 -0.8108
   15MOL   H25015398   2.948   1.009   3.425  1.1505 -0.7417  0.8314
   15MOL   H25115399   2.814   1.103   3.251 -1.7654  1.2264 -0.9206
   15MOL   H25215400   2.664   1.675   3.185  1.8859 -3.4447 -0.2529
   15MOL   H25315401   2.600   1.857   3.348  2.4285 -0.4569 -0.0435
   15MOL   H25415402   2.424   2.050   3.659 -0.1317 -2.2311  0.1304
   15MOL   H25515403   2.595   2.216   3.759 -0.3537 -1.4311  3.2852
   15MOL   H25615404   3.063   2.236   3.808  0.7040 -0.2252  0.1489
   15MOL   H25715405   3.015   2.131   3.679  1.4546 -0.7416  0.2241
   15MOL   H25815406   3.030   2.067   3.851  0.0270 -0.3447 -1.1346
   15MOL   H25915407   2.847   2.301   3.614 -1.9748 -0.9617 -0.3793
   15MOL   H26015408   2.745   2.374   3.739  0.3207  1.1502 -1.3980
   15MOL   H26115409   2.919   2.393   3.738 -0.2729 -0.0885 -0.7083
   15MOL   H26215410   2.731   2.030   3.994 -2.7314 -0.4072  0.7647
   15MOL   H26315411   2.692   2.071   4.235 -0.4303 -0.9656 -2.9643
   15MOL   H26415412   2.856   2.474   4.198  1.3893 -0.1353 -0.0713
   15MOL   H26515413   2.906   2.425   3.961 -0.8347 -1.0935 -2.0739
   15MOL   H26615414   2.902   1.933   3.719 -0.0788  0.2455 -0.6759
   15MOL   H26715415   2.742   1.773   3.612 -2.4619 -1.4176 -2.3918
   15MOL   H26815416   2.443   1.559   3.623  1.6502  2.4048  2.1970
   15MOL   H26915417   2.526   1.379   3.472  1.9906 -0.0992  0.4099
   15MOL   H27015418   2.825   1.483   3.476 -0.5017 -0.4923 -2.9189
   15MOL   H27115419   2.981   1.370   3.646 -1.5043  0.9045 -0.2150
   15MOL   C27215420   2.657   2.334   4.424 -0.2370 -0.7782 -0.8554
   15MOL   C27315421   2.532   2.339   4.356  0.7514  0.5652  0.0685
   15MOL   C27415422   2.418   2.384   4.423 -0.6466  0.1848  0.3307
   15MOL   C27515423   2.421   2.421   4.559 -0.0588 -0.6284  0.1138
   15MOL   S27615424   2.272   2.486   4.641  0.1135 -0.1685 -0.0474
   15MOL   O27715425   2.225   2.598   4.557 -0.1428  0.2143  0.0238
   15MOL   O27815426   2.305   2.506   4.783 -0.6674  0.5669 -0.0814
   15MOL   C27915427   2.160   2.351   4.636 -0.8247  0.1739 -0.1859
   15MOL   C28015428   2.147   2.259   4.745 -0.0535 -0.4607 -0.0193
   15MOL   C28115429   2.058   2.153   4.723 -0.0473  0.1685  0.0457
   15MOL   C28215430   1.991   2.133   4.599  0.1048  0.2835  0.2030
   15MOL   O28315431   1.903   2.030   4.579 -0.0001  0.2694 -0.2457
   15MOL   C28415432   1.931   1.905   4.628  0.1688 -0.6918 -0.1682
   15MOL   C28515433   1.848   1.846   4.724  0.1159 -0.1280  0.1261
   15MOL   C28615434   1.867   1.710   4.763 -0.5977 -0.8875  0.0785
   15MOL   C28715435   1.980   1.641   4.711 -0.8667 -0.5123  0.5209
   15MOL   C28815436   1.989   1.485   4.739  0.2064  0.2208  0.8176
   15MOL   C28915437   1.906   1.444   4.859  0.5811 -0.2313 -0.3698
   15MOL   C29015438   1.936   1.412   4.611  1.0683  0.2729 -0.7050
   15MOL   C29115439   2.123   1.445   4.787 -0.1620 -0.5016  0.4845
   15MOL   C29215440   2.174   1.314   4.762 -0.3306  0.7186  1.0305
   15MOL   C29315441   2.290   1.268   4.833 -0.2084  0.6457  0.5529
   15MOL   C29415442   2.362   1.356   4.917  0.3698 -0.9213  0.1516
   15MOL   O29515443   2.478   1.306   4.983 -0.3854 -0.1866  0.0016
   15MOL   C29615444   2.314   1.489   4.937 -0.6845  0.3708 -0.3111
   15MOL   C29715445   2.194   1.533   4.873 -0.7052  0.0047 -0.3733
   15MOL   C29815446   2.071   1.705   4.621 -1.2148  0.2565  0.3927
   15MOL   C29915447   2.045   1.837   4.581  1.2961 -0.2025  0.1957
   15MOL   C30015448   2.010   2.220   4.492  0.5583  0.0211 -0.0865
   15MOL   C30115449   2.093   2.330   4.513 -0.8462 -0.3375 -0.4714
   15MOL   C30215450   2.539   2.416   4.631 -0.1505 -0.0700  0.4384
   15MOL   C30315451   2.657   2.375   4.560  0.0916  0.5142  0.6971
   15MOL   H30415452   2.526   2.300   4.256 -0.0307  1.3881 -0.2114
   15MOL   H30515453   2.328   2.383   4.363  0.3952 -2.7791 -1.3129
   15MOL   H30615454   2.201   2.278   4.836 -0.7057  0.9785  0.0836
   15MOL   H30715455   2.032   2.087   4.805 -1.0251 -0.7614 -0.9775
   15MOL   H30815456   1.758   1.896   4.757  0.2030  0.3118 -0.2988
   15MOL   H30915457   1.809   1.667   4.843  0.8710 -0.9147  1.1592
   15MOL   H31015458   1.919   1.344   4.901  1.2687  0.4369  1.0584
   15MOL   H31115459   1.800   1.468   4.846  0.4508 -0.7219 -0.2103
   15MOL   H31215460   1.946   1.506   4.939  0.7883  0.1035 -0.7311
   15MOL   H31315461   1.921   1.305   4.625 -1.6866  0.6861 -0.2324
   15MOL   H31415462   1.836   1.450   4.586 -0.4560 -2.3972  1.0907
   15MOL   H31515463   2.006   1.430   4.529 -0.1098 -1.9293 -2.2437
   15MOL   H31615464   2.119   1.251   4.694  1.9736  2.1116 -2.2074
   15MOL   H31715465   2.323   1.167   4.815 -0.4506  0.8760 -1.3242
   15MOL   H31815466   2.355   1.555   5.012 -2.0547  1.0503 -0.1282
   15MOL   H31915467   2.162   1.635   4.890  0.5560  0.8174 -2.7318
   15MOL   H32015468   2.154   1.651   4.577 -0.9510  0.2142  0.9333
   15MOL   H32115469   2.110   1.892   4.514 -2.1425  3.5269 -0.2566
   15MOL   H32215470   1.949   2.211   4.403  0.4246 -0.7259  0.0811
   15MOL   H32315471   2.111   2.399   4.432 -0.9689 -2.2621 -2.2067
   15MOL   H32415472   2.547   2.454   4.732 -1.2493 -0.2016  0.5845
   15MOL   H32515473   2.744   2.385   4.622  0.0789  0.0044  0.7929
   15MOL   C32615474   2.537   1.374   5.088 -0.3923 -0.2444  0.0309
   15MOL   C32715475   2.678   1.400   5.086 -0.3143  0.6863 -0.4814
   15MOL   C32815476   2.746   1.458   5.199 -0.6989 -0.6106  0.6747
   15MOL   C32915477   2.670   1.504   5.307  0.6700 -0.7941  0.1014
   15MOL   S33015478   2.756   1.589   5.440  0.5469 -0.9071  0.5448
   15MOL   O33115479   2.887   1.531   5.455  0.3536  0.1185  0.1776
   15MOL   O33215480   2.655   1.598   5.551  0.2939 -0.1872 -0.0508
   15MOL   C33315481   2.789   1.759   5.391  0.3705  0.5286 -0.2008
   15MOL   C33415482   2.731   1.816   5.280  0.4498 -0.0975  0.2745
   15MOL   C33515483   2.765   1.947   5.235  0.1614  0.5523 -0.0845
   15MOL   C33615484   2.871   2.009   5.302 -0.0606  0.0597 -0.7823
   15MOL   O33715485   2.915   2.129   5.250 -0.1963 -0.3402 -0.3332
   15MOL   C33815486   3.043   2.127   5.202  0.2708  0.2033  0.1009
   15MOL   C33915487   3.052   2.113   5.062  0.0028  0.7098 -0.8957
   15MOL   C34015488   3.179   2.122   5.001  0.6032  0.3508  0.3203
   15MOL   C34115489   3.296   2.151   5.070  0.3318  0.1173 -0.6818
   15MOL   C34215490   3.430   2.149   4.994  0.1567 -0.0886 -0.6766
   15MOL   C34315491   3.503   2.280   5.029  0.0243  0.3657  0.1000
   15MOL   C34415492   3.509   2.030   5.053  0.2829  0.0898  0.5908
   15MOL   C34515493   3.418   2.142   4.836  0.1154 -0.1294 -0.3601
   15MOL   C34615494   3.419   2.260   4.758  0.1457 -0.8045 -0.0379
   15MOL   C34715495   3.405   2.256   4.615 -0.0768  0.0354  0.4239
   15MOL   C34815496   3.375   2.137   4.547 -0.0404  0.1061 -0.1079
   15MOL   O34915497   3.344   2.136   4.415 -0.3046  0.7542  0.0984
   15MOL   C35015498   3.372   2.020   4.623  0.1641 -0.3667  0.0188
   15MOL   C35115499   3.392   2.024   4.764  0.8243 -0.0467 -0.8624
   15MOL   C35215500   3.285   2.170   5.208  0.2440  0.0830  0.8653
   15MOL   C35315501   3.160   2.149   5.275  0.9023 -0.6366  0.5441
   15MOL   C35415502   2.936   1.944   5.411  0.1527 -0.8712 -0.2918
   15MOL   C35515503   2.889   1.827   5.462  0.0537 -0.0399  0.6941
   15MOL   C35615504   2.532   1.490   5.307  0.0184 -0.0493 -0.3133
   15MOL   C35715505   2.461   1.425   5.201 -0.5097 -0.6253  0.8555
   15MOL   H35815506   2.729   1.353   5.002 -0.7530 -0.8772  0.1095
   15MOL   H35915507   2.853   1.470   5.206 -0.5173 -1.4809 -0.5053
   15MOL   H36015508   2.646   1.761   5.241  3.3516 -3.2779 -1.8786
   15MOL   H36115509   2.710   1.989   5.153  1.3018  0.6383 -0.8113
   15MOL   H36215510   2.965   2.096   4.999 -1.0913 -0.5178  0.8811
   15MOL   H36315511   3.179   2.120   4.893  2.8252  0.3374  0.3150
   15MOL   H36415512   3.428   2.356   5.008  1.1551  1.6703  0.6737
   15MOL   H36515513   3.592   2.310   4.973  1.0484 -0.5099  1.2238
   15MOL   H36615514   3.531   2.278   5.135  1.6272 -0.4670 -0.3161
   15MOL   H36715515   3.605   2.032   5.002 -0.1727  0.3333 -0.2690
   15MOL   H36815516   3.538   2.027   5.158  0.7718  2.2197  0.5475
   15MOL   H36915517   3.455   1.937   5.035  0.5440 -0.5172  2.7978
   15MOL   H37015518   3.443   2.357   4.799 -0.5908 -1.9598  3.2530
   15MOL   H37115519   3.414   2.348   4.560 -1.9862 -0.1852 -0.3191
   15MOL   H37215520   3.364   1.927   4.567 -0.0522  0.3512 -1.1776
   15MOL   H37315521   3.392   1.929   4.816 -0.1279  0.2805 -0.2562
   15MOL   H37415522   3.367   2.193   5.275 -0.9503 -0.5130  2.5519
   15MOL   H37515523   3.161   2.164   5.382 -0.0539 -0.8457  0.5845
   15MOL   H37615524   3.019   1.994   5.457 -1.5082  0.7757  0.9923
   15MOL   H37715525   2.941   1.779   5.543 -1.4416 -4.2024 -0.6864
   15MOL   H37815526   2.473   1.532   5.386  1.0524 -1.4452  1.2369
   15MOL   H37915527   2.356   1.408   5.223 -0.9994  1.2860  0.0930
   15MOL   C38015528   3.406   2.215   4.323 -0.0735 -0.4373  0.9419
   15MOL   C38115529   3.337   2.288   4.225  0.0750  0.1087 -0.4306
   15MOL   C38215530   3.400   2.376   4.140 -0.0696  0.3288  0.4470
   15MOL   C38315531   3.535   2.383   4.137 -0.8735 -0.0100  0.2286
   15MOL   S38415532   3.616   2.487   4.012 -0.0852  0.1225  0.4562
   15MOL   O38515533   3.509   2.547   3.929  0.3906 -0.3383  0.0877
   15MOL   O38615534   3.728   2.407   3.956 -0.4691  0.1788 -0.4052
   15MOL   C38715535   3.696   2.628   4.093 -0.9229 -0.5208  0.1106
   15MOL   C38815536   3.652   2.759   4.087 -0.5838 -0.5057 -0.3456
   15MOL   C38915537   3.730   2.869   4.128 -0.2958  0.7483 -0.8275
   15MOL   C39015538   3.854   2.838   4.193  0.5452  0.4095 -0.1091
   15MOL   O39115539   3.933   2.938   4.246  0.1112 -0.5609  0.5132
   15MOL   C39215540   3.880   2.982   4.364  0.1174 -0.9423 -0.1097
   15MOL   C39315541   3.851   2.895   4.474  0.4781 -0.3283  0.0236
   15MOL   C39415542   3.811   2.955   4.598 -0.2960  0.4865 -0.6957
   15MOL   C39515543   3.799   3.092   4.614  0.0173  0.4015  0.1390
   15MOL   C39615544   3.766   3.166   4.752 -0.2800  0.7482  0.0032
   15MOL   C39715545   3.656   3.272   4.725  0.5108 -0.1810 -0.1307
   15MOL   C39815546   3.715   3.070   4.860 -0.3630 -0.2855 -0.3968
   15MOL   C39915547   3.891   3.227   4.823  0.0072 -0.2728 -0.0254
   15MOL   C40015548   3.875   3.302   4.939  0.6207 -0.4923  0.0128
   15MOL   C40115549   3.987   3.372   4.998 -0.3768  0.8648 -0.0692
   15MOL   C40215550   4.111   3.362   4.936  0.1943  0.6857 -0.1143
   15MOL   O40315551   4.213   3.424   4.997  0.1952 -0.0170 -0.3513
   15MOL   C40415552   4.125   3.286   4.821 -0.1097  0.1446 -0.1609
   15MOL   C40515553   4.020   3.214   4.768  0.2402  0.3077 -0.2877
   15MOL   C40615554   3.831   3.177   4.503  0.4681  0.0851 -0.0875
   15MOL   C40715555   3.861   3.122   4.377 -0.8831  0.1635  0.9419
   15MOL   C40815556   3.896   2.704   4.202 -0.2107 -0.0802 -0.1421
   15MOL   C40915557   3.817   2.601   4.157 -0.4556  0.3579 -0.0543
   15MOL   C41015558   3.618   2.305   4.227 -0.0473 -0.6283  0.0862
   15MOL   C41115559   3.550   2.231   4.323 -0.9853 -0.3520 -0.4238
   15MOL   H41215560   3.229   2.283   4.227  0.0644  0.0578 -0.9271
   15MOL   H41315561   3.348   2.446   4.076  1.4744  0.9358 -0.1585
   15MOL   H41415562   3.554   2.777   4.044 -0.9114  0.1289  0.6465
   15MOL   H41515563   3.694   2.971   4.121  1.4510  1.5841  1.5729
   15MOL   H41615564   3.858   2.788   4.462 -0.6850 -0.2530 -1.5729
   15MOL   H41715565   3.788   2.892   4.683  5.7891 -1.6341 -0.3578
   15MOL   H41815566   3.577   3.225   4.667 -0.4117  0.5108  0.5523
   15MOL   H41915567   3.689   3.361   4.672 -0.9778 -0.2440 -1.1806
   15MOL   H42015568   3.603   3.314   4.811 -1.4097  1.4654 -2.0888
   15MOL   H42115569   3.790   2.992   4.880  1.9480  1.8914 -0.3027
   15MOL   H42215570   3.687   3.121   4.952  1.1154  0.4626 -0.3502
   15MOL   H42315571   3.627   3.013   4.830 -1.2692  1.4073 -0.9732
   15MOL   H42415572   3.775   3.315   4.977 -0.0870 -3.6132 -0.6562
   15MOL   H42515573   3.965   3.450   5.069 -1.9817  0.8828 -0.5482
   15MOL   H42615574   4.220   3.257   4.779 -0.0701  3.5428 -2.5907
   15MOL   H42715575   4.039   3.150   4.683  1.8043  1.2777 -0.7003
   15MOL   H42815576   3.817   3.283   4.519 -0.4715 -0.0802  0.2637
   15MOL   H42915577   3.877   3.181   4.288  3.3604 -3.1592 -0.6806
   15MOL   H43015578   3.991   2.685   4.251 -0.5331 -1.8431 -0.1859
   15MOL   H43115579   3.850   2.498   4.162  1.2685  0.9638  1.7774
   15MOL   H43215580   3.725   2.310   4.216  0.0017 -0.8166  0.4842
   15MOL   H43315581   3.605   2.169   4.393  0.4759  0.4295 -0.8464
   15MOL   C43415582   4.287   3.514   4.924 -0.4824 -0.5963 -0.4646
   15MOL   C43515583   4.257   3.653   4.936 -0.7209 -0.5273  0.2534
   15MOL   C43615584   4.326   3.747   4.858  0.6920  0.6328 -0.1167
   15MOL   C43715585   4.419   3.706   4.763  0.2791  0.8045  0.1294
   15MOL   S43815586   4.491   3.826   4.646  0.3002 -0.1247  0.1410
   15MOL   O43915587   4.444   3.952   4.694 -0.2547 -0.2053 -0.3918
   15MOL   O44015588   4.453   3.775   4.514  0.3945  0.3036 -0.6109
   15MOL   C44115589   4.668   3.821   4.666  0.1111  0.5245  0.1941
   15MOL   C44215590   4.737   3.713   4.603 -0.2389 -0.9148  0.4697
   15MOL   C44315591   4.874   3.695   4.618 -0.2331  0.2189  0.0775
   15MOL   C44415592   4.950   3.787   4.696  0.0464 -0.3355 -0.5657
   15MOL   O44515593   5.083   3.763   4.709  0.2459 -0.2490 -0.8301
   15MOL   C44615594   5.156   3.812   4.817  0.3468 -0.3705  1.0427
   15MOL   C44715595   5.276   3.884   4.799  0.2344  0.3753  0.0656
   15MOL   C44815596   5.342   3.943   4.908  0.3533  0.9372 -0.4896
   15MOL   C44915597   5.309   3.906   5.040 -0.2562  0.1099  0.1266
   15MOL   C45015598   5.396   3.950   5.152 -1.0154  0.2619 -0.2023
   15MOL   C45115599   5.336   3.928   5.297  0.4968  0.0616 -0.8121
   15MOL   C45215600   5.530   3.869   5.140  1.0805  0.2991 -0.3763
   15MOL   C45315601   5.416   4.102   5.138  0.3053 -0.8708  0.0963
   15MOL   C45415602   5.310   4.192   5.095 -0.2990  0.1435  0.3596
   15MOL   C45515603   5.331   4.330   5.085  0.2720  0.0192  0.3486
   15MOL   C45615604   5.461   4.377   5.112 -0.4847 -0.3848 -0.0869
   15MOL   O45715605   5.478   4.508   5.104  0.5244 -0.2996 -0.0669
   15MOL   C45815606   5.565   4.289   5.143  0.0398 -0.3180 -0.1714
   15MOL   C45915607   5.542   4.155   5.166  0.0458 -0.6936 -0.0717
   15MOL   C46015608   5.201   3.821   5.059  0.1310  0.0901 -0.3885
   15MOL   C46115609   5.125   3.780   4.948 -0.3837 -0.5920 -0.2390
   15MOL   C46215610   4.883   3.894   4.766  0.2280  0.2688 -0.5598
   15MOL   C46315611   4.744   3.910   4.748  0.6903  0.3114  0.3032
   15MOL   C46415612   4.454   3.566   4.746  0.4620  0.1994  0.5017
   15MOL   C46515613   4.375   3.474   4.823 -0.5827  0.2691  0.1979
   15MOL   H46615614   4.184   3.684   5.010 -1.3220 -1.9587  0.2782
   15MOL   H46715615   4.312   3.854   4.864  3.3243  1.0120 -0.3323
   15MOL   H46815616   4.677   3.643   4.547  0.7525 -1.1247 -0.3411
   15MOL   H46915617   4.916   3.609   4.569  0.1290  1.2662 -1.5088
   15MOL   H47015618   5.310   3.899   4.697 -0.5683 -0.7184 -0.3814
   15MOL   H47115619   5.433   4.000   4.894  0.8392  1.2796  3.4006
   15MOL   H47215620   5.404   3.952   5.379  0.7127 -1.6291 -0.4745
   15MOL   H47315621   5.306   3.826   5.319 -1.3511  0.4881 -1.3048
   15MOL   H47415622   5.251   3.994   5.315  0.8423 -0.1037  1.5684
   15MOL   H47515623   5.602   3.895   5.218 -0.4300  3.2567  0.0973
   15MOL   H47615624   5.521   3.761   5.148  1.0454  0.4063  1.2521
   15MOL   H47715625   5.580   3.885   5.044 -0.5799  3.5664 -0.7690
   15MOL   H47815626   5.211   4.152   5.082  0.3521 -2.3307  2.4267
   15MOL   H47915627   5.249   4.396   5.061  2.0381  2.1493  0.0372
   15MOL   H48015628   5.662   4.332   5.163 -0.0604  0.2186 -0.8007
   15MOL   H48115629   5.621   4.093   5.203  1.2529  0.7732 -0.1434
   15MOL   H48215630   5.152   3.804   5.153 -0.3457 -0.8196 -0.7971
   15MOL   H48315631   5.033   3.724   4.962  0.7614 -1.8553  2.7518
   15MOL   H48415632   4.936   3.969   4.823 -2.4130  0.0756  2.2726
   15MOL   H48515633   4.695   3.994   4.795 -0.5534  0.0331 -0.4531
   15MOL   H48615634   4.532   3.529   4.681  1.1142  3.4831 -0.6364
   15MOL   H48715635   4.399   3.371   4.801 -1.5092 -0.0567  0.6978
   15MOL   C48815636   5.543   4.584   5.195  0.9210 -0.0825  0.9983
   15MOL   C48915637   5.474   4.640   5.306 -0.3247  0.4029 -0.5422
   15MOL   C49015638   5.537   4.739   5.384  0.6771 -0.1261  0.7045
   15MOL   C49115639   5.659   4.797   5.340  0.3760 -0.2766 -0.8708
   15MOL   S49215640   5.732   4.942   5.410  0.0213 -0.1229 -0.2647
   15MOL   O49315641   5.836   4.993   5.315  0.0199  0.2489  0.2287
   15MOL   O49415642   5.772   4.912   5.550 -0.2370  0.3986  0.2342
   15MOL   C49515643   5.595   5.054   5.414  0.5930 -0.6472 -0.1264
   15MOL   C49615644   5.574   5.136   5.299 -0.3114 -0.3574  0.4385
   15MOL   C49715645   5.470   5.228   5.300  0.4377 -0.2330  0.5427
   15MOL   C49815646   5.370   5.223   5.401  0.1428  0.9434 -0.6605
   15MOL   O49915647   5.258   5.307   5.398 -0.9278 -0.2483 -0.9000
   15MOL   C50015648   5.203   5.351   5.281 -0.8789  0.0914  0.0353
   15MOL   C50115649   5.130   5.265   5.202  0.4915 -0.4478  0.1041
   15MOL   C50215650   5.065   5.301   5.082 -0.3171 -0.9532  0.1926
   15MOL   C50315651   5.072   5.439   5.044 -0.2818  0.5452 -0.3940
   15MOL   C50415652   5.031   5.483   4.903 -0.2604  0.3219  0.0776
   15MOL   C50515653   4.986   5.633   4.905 -0.6853  0.8413 -0.2299
   15MOL   C50615654   5.155   5.482   4.816 -0.2137 -0.4152  0.1901
   15MOL   C50715655   4.919   5.394   4.841 -0.5893 -0.5640 -0.1976
   15MOL   C50815656   4.944   5.298   4.739 -0.3188  0.7296  0.5031
   15MOL   C50915657   4.847   5.203   4.708  0.1984 -0.0322  0.0091
   15MOL   C51015658   4.722   5.203   4.773  0.1718 -0.6995 -0.1428
   15MOL   O51115659   4.615   5.119   4.737 -0.1601  1.1497  0.7381
   15MOL   C51215660   4.686   5.305   4.868 -0.0911  0.4830 -0.3221
   15MOL   C51315661   4.789   5.391   4.902  0.1249  0.3086  0.0026
   15MOL   C51415662   5.149   5.529   5.127 -0.2453 -0.8243 -0.3917
   15MOL   C51515663   5.215   5.485   5.246 -1.0611 -0.6901  0.6204
   15MOL   C51615664   5.386   5.136   5.513 -0.0399  0.1502  0.0925
   15MOL   C51715665   5.496   5.048   5.516 -0.0980 -0.1682 -0.3482
   15MOL   C51815666   5.726   4.734   5.232 -0.6257 -0.4750 -0.4193
   15MOL   C51915667   5.670   4.629   5.158 -0.3723 -0.0110 -0.6002
   15MOL   H52015668   5.377   4.595   5.320  0.2265 -0.4662  0.5787
   15MOL   H52115669   5.482   4.790   5.461  1.1785 -0.1107  1.0541
   15MOL   H52215670   5.650   5.133   5.222  1.3167  2.2042  1.8193
   15MOL   H52315671   5.467   5.293   5.214  3.7330 -1.0403 -0.2634
   15MOL   H52415672   5.101   5.166   5.233 -1.4320 -0.3147 -1.1497
   15MOL   H52515673   5.022   5.229   5.015 -1.3085  0.8945 -1.2043
   15MOL   H52615674   5.058   5.693   4.960 -2.3774  0.9262  1.9731
   15MOL   H52715675   4.896   5.657   4.961 -1.3109 -1.8659  0.0273
   15MOL   H52815676   4.972   5.667   4.803 -0.5421  1.1389 -0.1490
   15MOL   H52915677   5.137   5.522   4.717  2.4890  0.7706  0.1336
   15MOL   H53015678   5.235   5.547   4.851  0.6011 -1.0258 -0.5088
   15MOL   H53115679   5.195   5.382   4.795  2.4808  1.2491 -3.1103
   15MOL   H53215680   5.035   5.292   4.682 -1.9573 -2.8788 -1.9097
   15MOL   H53315681   4.866   5.123   4.637 -2.0317 -0.1262 -0.5311
   15MOL   H53415682   4.584   5.320   4.901  0.3229  1.4864  0.5350
   15MOL   H53515683   4.760   5.472   4.967 -1.0372  0.3166 -0.5239
   15MOL   H53615684   5.165   5.634   5.113  1.6594 -0.9484  0.5820
   15MOL   H53715685   5.269   5.558   5.304 -1.2106  0.6515 -0.8921
   15MOL   H53815686   5.309   5.130   5.588  2.4834  2.7716  3.0781
   15MOL   H53915687   5.505   4.976   5.596 -2.7236 -3.8763 -3.1902
   15MOL   H54015688   5.822   4.778   5.206 -0.3658 -0.1898  0.9580
   15MOL   H54115689   5.716   4.606   5.063 -0.3035 -5.2178  0.5625
   15MOL   C54215690   4.605   4.994   4.796  0.1070 -0.5572  0.6508
   15MOL   C54315691   4.485   4.959   4.854  0.1837  0.9807 -0.0348
   15MOL   C54415692   4.459   4.827   4.909  0.9320  0.0673  0.7607
   15MOL   C54515693   4.570   4.732   4.902  0.1003 -0.4168 -0.3136
   15MOL   S54615694   4.555   4.571   4.971 -0.3347  0.2055  0.0839
   15MOL   O54715695   4.416   4.524   4.951 -0.1926  0.4162  0.2376
   15MOL   O54815696   4.604   4.578   5.111  0.9122 -0.0698  0.1308
   15MOL   C54915697   4.671   4.460   4.878 -0.5773  0.4370 -0.5491
   15MOL   C55015698   4.637   4.426   4.748  0.3553  0.1686 -0.5409
   15MOL   C55115699   4.722   4.339   4.674  0.4018  0.1773 -0.6339
   15MOL   C55215700   4.848   4.294   4.728  0.0950  0.0948  0.2481
   15MOL   O55315701   4.920   4.202   4.668  0.1387  0.3379 -0.7446
   15MOL   C55415702   5.031   4.243   4.597  0.0422  0.3602  0.3281
   15MOL   C55515703   5.157   4.213   4.645  0.5535 -0.0319 -0.0449
   15MOL   C55615704   5.269   4.254   4.571 -0.6068  0.0204 -0.0989
   15MOL   C55715705   5.257   4.334   4.456  0.2709  0.0681  0.1239
   15MOL   C55815706   5.384   4.372   4.370  0.5698 -0.1181 -1.2685
   15MOL   C55915707   5.410   4.516   4.413 -0.0694  0.7983 -0.0868
   15MOL   C56015708   5.511   4.284   4.400 -0.1071  0.0459 -0.3005
   15MOL   C56115709   5.360   4.360   4.216  0.1096 -0.3465  0.1227
   15MOL   C56215710   5.318   4.233   4.169  0.2680  0.3763  0.7437
   15MOL   C56315711   5.288   4.218   4.035 -0.1788 -0.6553  0.3007
   15MOL   C56415712   5.301   4.322   3.942 -0.1829  0.3641 -0.8881
   15MOL   O56515713   5.280   4.311   3.809 -0.7107 -0.4417  0.3456
   15MOL   C56615714   5.343   4.448   3.989 -0.6702  0.1180  0.0979
   15MOL   C56715715   5.373   4.471   4.125  0.6708  0.8368  0.0394
   15MOL   C56815716   5.129   4.369   4.416  0.4182 -0.4782 -0.2534
   15MOL   C56915717   5.015   4.325   4.487  0.3648  1.0081  0.8189
   15MOL   C57015718   4.883   4.333   4.857  0.2947 -0.3287 -0.0605
   15MOL   C57115719   4.791   4.412   4.930  0.2296  0.4330  0.3381
   15MOL   C57215720   4.692   4.771   4.843  0.1671  0.6514  0.5951
   15MOL   C57315721   4.712   4.902   4.796  0.2298  0.5842 -0.3980
   15MOL   H57415722   4.407   5.033   4.845  0.6027  1.9566  3.5021
   15MOL   H57515723   4.356   4.807   4.934  1.0799 -2.0196 -0.2156
   15MOL   H57615724   4.540   4.455   4.710 -0.0148 -1.0646 -0.5596
   15MOL   H57715725   4.703   4.290   4.580 -0.0047 -1.9045  0.5196
   15MOL   H57815726   5.161   4.142   4.726  1.0130 -1.6190 -1.4450
   15MOL   H57915727   5.370   4.229   4.601 -0.1116 -0.2334 -1.9003
   15MOL   H58015728   5.499   4.563   4.369  0.7746 -0.0511  0.6804
   15MOL   H58115729   5.418   4.530   4.521 -1.5777 -0.2496  0.1644
   15MOL   H58215730   5.326   4.576   4.379 -0.6386 -1.6161 -3.1373
   15MOL   H58315731   5.563   4.285   4.495  1.5108 -0.6463 -1.1746
   15MOL   H58415732   5.483   4.180   4.381  0.4891 -0.1846  0.0972
   15MOL   H58515733   5.593   4.320   4.338 -0.1505 -1.8254 -1.4610
   15MOL   H58615734   5.312   4.150   4.237  1.6336  0.0393  0.4627
   15MOL   H58715735   5.271   4.116   4.005  1.1853 -1.1349  1.1068
   15MOL   H58815736   5.347   4.535   3.925 -1.3368 -0.2636 -0.4662
   15MOL   H58915737   5.407   4.570   4.155  0.5277  0.6318  0.9049
   15MOL   H59015738   5.126   4.432   4.328  0.0122  1.0018  0.7928
   15MOL   H59115739   4.919   4.368   4.461  0.2405  0.9278  1.1545
   15MOL   H59215740   4.975   4.298   4.901 -0.2025 -1.2054  0.3005
   15MOL   H59315741   4.813   4.430   5.034  2.3082 -0.3960  0.0489
   15MOL   H59415742   4.770   4.697   4.839  1.1401  1.7384 -1.7044
   15MOL   H59515743   4.807   4.915   4.746 -0.4691 -0.6626 -2.1065
   15MOL   C59615744   5.259   4.189   3.754  0.4238  1.0544 -0.3760
   15MOL   C59715745   5.371   4.110   3.722 -0.6840  1.0768  0.2665
   15MOL   C59815746   5.358   3.993   3.650 -0.3566 -0.2753 -1.1011
   15MOL   C59915747   5.228   3.940   3.633  0.7254  1.1880  0.4618
   15MOL   S60015748   5.214   3.766   3.582  0.1607 -0.1968 -0.1507
   15MOL   O60115749   5.269   3.688   3.692 -0.6772 -0.2867  0.1133
   15MOL   O60215750   5.268   3.762   3.446  0.5045 -0.1328  0.5988
   15MOL   C60315751   5.039   3.720   3.569  0.9239  0.4467 -0.5250
   15MOL   C60415752   4.974   3.709   3.438  0.1574 -0.5050  0.0341
   15MOL   C60515753   4.835   3.678   3.438 -0.6188 -0.0580  0.6819
   15MOL   C60615754   4.763   3.657   3.561 -0.2430  0.0841 -0.6257
   15MOL   O60715755   4.632   3.615   3.568 -0.7077 -0.3574  0.1628
   15MOL   C60815756   4.564   3.587   3.452 -0.3910 -0.2143 -0.1110
   15MOL   C60915757   4.564   3.459   3.402 -0.8332  0.4312  0.1718
   15MOL   C61015758   4.497   3.425   3.287  0.6844 -0.4590  0.1806
   15MOL   C61115759   4.413   3.516   3.228 -0.0780  0.4299 -0.0818
   15MOL   C61215760   4.345   3.472   3.103 -0.0144 -0.6929  0.9049
   15MOL   C61315761   4.245   3.577   3.046  0.7663 -0.0668  0.3465
   15MOL   C61415762   4.463   3.460   2.997  0.3032 -0.0371  0.0697
   15MOL   C61515763   4.257   3.346   3.127  0.0385 -0.5756  0.2991
   15MOL   C61615764   4.180   3.333   3.241 -0.0316 -0.3724  0.0506
   15MOL   C61715765   4.107   3.221   3.266 -0.4273  0.6011  0.0321
   15MOL   C61815766   4.115   3.115   3.172  0.5821  0.5118 -0.0256
   15MOL   O61915767   4.049   2.994   3.183 -0.3418 -0.2635 -0.0466
   15MOL   C62015768   4.191   3.126   3.063 -0.1024 -0.5278 -0.7901
   15MOL   C62115769   4.265   3.236   3.039 -0.4910  0.1172 -0.7876
   15MOL   C62215770   4.404   3.648   3.288  0.1765 -0.1368  0.2251
   15MOL   C62315771   4.484   3.680   3.397  0.0744 -0.6259  0.2775
   15MOL   C62415772   4.830   3.658   3.681 -0.4166 -0.3109 -0.4549
   15MOL   C62515773   4.973   3.687   3.688 -0.1165 -0.0451  0.5420
   15MOL   C62615774   5.111   4.017   3.661 -0.4372  0.3369 -0.4612
   15MOL   C62715775   5.130   4.135   3.730  0.1235  0.2925  0.2813
   15MOL   H62815776   5.474   4.133   3.746 -0.8712  0.9893  1.1530
   15MOL   H62915777   5.448   3.942   3.618 -0.6820 -2.6802  1.5945
   15MOL   H63015778   5.024   3.732   3.344  0.1060 -0.1843  0.0850
   15MOL   H63115779   4.788   3.668   3.341 -3.1541  1.5734  1.7012
   15MOL   H63215780   4.632   3.388   3.448 -0.1666  1.2365  0.4336
   15MOL   H63315781   4.513   3.325   3.250  1.1725 -0.6006  0.7669
   15MOL   H63415782   4.195   3.529   2.962  1.8263  1.4363 -1.1783
   15MOL   H63515783   4.299   3.667   3.016 -0.0849  0.6786  1.0302
   15MOL   H63615784   4.159   3.599   3.109 -0.3108 -2.0577 -0.3838
   15MOL   H63715785   4.509   3.558   2.981  2.4320 -0.9081  0.6858
   15MOL   H63815786   4.544   3.393   3.023 -0.2993 -0.5889  0.5379
   15MOL   H63915787   4.405   3.437   2.908 -2.6219 -1.3413  2.1843
   15MOL   H64015788   4.163   3.412   3.313  1.4592  0.0666 -0.0659
   15MOL   H64115789   4.040   3.206   3.350 -0.1975  0.5802  0.2124
   15MOL   H64215790   4.188   3.050   2.986  2.3020  0.0060 -1.4634
   15MOL   H64315791   4.324   3.243   2.949  2.2184 -1.9575  0.7756
   15MOL   H64415792   4.342   3.718   3.234  1.5636 -1.0742 -2.6451
   15MOL   H64515793   4.480   3.780   3.438  1.3330  0.5792 -2.4014
   15MOL   H64615794   4.780   3.634   3.774 -0.7234 -0.3419 -0.6297
   15MOL   H64715795   5.024   3.688   3.783  1.9859 -0.8722 -0.5359
   15MOL   H64815796   5.012   3.986   3.632  0.2317  0.6676 -3.2857
   15MOL   H64915797   5.042   4.194   3.752 -0.3832 -0.3106 -0.1116
   15MOL   C65015798   4.009   2.951   3.309 -0.7643  0.0232 -0.0423
   15MOL   C65115799   3.875   2.928   3.334 -0.3078 -0.0167  0.0978
   15MOL   C65215800   3.836   2.868   3.455 -0.6965  0.3096 -0.1317
   15MOL   C65315801   3.932   2.841   3.558  0.1696 -0.2989  0.5628
   15MOL   S65415802   3.879   2.774   3.716  0.0728 -0.0098 -0.2185
   15MOL   O65515803   3.762   2.688   3.689 -0.5246  0.0271 -0.1334
   15MOL   O65615804   3.863   2.891   3.796 -0.0160 -0.0023  0.4050
   15MOL   C65715805   4.006   2.673   3.784 -0.2992 -0.0289 -0.3067
   15MOL   C65815806   4.024   2.541   3.744 -0.3158  0.1376 -0.4267
   15MOL   C65915807   4.121   2.447   3.799  0.2587  0.2404 -0.2273
   15MOL   C66015808   4.204   2.495   3.901  0.2059  0.2351  0.0909
   15MOL   O66115809   4.310   2.424   3.942  0.8962 -0.8243  0.4012
   15MOL   C66215810   4.338   2.306   3.877  0.1404 -0.0187  0.0927
   15MOL   C66315811   4.425   2.297   3.770  0.6446 -0.3268  0.1179
   15MOL   C66415812   4.460   2.168   3.708 -0.0531  0.1416 -0.5148
   15MOL   C66515813   4.401   2.052   3.760 -0.5770  0.2703 -0.1682
   15MOL   C66615814   4.445   1.909   3.713  0.2424  0.3357  0.0654
   15MOL   C66715815   4.578   1.878   3.782 -0.5638  0.0795 -0.0829
   15MOL   C66815816   4.353   1.791   3.747 -0.3772 -0.0009 -0.2020
   15MOL   C66915817   4.470   1.913   3.558 -0.3417 -0.7634  0.0609
   15MOL   C67015818   4.596   1.931   3.501 -0.5696  0.4409 -0.3503
   15MOL   C67115819   4.604   1.941   3.364 -0.8478 -0.4406 -0.0709
   15MOL   C67215820   4.496   1.928   3.283 -0.1425 -0.5430 -0.3804
   15MOL   O67315821   4.507   1.938   3.145  0.3428  0.9507  0.0036
   15MOL   C67415822   4.373   1.908   3.337  0.7748 -0.7907  0.2503
   15MOL   C67515823   4.362   1.901   3.476 -0.4722  0.2869  0.0124
   15MOL   C67615824   4.304   2.063   3.855 -0.1113 -0.2523 -0.0249
   15MOL   C67715825   4.271   2.189   3.918 -0.7392  0.2735 -0.5891
   15MOL   C67815826   4.199   2.635   3.939  1.0062  0.4721  0.0009
   15MOL   C67915827   4.099   2.720   3.879  0.3093  1.0134 -0.4867
   15MOL   C68015828   4.073   2.868   3.534  0.7594 -0.6271 -0.1985
   15MOL   C68115829   4.107   2.917   3.411 -0.1463  1.1986  0.1360
   15MOL   H68215830   3.822   2.947   3.242 -1.0525  0.0766  0.5414
   15MOL   H68315831   3.732   2.848   3.474 -0.4162 -0.7117  0.3361
   15MOL   H68415832   3.962   2.512   3.660  0.0372 -1.0781 -0.2739
   15MOL   H68515833   4.113   2.340   3.786 -1.8656  0.1102  1.8968
   15MOL   H68615834   4.471   2.384   3.726  1.2280 -0.0234  1.3247
   15MOL   H68715835   4.536   2.162   3.632  0.8514  1.8707  0.2372
   15MOL   H68815836   4.545   1.874   3.886 -2.6330  3.4872 -0.5512
   15MOL   H68915837   4.645   1.964   3.778  0.8308 -1.0712 -2.2963
   15MOL   H69015838   4.619   1.784   3.745  1.2707  1.0577 -0.5824
   15MOL   H69115839   4.337   1.766   3.851 -0.1572  1.4886  0.1990
   15MOL   H69215840   4.254   1.814   3.707  0.4791  4.4174 -0.0108
   15MOL   H69315841   4.384   1.698   3.698 -3.1857 -0.2915 -1.5624
   15MOL   H69415842   4.682   1.966   3.556  0.9170 -2.5738 -0.6344
   15MOL   H69515843   4.695   1.965   3.312 -1.8379 -0.0494 -1.6538
   15MOL   H69615844   4.283   1.914   3.277  0.6361  0.7037  0.5994
   15MOL   H69715845   4.259   1.903   3.511 -0.3726  2.9228  0.2302
   15MOL   H69815846   4.252   1.977   3.894 -0.7017  1.0829  2.2471
   15MOL   H69915847   4.201   2.185   4.000 -0.4908  0.5189 -0.3678
   15MOL   H70015848   4.269   2.683   4.005  0.9630 -1.3402  1.4108
   15MOL   H70115849   4.093   2.824   3.907 -1.3740  1.5627 -2.7708
   15MOL   H70215850   4.141   2.845   3.614 -1.1745 -0.6465  1.4723
   15MOL   H70315851   4.210   2.926   3.383  0.0929  0.0509  0.6245
   15MOL   C70415852   4.556   2.052   3.091  0.0188  0.0691 -0.1038
   15MOL   C70515853   4.613   2.049   2.960  0.7103  0.3830  0.2678
   15MOL   C70615854   4.665   2.159   2.899 -0.2565  0.0402 -0.3988
   15MOL   C70715855   4.663   2.282   2.966  0.0098 -0.9454  0.3875
   15MOL   S70815856   4.751   2.422   2.889  0.4254 -0.4568  0.0866
   15MOL   O70915857   4.726   2.418   2.745  0.0885  0.7628  0.4528
   15MOL   O71015858   4.892   2.412   2.924 -0.0950 -0.0842 -0.1125
   15MOL   C71115859   4.685   2.577   2.943 -0.6100 -0.0435 -0.5924
   15MOL   C71215860   4.617   2.647   2.845 -0.1908 -0.0735  0.3855
   15MOL   C71315861   4.572   2.777   2.864  0.3168 -0.2387 -0.6182
   15MOL   C71415862   4.585   2.829   2.995  0.1419 -0.3583  0.4366
   15MOL   O71515863   4.536   2.952   3.020  0.5199  0.0269 -0.1059
   15MOL   C71615864   4.625   3.050   3.057  0.0301 -0.7108  1.3742
   15MOL   C71715865   4.695   3.122   2.960  0.3571 -0.2914  0.6529
   15MOL   C71815866   4.804   3.211   2.995  0.4746 -0.4648 -0.0242
   15MOL   C71915867   4.839   3.231   3.132  0.1955  1.2399 -0.1582
   15MOL   C72015868   4.976   3.314   3.174 -0.5901  0.1524  0.1708
   15MOL   C72115869   4.965   3.331   3.328  0.1622 -0.0410  0.7869
   15MOL   C72215870   5.105   3.233   3.128 -0.0154 -0.4967 -0.1951
   15MOL   C72315871   4.984   3.457   3.122 -0.9534  0.1426  0.0214
   15MOL   C72415872   4.872   3.520   3.076  0.2293 -0.0236  0.6960
   15MOL   C72515873   4.871   3.649   3.033 -0.0135  0.0265  0.4135
   15MOL   C72615874   4.995   3.717   3.040 -0.3526  0.1400 -0.6629
   15MOL   O72715875   4.995   3.843   2.990 -0.2491  0.6024 -0.0299
   15MOL   C72815876   5.108   3.667   3.102  0.2286 -0.4041 -0.7963
   15MOL   C72915877   5.110   3.524   3.128  0.1691 -0.0440 -0.1550
   15MOL   C73015878   4.753   3.176   3.229 -0.8705 -0.4522 -0.8362
   15MOL   C73115879   4.652   3.082   3.192  0.0301  0.1304  0.3809
   15MOL   C73215880   4.650   2.756   3.095 -0.1376 -0.0796  0.2763
   15MOL   C73315881   4.705   2.630   3.071  0.1393 -0.1254 -0.1819
   15MOL   C73415882   4.606   2.289   3.096  0.9539 -0.1033  0.4797
   15MOL   C73515883   4.550   2.176   3.159 -0.8898  0.9496 -0.7255
   15MOL   H73615884   4.608   1.959   2.901  0.9420  1.3374 -1.2437
   15MOL   H73715885   4.703   2.150   2.798 -4.3413  0.8007 -2.1044
   15MOL   H73815886   4.600   2.611   2.745  0.0902  1.1744 -0.1205
   15MOL   H73915887   4.536   2.838   2.782  1.1345  1.7152  0.4508
   15MOL   H74015888   4.672   3.103   2.857 -1.1722  0.4373  0.8356
   15MOL   H74115889   4.881   3.245   2.928  0.7011  2.2966  1.5557
   15MOL   H74215890   4.870   3.374   3.358  0.2366 -0.3701  1.5213
   15MOL   H74315891   5.038   3.399   3.372  0.4658 -0.1679  0.4806
   15MOL   H74415892   4.973   3.230   3.367 -2.4895  0.2591  2.2145
   15MOL   H74515893   5.131   3.260   3.025  2.8343 -0.7534  0.4106
   15MOL   H74615894   5.187   3.267   3.191  0.3324  1.8479 -1.8176
   15MOL   H74715895   5.102   3.124   3.134  1.7366 -0.4742  1.9256
   15MOL   H74815896   4.779   3.465   3.069 -0.2914  0.9612 -0.1251
   15MOL   H74915897   4.798   3.700   2.971  0.3245  0.2787  0.2233
   15MOL   H75015898   5.200   3.723   3.107 -0.0813  0.0129  0.1819
   15MOL   H75115899   5.205   3.481   3.155  0.4826  1.2929  0.9043
   15MOL   H75215900   4.765   3.190   3.336  2.0509 -2.1854 -0.8650
   15MOL   H75315901   4.601   3.028   3.270  1.2133 -1.0542  0.3509
   15MOL   H75415902   4.677   2.805   3.188  0.3901  1.1409 -0.5064
   15MOL   H75515903   4.764   2.579   3.146 -1.5148 -2.0353 -0.1358
   15MOL   H75615904   4.606   2.384   3.148 -0.6829  1.0931 -1.6192
   15MOL   H75715905   4.507   2.182   3.258  0.8815  0.2935  0.0908
   15MOL   C75815906   5.010   3.953   3.076  0.3484 -0.3385 -0.2242
   15MOL   C75915907   5.097   4.052   3.022 -0.4748  0.5694  0.2815
   15MOL   C76015908   5.112   4.168   3.100 -0.0177  0.4494  0.3315
   15MOL   C76115909   5.055   4.179   3.230 -0.1480 -0.0052  0.0140
   15MOL   S76215910   5.108   4.313   3.332  0.0840 -0.0744  0.3947
   15MOL   O76315911   5.210   4.396   3.268 -0.1656 -0.5343 -0.2945
   15MOL   O76415912   5.148   4.255   3.460  0.1821 -0.9799  0.5554
   15MOL   C76515913   4.959   4.414   3.360 -0.0908  0.7515  0.1106
   15MOL   C76615914   4.960   4.510   3.462 -0.2492 -0.4091 -0.0016
   15MOL   C76715915   4.851   4.599   3.476  0.2583 -0.1033  0.1862
   15MOL   C76815916   4.737   4.588   3.399  0.0419 -0.2144 -0.3174
   15MOL   O76915917   4.635   4.671   3.432  1.1585  0.0244 -0.6187
   15MOL   C77015918   4.633   4.797   3.373 -0.0528 -0.1197 -0.1637
   15MOL   C77115919   4.660   4.905   3.460 -0.7107  0.0481 -0.2870
   15MOL   C77215920   4.648   5.037   3.420  0.1037  0.1911  0.0109
   15MOL   C77315921   4.623   5.059   3.283  0.4174  0.0507  0.0788
   15MOL   C77415922   4.629   5.207   3.232 -0.3711  0.2747  0.6649
   15MOL   C77515923   4.777   5.248   3.207 -0.4674  0.1679 -0.0410
   15MOL   C77615924   4.565   5.221   3.089 -0.2804  0.1740  0.4029
   15MOL   C77715925   4.562   5.301   3.333  0.5273  0.8444 -0.4410
   15MOL   C77815926   4.621   5.407   3.409 -0.2488 -0.5932  0.5567
   15MOL   C77915927   4.546   5.476   3.509  0.2936  0.1032 -0.2826
   15MOL   C78015928   4.414   5.433   3.534  0.3680 -0.3093  0.0198
   15MOL   O78115929   4.343   5.503   3.628  0.5630 -0.5162 -0.2914
   15MOL   C78215930   4.359   5.325   3.462  0.3454  0.0519 -0.3444
   15MOL   C78315931   4.432   5.260   3.369  0.1010 -0.1842 -0.0174
   15MOL   C78415932   4.589   4.954   3.192  0.1262 -0.2165  0.3224
   15MOL   C78515933   4.592   4.822   3.238  0.2313 -0.2121  0.5803
   15MOL   C78615934   4.732   4.486   3.297 -0.0327  0.3879  0.3156
   15MOL   C78715935   4.841   4.398   3.280  0.8719 -0.1220 -0.3320
   15MOL   C78815936   4.954   4.088   3.273  0.5090  0.0172 -0.1578
   15MOL   C78915937   4.932   3.974   3.188  0.0299 -0.2655 -0.3880
   15MOL   H79015938   5.147   4.032   2.928 -1.2440  0.7513 -0.1619
   15MOL   H79115939   5.187   4.244   3.084  0.6187  0.1416  1.7810
   15MOL   H79215940   5.051   4.523   3.518 -0.8613 -1.1547  1.1755
   15MOL   H79315941   4.859   4.681   3.545  0.5972  0.9519 -1.0794
   15MOL   H79415942   4.693   4.875   3.558 -0.0383 -0.4739 -0.6662
   15MOL   H79515943   4.668   5.119   3.487  1.3158 -1.7474  2.0663
   15MOL   H79615944   4.843   5.240   3.293  0.8435  1.0746 -0.9349
   15MOL   H79715945   4.790   5.349   3.168  2.7122  0.1207  0.8119
   15MOL   H79815946   4.829   5.185   3.135 -2.3807  0.8904 -2.1486
   15MOL   H79915947   4.459   5.197   3.089 -0.1273 -0.5306 -0.3504
   15MOL   H80015948   4.580   5.324   3.059 -0.1116 -0.3723 -1.4091
   15MOL   H80115949   4.594   5.157   3.006 -0.1042  1.5937 -0.6297
   15MOL   H80215950   4.723   5.439   3.397 -0.3777 -0.1457  0.6553
   15MOL   H80315951   4.587   5.558   3.566  0.2077  0.3131 -0.5185
   15MOL   H80415952   4.259   5.294   3.486  0.4715  0.3973  0.6467
   15MOL   H80515953   4.386   5.194   3.297  1.7725 -0.6601 -0.6626
   15MOL   H80615954   4.570   4.971   3.087  2.3087  1.4472  0.1466
   15MOL   H80715955   4.567   4.744   3.168  1.3400 -0.5739  0.5781
   15MOL   H80815956   4.646   4.472   3.234  1.3391  0.5041 -1.6320
   15MOL   H80915957   4.823   4.323   3.205  0.0201 -0.9789  0.7082
   15MOL   H81015958   4.908   4.114   3.366  0.0315  1.0418 -0.6749
   15MOL   H81115959   4.866   3.896   3.222 -0.4878  0.3275 -0.0300
   15MOL   C81215960   4.271   5.617   3.601 -0.2137 -0.0576  0.4236
   15MOL   C81315961   4.166   5.638   3.686 -0.5002  0.0558  0.3634
   15MOL   C81415962   4.093   5.756   3.675  0.6539  0.5747 -0.2201
   15MOL   C81515963   4.127   5.851   3.575  0.1405 -0.9944 -0.0026
   15MOL   S81615964   4.029   5.999   3.560 -0.3114 -0.0462  0.0487
   15MOL   O81715965   3.895   5.975   3.622  0.3598 -0.3171  0.2463
   15MOL   O81815966   4.039   6.049   3.420  0.0685  0.3115  0.5417
   15MOL   C81915967   4.119   6.107   3.665  0.5533  0.5277  0.1518
   15MOL   C82015968   4.047   6.174   3.760  1.0938  0.2165 -0.0980
   15MOL   C82115969   4.103   6.254   3.855 -0.0332  0.0643 -0.0360
   15MOL   C82215970   4.241   6.271   3.850 -0.0237  0.4075 -0.5641
   15MOL   O82315971   4.297   6.341   3.955  0.4099  0.1971 -0.8722
   15MOL   C82415972   4.363   6.457   3.910  0.3026  0.1102  0.0773
   15MOL   C82515973   4.486   6.482   3.960 -0.4932 -0.5242  0.5608
   15MOL   C82615974   4.562   6.589   3.912 -0.3543  0.3457 -0.7273
   15MOL   C82715975   4.518   6.673   3.810  0.3641 -0.6918  0.5973
   15MOL   C82815976   4.615   6.779   3.751 -0.8463  0.0925 -0.2374
   15MOL   C82915977   4.549   6.853   3.633  0.3779  0.9656  0.3683
   15MOL   C83015978   4.646   6.894   3.846  0.3519  0.6021 -0.1583
   15MOL   C83115979   4.752   6.726   3.712 -0.0177 -0.3342  0.1785
   15MOL   C83215980   4.791   6.692   3.579  0.5626 -0.0536  0.0413
   15MOL   C83315981   4.918   6.630   3.552  0.2201 -0.5955 -0.0171
   15MOL   C83415982   5.016   6.614   3.657 -0.3597  0.3107  1.2876
   15MOL   O83515983   5.145   6.577   3.630  0.2693  0.3649 -0.2371
   15MOL   C83615984   4.981   6.642   3.786  0.3757 -0.6836  0.4432
   15MOL   C83715985   4.853   6.700   3.812  1.6257  0.0743 -0.0399
   15MOL   C83815986   4.379   6.650   3.763 -0.5236 -0.0096  0.5583
   15MOL   C83915987   4.302   6.547   3.818  0.0716 -0.0037  0.0778
   15MOL   C84015988   4.319   6.212   3.745  0.5830  0.0086 -0.4024
   15MOL   C84115989   4.258   6.131   3.650 -0.4763  0.8063 -0.6940
   15MOL   C84215990   4.233   5.828   3.483  0.2486 -0.1723  0.1417
   15MOL   C84315991   4.300   5.706   3.493  0.4172  0.7607  0.5010
   15MOL   H84415992   4.144   5.573   3.769  1.9763  0.0523  1.0759
   15MOL   H84515993   4.004   5.765   3.736  1.9321 -2.5603  2.2477
   15MOL   H84615994   3.942   6.148   3.753  1.5040 -1.3238 -0.6299
   15MOL   H84715995   4.043   6.293   3.936  1.6663 -0.4825  1.5187
   15MOL   H84815996   4.523   6.423   4.042 -2.4117 -1.9712  0.4125
   15MOL   H84915997   4.661   6.589   3.955  0.3258  1.7819 -2.2415
   15MOL   H85015998   4.450   6.893   3.656 -0.6066 -1.0037 -0.2555
   15MOL   H85115999   4.522   6.779   3.557  0.4665 -1.0408  2.2655
   15MOL   H85216000   4.608   6.930   3.583 -0.7291  1.5206 -0.1095
   15MOL   H85316001   4.687   6.879   3.946 -0.0058  3.8316  0.5176
   15MOL   H85416002   4.716   6.958   3.793  1.1555 -0.4310 -0.3585
   15MOL   H85516003   4.557   6.952   3.868 -1.2162 -1.9027  0.4049
   15MOL   H85616004   4.717   6.708   3.502  1.9730  2.2202 -0.9015
   15MOL   H85716005   4.937   6.577   3.460 -1.6628  0.7850 -1.2239
   15MOL   H85816006   5.044   6.626   3.873  0.0773  0.6889  0.9325
   15MOL   H85916007   4.820   6.695   3.914 -0.3952 -0.3183 -0.6916
   15MOL   H86016008   4.338   6.721   3.693 -1.1191 -0.3122  0.5980
   15MOL   H86116009   4.202   6.530   3.781 -1.0979  1.7607  2.2974
   15MOL   H86216010   4.422   6.243   3.735  0.5506  0.0500 -0.6074
   15MOL   H86316011   4.310   6.091   3.564  0.2335  0.8630 -0.2852
   15MOL   H86416012   4.259   5.902   3.409 -1.2304  0.3194  0.0836
   15MOL   H86516013   4.374   5.677   3.420 -0.5370  3.3019 -1.5852
   15MOL   C86616014   5.244   6.639   3.700 -0.1693 -0.2909 -0.1777
   15MOL   C86716015   5.301   6.583   3.812  0.0336 -0.2848  0.0088
   15MOL   C86816016   5.401   6.649   3.886 -0.1665  0.5330 -0.4298
   15MOL   C86916017   5.440   6.777   3.846  0.0046  0.1693 -0.0289
   15MOL   S87016018   5.583   6.852   3.931  0.2035  0.1962  0.1847
   15MOL   O87116019   5.614   6.982   3.859  0.6210  0.4563 -0.5738
   15MOL   O87216020   5.687   6.749   3.948 -0.2065  0.2580 -0.0310
   15MOL   C87316021   5.533   6.881   4.106  0.0774  0.2313  0.6877
   15MOL   C87416022   5.398   6.852   4.146  0.0493 -0.2603  0.0893
   15MOL   C87516023   5.358   6.873   4.278 -0.4219  0.1781 -0.0178
   15MOL   C87616024   5.455   6.924   4.371  0.2614 -1.1186  0.0114
   15MOL   O87716025   5.423   6.937   4.503  0.5135  0.3627 -0.2297
   15MOL   C87816026   5.408   7.062   4.554  0.2305 -0.5139 -0.2568
   15MOL   C87916027   5.365   7.175   4.487 -0.1102  0.0617 -0.0687
   15MOL   C88016028   5.349   7.296   4.550  0.4108  0.0208 -0.0271
   15MOL   C88116029   5.378   7.310   4.685  0.4847 -0.9894 -0.3634
   15MOL   C88216030   5.368   7.447   4.754  0.0350  0.5907 -0.8010
   15MOL   C88316031   5.219   7.494   4.752 -0.5113 -0.1745 -0.2423
   15MOL   C88416032   5.411   7.444   4.900 -0.2005 -0.2988 -0.8678
   15MOL   C88516033   5.461   7.552   4.694 -0.3193 -0.4035 -0.1213
   15MOL   C88616034   5.569   7.514   4.610  0.7619 -0.1517 -0.6287
   15MOL   C88716035   5.648   7.609   4.546  0.0643 -0.1248 -0.7957
   15MOL   C88816036   5.638   7.741   4.578 -0.3359 -0.0404 -0.0302
   15MOL   O88916037   5.707   7.839   4.511  0.2942  0.1239 -0.0781
   15MOL   C89016038   5.544   7.782   4.675  0.1256 -0.1933  0.0445
   15MOL   C89116039   5.448   7.688   4.725 -0.3262 -0.2585  0.3671
   15MOL   C89216040   5.427   7.197   4.756 -0.2426  0.0965 -0.9982
   15MOL   C89316041   5.441   7.074   4.691  0.8425  0.1616  0.7648
   15MOL   C89416042   5.584   6.958   4.334  0.0908  0.2572  0.0376
   15MOL   C89516043   5.629   6.930   4.203 -0.2903 -0.5161  0.5967
   15MOL   C89616044   5.383   6.843   3.735  0.0806 -0.3270  0.0855
   15MOL   C89716045   5.287   6.773   3.662  0.1087 -0.4245  0.4579
   15MOL   H89816046   5.280   6.483   3.846 -1.7254 -0.0356 -0.2656
   15MOL   H89916047   5.456   6.597   3.963 -0.6366 -0.6039 -0.8554
   15MOL   H90016048   5.318   6.818   4.083  0.0226 -0.3881  0.1909
   15MOL   H90116049   5.254   6.854   4.297 -0.0487 -2.4654 -0.4400
   15MOL   H90216050   5.328   7.170   4.385  2.4651  0.5782 -1.0525
   15MOL   H90316051   5.323   7.382   4.490 -0.9616 -1.9175 -2.3311
   15MOL   H90416052   5.200   7.529   4.651  1.5980  1.1733 -0.2111
   15MOL   H90516053   5.215   7.586   4.810  1.5399  0.4775 -1.0843
   15MOL   H90616054   5.143   7.420   4.779 -0.6760  0.1717  0.2381
   15MOL   H90716055   5.396   7.539   4.951 -1.5452 -1.6062  1.2768
   15MOL   H90816056   5.354   7.369   4.956 -0.7072  0.8208  0.1276
   15MOL   H90916057   5.513   7.411   4.922 -0.6942 -1.3229 -0.0335
   15MOL   H91016058   5.591   7.409   4.594 -0.7623 -0.2927 -1.8858
   15MOL   H91116059   5.724   7.576   4.477  2.0080  0.4348  1.0225
   15MOL   H91216060   5.529   7.883   4.711 -0.1738 -0.5926  1.0843
   15MOL   H91316061   5.380   7.733   4.797 -0.8576 -0.1792 -0.1788
   15MOL   H91416062   5.433   7.197   4.864 -1.5996  0.8673 -0.9197
   15MOL   H91516063   5.465   6.984   4.746  0.3917 -1.8426 -2.1711
   15MOL   H91616064   5.642   7.002   4.414  0.0885 -0.1796  0.2824
   15MOL   H91716065   5.733   6.948   4.181 -0.9124  1.0396 -1.2089
   15MOL   H91816066   5.418   6.937   3.697  0.2599  0.1059  1.2907
   15MOL   H91916067   5.232   6.808   3.576 -0.7427 -0.2808  1.0555
   15MOL   C92016068   5.812   7.910   4.567  0.1706  0.3729  0.1091
   15MOL   C92116069   5.822   8.042   4.532 -0.1512 -0.4878  0.3809
   15MOL   C92216070   5.940   8.118   4.560  0.3540 -0.4768  0.0924
   15MOL   C92316071   6.045   8.055   4.623 -0.2425 -0.6667  0.5393
   15MOL   S92416072   6.195   8.149   4.640  0.3125  0.0644  0.2029
   15MOL   O92516073   6.176   0.027   4.571  0.4026 -0.5740 -0.3424
   15MOL   O92616074   6.303   8.054   4.612 -0.5640  0.1358  0.5936
   15MOL   C92716075   6.206   8.182   4.806 -0.0049 -0.3747 -0.4795
   15MOL   C92816076   6.132   8.114   4.899 -0.4565  0.5768 -0.2378
   15MOL   C92916077   6.134   8.156   5.034 -0.7347 -0.2851  0.3347
   15MOL   C93016078   6.221   0.003   5.089  0.2751 -0.3911 -0.4263
   15MOL   O93116079   6.225   0.033   5.220  0.2251  0.0084 -0.3291
   15MOL   C93216080   6.169   0.156   5.247 -0.4378  0.1816 -0.0384
   15MOL   C93316081   6.249   0.268   5.288 -0.5199  0.8670 -0.3851
   15MOL   C93416082   6.193   0.387   5.325  0.0737 -0.3050  0.3299
   15MOL   C93516083   6.055   0.411   5.308 -0.2775  0.7439  0.1998
   15MOL   C93616084   6.003   0.557   5.311 -0.1911  0.2601  0.4093
   15MOL   C93716085   6.030   0.608   5.164 -0.6649 -0.2537  0.5110
   15MOL   C93816086   5.854   0.549   5.336  0.3811 -0.3783 -0.0652
   15MOL   C93916087   6.069   0.638   5.423  0.8122  0.0818  0.0782
   15MOL   C94016088   6.155   0.746   5.402  0.6520 -0.4865  0.6093
   15MOL   C94116089   6.196   0.824   5.513  0.6084 -0.4250 -0.3766
   15MOL   C94216090   6.148   0.796   5.642 -0.1892 -0.0942  0.4012
   15MOL   O94316091   6.177   0.881   5.744 -0.7969 -0.1267 -0.2670
   15MOL   C94416092   6.085   0.678   5.666  0.0980  0.8254 -0.0880
   15MOL   C94516093   6.041   0.600   5.559  0.6736  0.4067 -0.1083
   15MOL   C94616094   5.971   0.295   5.273  0.0442  0.0592 -0.1905
   15MOL   C94716095   6.030   0.171   5.245 -0.0710 -0.2538 -0.3713
   15MOL   C94816096   6.304   0.060   4.990  0.3862 -0.9359  0.6440
   15MOL   C94916097   6.290   0.033   4.854  0.4485  0.1414  0.1584
   15MOL   C95016098   6.032   7.924   4.667 -0.0905 -0.0170 -0.7628
   15MOL   C95116099   5.917   7.850   4.633 -0.0413  0.4429  0.1395
   15MOL   H95216100   5.736   8.088   4.485  0.9169  2.2710  0.9871
   15MOL   H95316101   5.946   8.225   4.548  0.5341 -0.5907 -0.8712
   15MOL   H95416102   6.063   8.037   4.868  0.1473  1.0748 -2.9242
   15MOL   H95516103   6.071   8.106   5.106 -0.6669 -1.9776 -0.7481
   15MOL   H95616104   6.356   0.258   5.291 -0.3250  3.0238  2.0439
   15MOL   H95716105   6.262   0.468   5.343 -1.1907  0.7853  0.3533
   15MOL   H95816106   6.134   0.609   5.132 -0.2274  0.4666  1.9327
   15MOL   H95916107   5.994   0.710   5.154  0.0025 -0.0950 -0.3243
   15MOL   H96016108   5.980   0.550   5.086  0.4459 -0.6881  0.1158
   15MOL   H96116109   5.794   0.483   5.273  1.9271 -1.1158 -0.8009
   15MOL   H96216110   5.824   0.503   5.430  1.0000  0.4284  0.5444
   15MOL   H96316111   5.815   0.650   5.328  2.1948  0.3020 -0.6263
   15MOL   H96416112   6.176   0.776   5.300 -1.9756  1.5596  0.6129
   15MOL   H96516113   6.242   0.920   5.500 -1.7086  0.7975  0.1649
   15MOL   H96616114   6.057   0.646   5.765  0.4701  1.3136  0.1783
   15MOL   H96716115   5.984   0.511   5.583  1.6669 -0.7354 -1.9009
   15MOL   H96816116   5.866   0.296   5.250 -0.2826 -0.0864  1.2635
   15MOL   H96916117   5.974   0.082   5.222  2.0880 -1.7566 -0.0185
   15MOL   H97016118   6.374   0.136   5.023 -0.9104  0.5348  0.0412
   15MOL   H97116119   6.351   0.084   4.781 -0.4955 -0.5805 -1.1580
   15MOL   H97216120   6.120   7.885   4.716  0.2520  2.9776  1.1771
   15MOL   H97316121   5.920   7.747   4.665  0.7447  0.3361 -0.2684
   15MOL   C97416122   6.082   0.977   5.774  0.1589  0.2544 -0.4729
   15MOL   C97516123   5.998   0.974   5.887 -0.5007  0.1630 -0.3879
   15MOL   C97616124   5.913   1.081   5.915  0.4043 -0.6744 -0.5359
   15MOL   C97716125   5.910   1.194   5.829  0.2498  0.5777  0.5669
   15MOL   S97816126   5.785   1.322   5.858  0.0352  0.0943  0.1936
   15MOL   O97916127   5.734   1.366   5.728 -0.1674 -0.0704 -0.1671
   15MOL   O98016128   5.845   1.411   5.956  0.0777 -0.1215 -0.0910
   15MOL   C98116129   5.651   1.245   5.941  1.0712 -0.1783 -0.5310
   15MOL   C98216130   5.580   1.145   5.876  0.3926  0.4194 -0.1983
   15MOL   C98316131   5.474   1.082   5.948  0.5947 -0.4251  0.1392
   15MOL   C98416132   5.440   1.111   6.076  0.6883  0.2408 -0.3482
   15MOL   O98516133   5.331   1.051   6.131  0.9861  0.7523 -0.2278
   15MOL   C98616134   5.217   1.130   6.142  0.3507 -0.2374 -0.5658
   15MOL   C98716135   5.178   1.211   6.039 -0.1661  0.0334  0.0250
   15MOL   C98816136   5.077   1.306   6.058  0.2395 -0.9726  0.2662
   15MOL   C98916137   5.002   1.315   6.178  0.3803 -0.1359  1.0006
   15MOL   C99016138   4.875   1.409   6.176 -0.1057 -0.4719  0.6089
   15MOL   C99116139   4.779   1.362   6.070  0.0887  0.3819  0.2279
   15MOL   C99216140   4.807   1.427   6.309  0.4541  0.0985  0.2645
   15MOL   C99316141   4.925   1.552   6.155  0.6076 -0.4647 -0.3589
   15MOL   C99416142   4.876   1.642   6.056 -0.2698 -0.5555  0.3769
   15MOL   C99516143   4.923   1.778   6.049  0.1699  0.0659  0.0059
   15MOL   C99616144   5.030   1.819   6.135  0.7293 -0.4995  0.1876
   15MOL   O99716145   5.092   1.941   6.140 -0.6706 -0.2456  0.2109
   15MOL   C99816146   5.073   1.730   6.233  0.3274 -0.2145  0.0384
   15MOL   C99916147   5.024   1.595   6.246  0.2699  0.3084 -0.5106
   15MOL     C116148   5.039   1.232   6.287  0.0363  0.1183 -0.2653
   15MOL     C216149   5.151   1.146   6.267 -0.0895  0.4003 -0.6768
   15MOL     C316150   5.515   1.203   6.142  0.6178  0.0733 -0.6656
   15MOL     C416151   5.623   1.273   6.078  0.3218 -0.4220  0.1656
   15MOL     C516152   6.004   1.199   5.722 -0.4950 -0.1118  0.6533
   15MOL     C616153   6.093   1.095   5.699 -0.2545  0.7188 -0.3662
   15MOL     H716154   6.005   0.895   5.961  0.4333 -1.5853 -2.2691
   15MOL     H816155   5.866   1.079   6.012  1.8957 -1.0866  0.2079
   15MOL     H916156   5.606   1.127   5.773 -2.4661 -0.0981 -0.8681
   15MOL    H1016157   5.416   1.007   5.896 -0.6958  0.3916  0.3689
   15MOL    H1116158   5.242   1.210   5.953 -0.7191 -0.4456 -0.3841
   15MOL    H1216159   5.055   1.380   5.982 -1.0200  0.8140  2.3051
   15MOL    H1316160   4.689   1.422   6.085 -0.8593 -1.0994  0.6337
   15MOL    H1416161   4.762   1.254   6.080  1.2546  0.0792 -0.8396
   15MOL    H1516162   4.814   1.371   5.967  0.4701  1.5711  0.4613
   15MOL    H1616163   4.872   1.455   6.392  1.5677 -1.5425 -0.0083
   15MOL    H1716164   4.727   1.500   6.301  2.8428  2.7151 -0.6766
   15MOL    H1816165   4.764   1.333   6.344 -1.1515  1.7823  2.9509
   15MOL    H1916166   4.795   1.604   5.995  0.6902  0.4060 -1.5384
   15MOL    H2016167   4.893   1.840   5.966 -2.2819 -0.1906  0.6832
   15MOL    H2116168   5.144   1.767   6.305 -0.1162  1.4280 -0.3629
   15MOL    H2216169   5.053   1.538   6.333 -1.8778  0.5724  0.4165
   15MOL    H2316170   4.988   1.235   6.382  1.1283  1.1215  0.3045
   15MOL    H2416171   5.187   1.092   6.354 -0.3668  0.2596 -0.6511
   15MOL    H2516172   5.498   1.230   6.245 -1.8700  0.2765 -1.0880
   15MOL    H2616173   5.691   1.343   6.123  1.1251 -1.0298 -0.1063
   15MOL    H2716174   5.998   1.290   5.664  0.8796  0.5394  1.4903
   15MOL    H2816175   6.166   1.110   5.621  0.5107  3.7074  0.8528
   15MOL    C2916176   5.124   2.015   6.025  0.2304 -0.0408 -0.1503
   15MOL    C3016177   5.035   2.113   5.976 -0.7780 -0.1373  0.3240
   15MOL    C3116178   5.054   2.177   5.854  0.8232  0.3674  0.5368
   15MOL    C3216179   5.154   2.130   5.777  0.1546 -0.1443  0.8053
   15MOL    S3316180   5.171   2.200   5.617 -0.5705 -0.1004 -0.5544
   15MOL    O3416181   5.041   2.260   5.575  0.2425 -0.5234  0.6177
   15MOL    O3516182   5.246   2.106   5.529  0.0313  0.0851 -0.6101
   15MOL    C3616183   5.282   2.334   5.656 -0.3715 -0.5721  0.2170
   15MOL    C3716184   5.228   2.461   5.674 -0.2699 -0.0040  0.5565
   15MOL    C3816185   5.316   2.572   5.706  0.0907 -0.1086 -0.0109
   15MOL    C3916186   5.452   2.537   5.721 -0.4849 -0.5638  0.2326
   15MOL    O4016187   5.544   2.639   5.743  0.5798  0.2177 -0.0990
   15MOL    C4116188   5.627   2.629   5.857  0.2100  0.0107  0.2626
   15MOL    C4216189   5.591   2.684   5.981 -0.1308  0.5106  0.5407
   15MOL    C4316190   5.665   2.674   6.100 -0.2837  0.2526 -0.3908
   15MOL    C4416191   5.789   2.609   6.095  0.2284 -0.7739  0.5104
   15MOL    C4516192   5.883   2.605   6.214 -0.6064  0.2553  0.0836
   15MOL    C4616193   5.815   2.506   6.311 -0.0978  0.2957 -0.6040
   15MOL    C4716194   6.022   2.539   6.194 -0.2895 -0.1042  0.4161
   15MOL    C4816195   5.911   2.739   6.270 -0.0931 -0.1958  0.3106
   15MOL    C4916196   5.926   2.763   6.410 -0.2400  0.1150 -0.0657
   15MOL    C5016197   5.931   2.896   6.461  0.1262 -0.1949  0.2782
   15MOL    C5116198   5.932   3.005   6.368 -0.0871  0.5172  0.6037
   15MOL    O5216199   5.925   3.134   6.411 -0.5073  0.1305 -0.6725
   15MOL    C5316200   5.941   2.978   6.231  0.5318  0.5593  0.1310
   15MOL    C5416201   5.925   2.848   6.183  0.1889  0.1357  0.0237
   15MOL    C5516202   5.829   2.549   5.968 -0.0525  0.1117 -0.5434
   15MOL    C5616203   5.752   2.563   5.849  0.0241  0.6245  0.8437
   15MOL    C5716204   5.505   2.409   5.697  0.3463  0.5277 -0.0894
   15MOL    C5816205   5.417   2.309   5.675  0.7281 -0.5557 -0.2576
   15MOL    C5916206   5.255   2.043   5.824 -0.1538  0.2824 -1.3175
   15MOL    C6016207   5.238   1.984   5.951  0.1322  0.4863  0.1350
   15MOL    H6116208   4.948   2.130   6.039 -0.7293  0.1115  0.3241
   15MOL    H6216209   4.993   2.262   5.831  0.3354 -0.1727 -0.1813
   15MOL    H6316210   5.120   2.463   5.676 -0.2896 -1.3547  1.3885
   15MOL    H6416211   5.287   2.674   5.725 -0.4678 -0.6273  2.0420
   15MOL    H6516212   5.495   2.733   5.979 -0.1107  0.4902 -2.5352
   15MOL    H6616213   5.620   2.722   6.185 -3.4471  1.7236 -2.8196
   15MOL    H6716214   5.807   2.410   6.260 -1.8042 -0.4077  0.9123
   15MOL    H6816215   5.715   2.537   6.344  0.6558  1.0144  1.0971
   15MOL    H6916216   5.867   2.474   6.401  1.2669 -0.6947 -1.7410
   15MOL    H7016217   6.062   2.602   6.115  1.8782  0.9787  2.3187
   15MOL    H7116218   6.095   2.540   6.275  0.0210 -0.8897  0.1451
   15MOL    H7216219   6.023   2.435   6.162 -1.5427  0.2695 -0.9074
   15MOL    H7316220   5.905   2.676   6.470 -0.1778 -1.0027 -1.6124
   15MOL    H7416221   5.924   2.908   6.568 -0.8346  3.4713 -0.1363
   15MOL    H7516222   5.960   3.062   6.165 -2.4493  2.7908  1.9949
   15MOL    H7616223   5.933   2.848   6.076  0.7591  0.4583  0.0678
   15MOL    H7716224   5.917   2.488   5.955 -0.0438 -0.1527  0.6338
   15MOL    H7816225   5.786   2.525   5.754 -0.6131  1.5490  0.2412
   15MOL    H7916226   5.609   2.388   5.717 -0.4398 -1.2663  2.3480
   15MOL    H8016227   5.450   2.207   5.656  0.3928 -0.6596 -0.2850
   15MOL    H8116228   5.332   2.011   5.755 -0.2195 -2.0403 -0.3612
   15MOL    H8216229   5.303   1.911   5.998 -0.8890  1.0498  2.4800
   15MOL    H8316230   5.923   3.142   6.505 -1.2442 -0.7654 -0.5947
   16MOL     C116231   4.525   5.886   3.170 -0.9238 -0.5382 -0.2726
   16MOL     C216232   4.483   5.756   3.140 -0.0670 -0.7525 -0.5708
   16MOL     C316233   4.344   5.739   3.104 -0.2386 -0.4071  0.0284
   16MOL     C416234   4.251   5.847   3.091 -0.1448 -0.8180  0.0472
   16MOL     S516235   4.077   5.826   3.040  0.0728  0.4040 -0.3027
   16MOL     O616236   4.075   5.704   2.951  0.3184  0.1048  0.1006
   16MOL     O716237   4.030   5.951   2.981 -0.8364 -0.1680 -0.2671
   16MOL     C816238   3.972   5.790   3.178  0.0371  0.1787 -0.4466
   16MOL     C916239   3.843   5.840   3.175 -0.2401  0.0882 -0.1056
   16MOL    C1016240   3.752   5.825   3.282  0.3679 -0.4975  0.1126
   16MOL    C1116241   3.793   5.743   3.394  0.0289  0.8030  0.4208
   16MOL    O1216242   3.722   5.723   3.518 -0.4279 -0.0065  0.1270
   16MOL    C1316243   3.586   5.757   3.515 -0.8660 -0.2739 -0.3567
   16MOL    C1416244   3.541   5.885   3.526 -0.7973  0.2361  1.2150
   16MOL    C1516245   3.401   5.904   3.518 -0.0553 -0.4988 -0.3830
   16MOL    C1616246   3.310   5.801   3.491 -0.1624 -0.5578 -0.1578
   16MOL    C1716247   3.162   5.838   3.462  0.3829 -1.0191  0.0894
   16MOL    C1816248   3.095   5.737   3.366  0.3869 -0.2167 -0.0855
   16MOL    C1916249   3.084   5.830   3.595 -0.5241 -0.4919  0.4425
   16MOL    C2016250   3.135   5.972   3.394 -0.9333  0.5360  0.0830
   16MOL    C2116251   3.032   6.060   3.439  0.2413  0.4286  0.7298
   16MOL    C2216252   3.027   6.186   3.373  0.1061 -0.2690  1.0385
   16MOL    C2316253   3.109   6.223   3.267 -0.1102  0.9113  0.1131
   16MOL    O2416254   3.095   6.348   3.215  0.3978  0.3785 -0.2620
   16MOL    C2516255   3.201   6.129   3.218 -0.1550 -1.1951  0.1631
   16MOL    C2616256   3.218   6.006   3.280  0.1261  0.2956 -0.4519
   16MOL    C2716257   3.365   5.676   3.474  0.4869 -0.3766  0.3045
   16MOL    C2816258   3.500   5.645   3.496 -0.2429 -0.2460 -0.1381
   16MOL    C2916259   3.916   5.669   3.382 -0.6698  0.1481 -0.1069
   16MOL    C3016260   4.008   5.698   3.281  0.0460 -0.3871  0.2409
   16MOL    C3116261   4.294   5.971   3.134 -0.2149  0.3728 -0.3690
   16MOL    C3216262   4.432   5.996   3.169 -1.2493  0.0138  0.7687
   16MOL    H3316263   4.558   5.679   3.146 -0.2870 -1.0539 -1.6605
   16MOL    H3416264   4.313   5.639   3.075 -1.3424  0.3194 -1.3711
   16MOL    H3516265   3.819   5.913   3.099 -0.9416  0.4735  0.4791
   16MOL    H3616266   3.661   5.884   3.280  0.5349 -0.2698 -1.2424
   16MOL    H3716267   3.604   5.967   3.558  0.0082 -0.5713  1.7023
   16MOL    H3816268   3.355   6.001   3.529  0.5906 -0.0403 -1.6276
   16MOL    H3916269   3.090   5.640   3.415  0.0734  0.7945  1.9151
   16MOL    H4016270   3.138   5.734   3.265 -0.6116 -0.0385 -0.5167
   16MOL    H4116271   2.990   5.766   3.366 -0.1668 -2.1132  1.2681
   16MOL    H4216272   2.978   5.856   3.594 -0.7809 -0.9901  4.3766
   16MOL    H4316273   3.117   5.739   3.645 -1.5344 -0.8922  0.4077
   16MOL    H4416274   3.129   5.910   3.654 -0.2237 -0.2155 -0.1608
   16MOL    H4516275   2.966   6.043   3.523 -0.1620  0.3227  0.3964
   16MOL    H4616276   2.966   6.263   3.417  1.3550  0.4294  1.5648
   16MOL    H4716277   3.260   6.144   3.129  0.8739 -1.5577  0.7837
   16MOL    H4816278   3.287   5.931   3.243 -0.5243 -0.3971 -0.2893
   16MOL    H4916279   3.296   5.596   3.450  0.5112 -0.0107 -1.0155
   16MOL    H5016280   3.533   5.544   3.478  0.2732 -0.3048  1.0806
   16MOL    H5116281   3.943   5.610   3.469 -0.9319 -1.5262 -1.1506
   16MOL    H5216282   4.103   5.648   3.270 -0.0548 -0.2231 -1.4718
   16MOL    H5316283   4.223   6.051   3.123 -1.2460 -0.7366 -2.0584
   16MOL    H5416284   4.462   6.098   3.187  0.9784 -0.4081 -0.4389
   16MOL    H5516285   4.628   5.898   3.199 -0.8933 -1.9206  0.2218
   16MOL    C5616286   3.208   6.424   3.182  0.3734 -0.5183  0.2558
   16MOL    C5716287   3.231   6.438   3.041  0.4378 -0.8525  0.3102
   16MOL    C5816288   3.343   6.505   2.999 -0.9163 -0.2709  0.5941
   16MOL    C5916289   3.446   6.538   3.087 -0.2336  0.5414  0.4478
   16MOL    S6016290   3.596   6.623   3.042  0.1333  0.4595  0.2618
   16MOL    O6116291   3.630   6.707   3.154  0.3710 -0.5238  0.3727
   16MOL    O6216292   3.585   6.677   2.904 -0.4559  0.5405 -0.0495
   16MOL    C6316293   3.713   6.482   3.037  0.2275 -0.3102 -0.6249
   16MOL    C6416294   3.827   6.501   2.950 -0.0054  0.0709  0.4885
   16MOL    C6516295   3.930   6.404   2.952 -0.4211 -0.6239  0.1666
   16MOL    C6616296   3.925   6.301   3.049 -0.4327  0.2165 -0.0980
   16MOL    O6716297   4.032   6.220   3.059 -0.3510 -0.0002  0.2367
   16MOL    C6816298   4.135   6.281   3.124  0.2012  0.1568 -0.4470
   16MOL    C6916299   4.254   6.320   3.058  0.1639  0.0114 -0.1487
   16MOL    C7016300   4.345   6.389   3.133 -0.1709 -0.4496 -0.2488
   16MOL    C7116301   4.336   6.414   3.269  0.6939  0.4555 -0.9891
   16MOL    C7216302   4.445   6.489   3.339  0.4489  0.0585  0.2780
   16MOL    C7316303   4.437   6.638   3.286 -0.4256 -0.0142  0.0830
   16MOL    C7416304   4.423   6.505   3.486 -0.7755 -0.3720  0.2657
   16MOL    C7516305   4.582   6.411   3.316 -0.1773 -0.0660 -0.0491
   16MOL    C7616306   4.698   6.469   3.254  0.0923  0.8823  0.4877
   16MOL    C7716307   4.808   6.383   3.225  0.0633  1.1216  0.1214
   16MOL    C7816308   4.809   6.251   3.279 -0.2767 -0.2042 -0.7833
   16MOL    O7916309   4.917   6.167   3.249  0.3678 -0.0265 -0.2543
   16MOL    C8016310   4.699   6.196   3.351 -0.0937 -0.1468  0.2435
   16MOL    C8116311   4.589   6.279   3.365 -0.1498 -0.6925 -0.0202
   16MOL    C8216312   4.223   6.366   3.332 -0.2459 -0.6518  0.0984
   16MOL    C8316313   4.120   6.305   3.259 -0.0118  0.2990  0.4573
   16MOL    C8416314   3.814   6.283   3.130 -0.2122  0.3730 -0.4749
   16MOL    C8516315   3.713   6.375   3.125  0.2928  0.7103 -0.0376
   16MOL    C8616316   3.420   6.532   3.229  0.1751  0.5112 -0.3408
   16MOL    C8716317   3.305   6.475   3.272 -0.4171  0.9855  0.1292
   16MOL    H8816318   3.161   6.408   2.964 -1.5613 -0.5617  1.9603
   16MOL    H8916319   3.354   6.520   2.893  0.9689  2.8793  1.1301
   16MOL    H9016320   3.827   6.588   2.886  0.3419  0.0515  0.4586
   16MOL    H9116321   4.019   6.418   2.892 -0.0349 -1.2446  0.5961
   16MOL    H9216322   4.271   6.313   2.952 -2.1763 -0.7035 -0.4967
   16MOL    H9316323   4.436   6.423   3.086  1.6778 -0.0616  3.4008
   16MOL    H9416324   4.525   6.697   3.310  1.6323 -1.7014 -2.8774
   16MOL    H9516325   4.366   6.711   3.324 -0.0327  1.3620 -1.7486
   16MOL    H9616326   4.432   6.645   3.177  3.5060  1.5774 -0.0546
   16MOL    H9716327   4.511   6.560   3.518 -0.7738 -0.0949 -0.2081
   16MOL    H9816328   4.340   6.565   3.523 -0.5256  0.6662 -0.8054
   16MOL    H9916329   4.425   6.415   3.547  1.4911 -1.2949 -1.1161
   16MOL   H10016330   4.686   6.567   3.211  0.7276  0.0888 -1.5717
   16MOL   H10116331   4.882   6.417   3.154  1.6385  0.8137  1.5938
   16MOL   H10216332   4.706   6.091   3.376 -0.8031 -1.2683 -3.8201
   16MOL   H10316333   4.506   6.231   3.415 -0.0307 -1.3706 -0.4580
   16MOL   H10416334   4.199   6.371   3.437  0.2373 -1.6478  0.2642
   16MOL   H10516335   4.027   6.284   3.310  1.0422 -1.7361  1.6298
   16MOL   H10616336   3.815   6.202   3.201  2.5566  0.7936  0.0180
   16MOL   H10716337   3.631   6.357   3.193 -1.8877  1.9955 -2.2740
   16MOL   H10816338   3.496   6.558   3.302 -1.4516  2.7952  0.5786
   16MOL   H10916339   3.290   6.460   3.377 -3.3205  1.7747 -0.1299
   16MOL   C11016340   5.010   6.151   3.345 -0.1925 -0.1318 -0.4020
   16MOL   C11116341   5.072   6.025   3.367  0.7092  0.4602  0.1827
   16MOL   C11216342   5.162   5.998   3.466 -0.2812 -0.4219  0.1722
   16MOL   C11316343   5.201   6.111   3.542 -0.6934 -0.2210 -0.0273
   16MOL   S11416344   5.320   6.090   3.681  0.2855 -0.1629 -0.1853
   16MOL   O11516345   5.325   6.208   3.765 -0.0376 -0.5261 -0.1031
   16MOL   O11616346   5.444   6.029   3.632 -0.2376  0.2916  0.2835
   16MOL   C11716347   5.239   5.967   3.779  0.0496  0.3729  0.3839
   16MOL   C11816348   5.268   5.827   3.772 -0.2788 -0.0760 -0.6723
   16MOL   C11916349   5.209   5.738   3.859 -0.2472  0.3435 -0.0412
   16MOL   C12016350   5.114   5.780   3.954 -0.4592 -0.3108 -0.5421
   16MOL   O12116351   5.058   5.688   4.039  0.3730 -0.0426  0.1889
   16MOL   C12216352   5.142   5.605   4.109 -0.0602 -0.5005 -0.4898
   16MOL   C12316353   5.080   5.487   4.155  0.0825 -0.2181 -0.4368
   16MOL   C12416354   5.154   5.399   4.233 -0.1687  0.5393  0.4311
   16MOL   C12516355   5.285   5.430   4.280 -0.5995 -0.4359 -0.5470
   16MOL   C12616356   5.372   5.335   4.367  0.3353 -0.6705 -0.5411
   16MOL   C12716357   5.451   5.426   4.473 -0.4107  0.4965 -0.1087
   16MOL   C12816358   5.278   5.233   4.429 -0.8096 -0.4516  0.2145
   16MOL   C12916359   5.474   5.258   4.283 -0.7583  0.8662  0.1067
   16MOL   C13016360   5.602   5.222   4.328  0.5877 -0.2722 -0.2592
   16MOL   C13116361   5.698   5.168   4.240 -0.3840 -0.0851  0.1214
   16MOL   C13216362   5.663   5.136   4.103  0.1521  0.0470  0.1650
   16MOL   O13316363   5.755   5.106   4.001  0.3280  0.4182 -0.2453
   16MOL   C13416364   5.534   5.166   4.064  0.0090 -0.4280 -0.1212
   16MOL   C13516365   5.438   5.216   4.151  1.0763  0.6020 -0.3652
   16MOL   C13616366   5.338   5.551   4.235  0.2718  0.5342  0.0164
   16MOL   C13716367   5.274   5.641   4.150  0.0484  0.0823 -0.0738
   16MOL   C13816368   5.078   5.915   3.954  0.1541 -0.1561  0.5817
   16MOL   C13916369   5.139   6.009   3.867 -0.2658 -0.4369  1.1503
   16MOL   C14016370   5.148   6.239   3.525 -0.0497 -0.5686  0.0057
   16MOL   C14116371   5.052   6.264   3.421 -0.2157  0.8113  0.5854
   16MOL   H14216372   5.035   5.948   3.301 -0.0618  1.2596 -0.3293
   16MOL   H14316373   5.213   5.903   3.476  1.6198  0.5072 -0.3925
   16MOL   H14416374   5.347   5.793   3.706  0.3546  1.8182 -0.9163
   16MOL   H14516375   5.239   5.636   3.841  0.4031  0.4955  0.1680
   16MOL   H14616376   4.984   5.451   4.120  0.2106 -0.2390 -0.7692
   16MOL   H14716377   5.115   5.303   4.264 -2.6871  1.3291 -0.2149
   16MOL   H14816378   5.534   5.479   4.428  1.7053 -2.2538  0.4553
   16MOL   H14916379   5.504   5.373   4.552 -1.1500 -0.7044 -0.4146
   16MOL   H15016380   5.388   5.506   4.513 -1.0041  0.0113 -0.0666
   16MOL   H15116381   5.333   5.152   4.477 -1.2189 -1.5358 -1.1381
   16MOL   H15216382   5.207   5.283   4.496 -1.4538 -0.9464 -0.0935
   16MOL   H15316383   5.227   5.175   4.352 -1.5232 -2.5022  2.1855
   16MOL   H15416384   5.622   5.231   4.433  1.1217 -0.4400 -0.3469
   16MOL   H15516385   5.797   5.150   4.279 -1.2796 -1.7343  1.7415
   16MOL   H15616386   5.496   5.151   3.964 -0.4580 -0.9785  0.1356
   16MOL   H15716387   5.344   5.243   4.108  0.3714 -2.8436 -1.1810
   16MOL   H15816388   5.432   5.592   4.269  0.3475  0.7324 -0.4282
   16MOL   H15916389   5.329   5.729   4.118 -0.2140  0.6423  0.9694
   16MOL   H16016390   4.998   5.945   4.020  1.6565  2.7144  1.1938
   16MOL   H16116391   5.119   6.115   3.871 -0.0845 -0.4205  1.5660
   16MOL   H16216392   5.181   6.320   3.588 -1.1477 -0.3537  0.3002
   16MOL   H16316393   4.996   6.356   3.406 -0.3913  0.6087 -0.0004
   16MOL   C16416394   5.844   5.006   4.032  0.7624 -0.2965  0.2690
   16MOL   C16516395   5.987   5.033   4.021 -0.0379  0.4981 -0.5394
   16MOL   C16616396   6.076   4.939   4.064 -0.2291  0.0645  0.1886
   16MOL   C16716397   6.028   4.807   4.100  0.2878 -0.0957  0.1912
   16MOL   S16816398   6.156   4.684   4.139  0.2706 -0.0244  0.4483
   16MOL   O16916399   6.233   4.655   4.015 -0.0441 -0.0500 -0.5887
   16MOL   O17016400   6.092   4.565   4.205 -0.0038  0.0200  0.5576
   16MOL   C17116401   6.276   4.753   4.249 -0.1864 -0.0415  0.4181
   16MOL   C17216402   6.268   4.723   4.386 -0.2921 -0.1356 -0.7445
   16MOL   C17316403   6.368   4.769   4.475  0.2464  0.7684  0.3093
   16MOL   C17416404   6.470   4.844   4.422 -0.9032  0.4895  0.2987
   16MOL   O17516405   6.554   4.902   4.516  0.0330  0.1234 -0.3050
   16MOL   C17616406   6.592   5.031   4.497  0.1028  0.2928  0.1789
   16MOL   C17716407   6.492   5.133   4.493 -0.1222  0.3821 -0.0368
   16MOL   C17816408   6.529   5.264   4.480  0.2761 -0.0185 -0.2481
   16MOL   C17916409   6.670   5.298   4.459  0.9089  0.1495  0.5478
   16MOL   C18016410   6.716   5.442   4.421 -0.5042  0.0994  0.2517
   16MOL   C18116411   6.731   5.525   4.552  0.2503 -0.3724 -0.5060
   16MOL   C18216412   6.852   5.437   4.356 -0.6030 -0.4052  0.3628
   16MOL   C18316413   6.614   5.502   4.322 -0.1862 -0.1918 -0.4873
   16MOL   C18416414   6.553   5.628   4.348  0.5235  0.2984  0.1369
   16MOL   C18516415   6.466   5.688   4.257  0.3742 -0.5564  0.5279
   16MOL   C18616416   6.425   5.617   4.147  0.2197  0.1495  0.5771
   16MOL   O18716417   6.348   5.671   4.050 -0.7115 -0.6368  0.0852
   16MOL   C18816418   6.473   5.482   4.129  0.4067 -0.7107  0.2500
   16MOL   C18916419   6.580   5.430   4.208 -0.4061 -0.2957 -0.4992
   16MOL   C19016420   6.765   5.191   4.468 -0.8927 -0.0887 -0.4105
   16MOL   C19116421   6.726   5.062   4.488 -0.4622 -0.3774 -0.0975
   16MOL   C19216422   6.483   4.865   4.281 -0.3577 -0.2659 -0.5091
   16MOL   C19316423   6.387   4.815   4.195 -0.6128 -0.2102  0.6513
   16MOL   C19416424   5.887   4.775   4.105 -0.5684  0.0724 -0.3260
   16MOL   C19516425   5.798   4.877   4.071 -0.3828  0.3237  0.2531
   16MOL   H19616426   6.013   5.122   3.967 -1.6545  0.4609 -1.4417
   16MOL   H19716427   6.181   4.962   4.069  0.0304 -1.1498  0.5249
   16MOL   H19816428   6.182   4.673   4.430 -1.0709  2.0823  0.3113
   16MOL   H19916429   6.363   4.750   4.581 -1.4775  0.2950  0.1586
   16MOL   H20016430   6.386   5.119   4.509  0.4897 -3.5575  0.9524
   16MOL   H20116431   6.448   5.336   4.478  1.1714  1.0141  0.1389
   16MOL   H20216432   6.777   5.621   4.526  1.6008 -1.1696 -1.0667
   16MOL   H20316433   6.790   5.474   4.627  1.5256  1.5157 -0.1875
   16MOL   H20416434   6.638   5.552   4.603  1.0225 -0.5066  0.9842
   16MOL   H20516435   6.933   5.401   4.419 -1.2218 -0.9441  0.8564
   16MOL   H20616436   6.847   5.379   4.264 -1.0774 -0.4169  0.3984
   16MOL   H20716437   6.889   5.538   4.336  0.5065 -0.7544  0.6172
   16MOL   H20816438   6.574   5.687   4.436 -2.1314  0.3827  0.7751
   16MOL   H20916439   6.413   5.781   4.270 -3.7308 -2.7441  0.1922
   16MOL   H21016440   6.449   5.427   4.039 -0.8377 -0.5393  0.4643
   16MOL   H21116441   6.623   5.334   4.183 -1.0918 -0.7314 -0.0402
   16MOL   H21216442   6.871   5.207   4.453 -0.9113  0.5081  0.0808
   16MOL   H21316443   6.802   4.987   4.502 -1.6916 -1.3851  1.3124
   16MOL   H21416444   6.563   4.928   4.245 -1.3560  0.3538 -1.6688
   16MOL   H21516445   6.394   4.834   4.088  1.3932  0.8715  0.9470
   16MOL   H21616446   5.863   4.674   4.134 -0.4327 -0.6617 -2.6181
   16MOL   H21716447   5.692   4.856   4.078 -0.1408 -0.7258  0.8894
   16MOL   C21816448   6.215   5.668   4.076 -0.0448  0.4260 -0.4248
   16MOL   C21916449   6.144   5.544   4.071  0.0480  0.6318  0.3824
   16MOL   C22016450   6.005   5.544   4.107 -0.4449  0.3750 -0.4615
   16MOL   C22116451   5.929   5.657   4.114  0.2255 -0.0903  0.3683
   16MOL   S22216452   5.755   5.645   4.135  0.4141  0.0877  0.0397
   16MOL   O22316453   5.698   5.771   4.186  0.2883 -0.1483  0.2506
   16MOL   O22416454   5.738   5.528   4.221  0.2833  0.2351 -0.7950
   16MOL   C22516455   5.676   5.603   3.978 -0.1295  0.5492 -0.3222
   16MOL   C22616456   5.556   5.521   3.973 -0.1227 -0.1983  0.1636
   16MOL   C22716457   5.498   5.487   3.850 -0.3552  0.0696 -0.7342
   16MOL   C22816458   5.573   5.508   3.735  0.1000  0.4086  0.0321
   16MOL   O22916459   5.543   5.441   3.617  0.1181 -0.6228  0.3173
   16MOL   C23016460   5.583   5.307   3.612 -0.1768 -0.2238 -0.3044
   16MOL   C23116461   5.516   5.219   3.530  1.2648  0.5213 -0.3328
   16MOL   C23216462   5.547   5.080   3.527 -1.0269 -0.5571 -0.3818
   16MOL   C23316463   5.662   5.030   3.598 -0.2820  0.3123 -0.1043
   16MOL   C23416464   5.712   4.886   3.572 -0.1929 -0.2718 -0.0214
   16MOL   C23516465   5.863   4.864   3.587  0.1555  0.1262  0.1184
   16MOL   C23616466   5.636   4.804   3.687  0.1097 -0.3073 -0.5610
   16MOL   C23716467   5.685   4.847   3.422 -0.0331 -0.2925 -0.0864
   16MOL   C23816468   5.748   4.909   3.311  0.2984 -0.3412  0.4474
   16MOL   C23916469   5.722   4.864   3.181 -0.1875  0.8090  0.1004
   16MOL   C24016470   5.635   4.759   3.159 -0.5201 -0.1288  0.7214
   16MOL   O24116471   5.629   4.702   3.036  0.1056 -0.3227 -0.2691
   16MOL   C24216472   5.562   4.699   3.266  0.2923  0.1668  0.0151
   16MOL   C24316473   5.586   4.749   3.391  0.3548 -0.0310  0.5848
   16MOL   C24416474   5.725   5.116   3.692 -0.0745  0.1512  0.6339
   16MOL   C24516475   5.693   5.256   3.691 -0.0079 -0.9292 -0.4320
   16MOL   C24616476   5.698   5.587   3.734 -0.1460  0.1059  0.5526
   16MOL   C24716477   5.750   5.633   3.858  0.2007  0.4562  0.6921
   16MOL   C24816478   5.995   5.779   4.110  0.0389  0.8093  0.4091
   16MOL   C24916479   6.141   5.784   4.095  0.1197  0.6206 -0.1280
   16MOL   H25016480   6.195   5.453   4.044  0.4678  0.1550  2.6329
   16MOL   H25116481   5.938   5.459   4.105 -1.5893  1.2889 -2.0703
   16MOL   H25216482   5.510   5.501   4.069  0.2179 -1.8781 -0.0156
   16MOL   H25316483   5.418   5.415   3.858  0.0668 -0.4606 -1.2184
   16MOL   H25416484   5.424   5.247   3.481  0.1868 -1.3641  0.5307
   16MOL   H25516485   5.492   5.010   3.466  2.7856 -1.9991 -2.3302
   16MOL   H25616486   5.887   4.760   3.564 -2.1805 -0.5483  0.6068
   16MOL   H25716487   5.886   4.882   3.692 -2.1435 -1.0523  0.8733
   16MOL   H25816488   5.915   4.933   3.521  0.9022 -0.2016  0.3623
   16MOL   H25916489   5.663   4.841   3.785  2.6367  1.6791 -1.9620
   16MOL   H26016490   5.528   4.816   3.685 -0.0325 -1.4819 -0.5632
   16MOL   H26116491   5.670   4.700   3.688  0.9896 -0.0386  2.1684
   16MOL   H26216492   5.818   4.986   3.341 -1.1089  1.0169  0.2738
   16MOL   H26316493   5.780   4.913   3.104  0.8729  0.4081  0.6371
   16MOL   H26416494   5.489   4.620   3.254 -0.6638  0.8301  1.3955
   16MOL   H26516495   5.528   4.715   3.475  0.5447  0.3608  0.8760
   16MOL   H26616496   5.809   5.073   3.744  1.4431 -0.3117 -2.1261
   16MOL   H26716497   5.749   5.324   3.753 -0.6412  1.0443 -1.9688
   16MOL   H26816498   5.741   5.609   3.638  2.2136 -1.9587  1.0895
   16MOL   H26916499   5.844   5.686   3.858  0.9634 -0.9016  0.6417
   16MOL   H27016500   5.933   5.867   4.127  0.3553  0.4648  3.6756
   16MOL   H27116501   6.187   5.882   4.092  0.0344  0.6313 -2.1396
   16MOL   C27216502   5.632   4.774   2.925  0.5311 -0.0413 -0.2387
   16MOL   C27316503   5.727   4.731   2.825  1.2276 -0.7109  0.3673
   16MOL   C27416504   5.748   4.817   2.712  0.4931 -0.3816 -0.8739
   16MOL   C27516505   5.675   4.938   2.699 -0.0910 -0.0327  0.8443
   16MOL   S27616506   5.713   5.061   2.567  0.3356  0.4794  0.0071
   16MOL   O27716507   5.770   4.996   2.446  0.3426  0.7184  0.3483
   16MOL   O27816508   5.771   5.182   2.627 -0.2740 -0.4417 -0.1340
   16MOL   C27916509   5.551   5.108   2.510 -0.4942  0.3182  0.7344
   16MOL   C28016510   5.471   5.013   2.443 -0.5555 -0.9957  0.8140
   16MOL   C28116511   5.335   5.043   2.416 -0.0513  0.3400  0.1356
   16MOL   C28216512   5.286   5.169   2.458 -0.3440  0.0886 -0.3012
   16MOL   O28316513   5.155   5.195   2.419  0.2809  0.0323 -0.0822
   16MOL   C28416514   5.048   5.137   2.482  0.2324  0.6573 -0.2659
   16MOL   C28516515   4.949   5.072   2.413 -0.5823 -0.5540  0.5093
   16MOL   C28616516   4.847   5.010   2.484  0.7725 -0.4947 -0.2217
   16MOL   C28716517   4.837   5.013   2.625 -0.1245  0.3371 -0.0999
   16MOL   C28816518   4.714   4.939   2.701  0.1996 -0.1985 -0.1119
   16MOL   C28916519   4.744   4.913   2.849 -0.3372  0.8360  0.0960
   16MOL   C29016520   4.593   5.035   2.702 -0.5679 -0.4037  0.0525
   16MOL   C29116521   4.685   4.802   2.624 -0.0889 -0.5147 -0.3465
   16MOL   C29216522   4.566   4.770   2.560 -0.6186 -0.3783  0.4767
   16MOL   C29316523   4.549   4.649   2.491 -0.2407  0.2509  0.0737
   16MOL   C29416524   4.656   4.554   2.494  0.3550  0.8933  0.2058
   16MOL   O29516525   4.637   4.441   2.417 -0.3882  0.1081  0.5848
   16MOL   C29616526   4.776   4.576   2.564 -0.1083  1.2577  0.5723
   16MOL   C29716527   4.795   4.709   2.616 -0.3793  0.3187 -0.3324
   16MOL   C29816528   4.945   5.080   2.692  0.2126  0.3487  0.6612
   16MOL   C29916529   5.046   5.142   2.620 -0.4560  0.3137 -0.1781
   16MOL   C30016530   5.370   5.273   2.513  0.1431  0.1631  0.0291
   16MOL   C30116531   5.499   5.236   2.547  0.4290  0.1483 -1.0696
   16MOL   C30216532   5.572   4.968   2.791 -0.0281  0.9918 -0.7129
   16MOL   C30316533   5.549   4.884   2.905 -0.3304  0.1371  0.9124
   16MOL   H30416534   5.780   4.638   2.838  1.0589 -0.6753  1.3516
   16MOL   H30516535   5.836   4.791   2.655 -0.1995 -1.0783 -1.6281
   16MOL   H30616536   5.510   4.915   2.421 -0.8868 -0.6772 -1.3054
   16MOL   H30716537   5.288   4.966   2.358 -0.8322  1.5676 -0.9006
   16MOL   H30816538   4.935   5.072   2.306 -0.7301 -2.4597  0.5134
   16MOL   H30916539   4.777   4.953   2.424 -1.6390  0.2935  1.7310
   16MOL   H31016540   4.835   4.855   2.864 -1.7433 -1.0160  1.7668
   16MOL   H31116541   4.674   4.854   2.908 -0.8185  0.7604 -0.5481
   16MOL   H31216542   4.745   5.008   2.902 -0.4440  1.3816 -0.8669
   16MOL   H31316543   4.606   5.117   2.772  0.2720  0.4566 -1.0935
   16MOL   H31416544   4.569   5.069   2.601 -3.7752 -1.7813  0.2734
   16MOL   H31516545   4.496   4.989   2.720 -0.6624  0.3423  1.4751
   16MOL   H31616546   4.488   4.845   2.564 -1.1176 -0.8252 -0.7878
   16MOL   H31716547   4.460   4.618   2.438 -0.0009 -0.5627  0.1330
   16MOL   H31816548   4.859   4.507   2.562 -0.4157  0.8904 -1.8542
   16MOL   H31916549   4.889   4.732   2.663  0.2449 -4.0551  0.7715
   16MOL   H32016550   4.954   5.075   2.800  3.0946 -2.5463  0.3897
   16MOL   H32116551   5.121   5.197   2.675 -1.0860 -0.7547  1.8343
   16MOL   H32216552   5.336   5.374   2.529  0.4434 -0.0067  1.9253
   16MOL   H32316553   5.570   5.312   2.574  0.5305  0.8999 -3.3533
   16MOL   H32416554   5.523   5.064   2.795 -0.7436  0.5617  1.6097
   16MOL   H32516555   5.472   4.912   2.975 -2.7846 -1.7084 -0.9499
   16MOL   C32616556   4.695   4.323   2.450  0.5448  0.2949  0.0495
   16MOL   C32716557   4.747   4.248   2.342  0.0254 -0.4181  0.0735
   16MOL   C32816558   4.786   4.114   2.359  0.0035  0.4929 -0.0175
   16MOL   C32916559   4.767   4.056   2.487  0.0215 -0.2348  0.2187
   16MOL   S33016560   4.787   3.880   2.488 -0.2357 -0.1194 -0.3191
   16MOL   O33116561   4.886   3.859   2.595 -0.4279  0.5162  0.8047
   16MOL   O33216562   4.820   3.832   2.352  0.0300 -0.2893  0.4605
   16MOL   C33316563   4.642   3.797   2.547  0.6196  0.1164 -0.7309
   16MOL   C33416564   4.646   3.656   2.548 -0.2158  0.6906 -0.5827
   16MOL   C33516565   4.535   3.584   2.595  0.3109  0.0796 -0.4622
   16MOL   C33616566   4.421   3.653   2.634 -0.1853 -0.4034  0.0127
   16MOL   O33716567   4.304   3.592   2.667 -0.6242 -0.1307  0.0616
   16MOL   C33816568   4.242   3.502   2.571  0.7678  0.3163 -0.0424
   16MOL   C33916569   4.231   3.537   2.433  0.0902  0.2889  0.7785
   16MOL   C34016570   4.150   3.466   2.337 -0.2995 -0.1680  0.2435
   16MOL   C34116571   4.085   3.346   2.384  0.0361 -0.3945  0.3595
   16MOL   C34216572   3.992   3.269   2.283 -0.2526 -1.0347  0.8305
   16MOL   C34316573   3.918   3.146   2.348  0.9966 -0.5361 -0.0120
   16MOL   C34416574   3.882   3.365   2.239 -0.4820  0.8084  0.4496
   16MOL   C34516575   4.061   3.219   2.154  0.1012 -0.0491  0.3151
   16MOL   C34616576   3.986   3.181   2.038  0.3362 -0.4837 -0.3343
   16MOL   C34716577   4.054   3.123   1.925  0.3162  0.4996 -0.6954
   16MOL   C34816578   4.193   3.103   1.919  0.0786  0.6969 -0.6295
   16MOL   O34916579   4.242   3.042   1.811 -0.8645 -0.0117 -0.1165
   16MOL   C35016580   4.271   3.153   2.027 -0.4863 -0.2520 -0.5895
   16MOL   C35116581   4.205   3.209   2.142 -0.1147  0.2534 -0.2826
   16MOL   C35216582   4.089   3.314   2.523 -0.5477  0.8870 -0.0745
   16MOL   C35316583   4.161   3.394   2.617  0.4016 -0.1589 -0.8781
   16MOL   C35416584   4.417   3.797   2.633  0.0058  0.0199  0.0225
   16MOL   C35516585   4.531   3.865   2.593 -0.6027 -0.0016  0.1848
   16MOL   C35616586   4.720   4.126   2.598  0.3226 -0.5868  0.1510
   16MOL   C35716587   4.684   4.261   2.580 -0.0349  0.3034  0.1782
   16MOL   H35816588   4.745   4.283   2.239  2.2373 -0.9774 -0.1934
   16MOL   H35916589   4.805   4.057   2.269 -2.5185 -0.9168  0.2846
   16MOL   H36016590   4.739   3.612   2.518 -1.9876 -2.2819 -1.8916
   16MOL   H36116591   4.540   3.476   2.586 -3.5891 -0.0620 -1.8117
   16MOL   H36216592   4.287   3.617   2.388  3.6590 -2.6894 -0.3703
   16MOL   H36316593   4.149   3.509   2.238  1.4499  0.2594  0.4036
   16MOL   H36416594   3.858   3.172   2.436  3.1408  0.8742  1.0640
   16MOL   H36516595   3.975   3.061   2.383 -1.4597 -2.7454 -1.1809
   16MOL   H36616596   3.856   3.107   2.267 -1.6919  0.5199  1.4544
   16MOL   H36716597   3.833   3.404   2.328 -1.9810  0.7741 -0.3302
   16MOL   H36816598   3.918   3.456   2.192 -1.3423  0.3674 -1.0881
   16MOL   H36916599   3.804   3.326   2.173  1.0899 -0.8083 -0.4841
   16MOL   H37016600   3.879   3.182   2.029  0.4559 -2.1513 -2.5408
   16MOL   H37116601   3.993   3.093   1.842  0.2954 -2.1511  0.2386
   16MOL   H37216602   4.378   3.153   2.012 -0.4618  0.9801 -0.4919
   16MOL   H37316603   4.262   3.241   2.228 -2.0954  1.0766  0.7741
   16MOL   H37416604   4.032   3.229   2.558  0.6272 -0.0656 -0.4363
   16MOL   H37516605   4.153   3.377   2.723  0.2489 -0.5256 -0.9478
   16MOL   H37616606   4.322   3.845   2.648 -0.9953 -0.9933 -2.6907
   16MOL   H37716607   4.527   3.973   2.584  0.9071  0.1197  0.9031
   16MOL   H37816608   4.711   4.082   2.696 -0.1159 -1.3178 -0.2063
   16MOL   H37916609   4.626   4.312   2.655 -2.3710 -0.7997 -0.8282
   16MOL   C38016610   4.363   3.074   1.752  0.7247 -0.5734 -0.1193
   16MOL   C38116611   4.390   3.204   1.696  0.7678  0.1720 -1.0245
   16MOL   C38216612   4.514   3.232   1.642 -0.4707 -0.1153  0.1636
   16MOL   C38316613   4.619   3.138   1.656  0.8527 -0.1835  0.4315
   16MOL   S38416614   4.786   3.176   1.602  0.4025  0.0290 -0.2678
   16MOL   O38516615   4.778   3.204   1.459  0.4733  0.8503 -0.1026
   16MOL   O38616616   4.886   3.085   1.653 -0.2216 -0.1993  0.1458
   16MOL   C38716617   4.827   3.335   1.669 -0.3994 -0.2303 -0.3902
   16MOL   C38816618   4.755   3.388   1.774  0.5021  0.0805  0.2045
   16MOL   C38916619   4.808   3.510   1.832 -0.2736  0.3479 -0.4054
   16MOL   C39016620   4.918   3.579   1.774 -0.3761 -0.4993  0.1021
   16MOL   O39116621   4.971   3.694   1.827  0.4843 -0.1813  0.7059
   16MOL   C39216622   4.896   3.808   1.823 -0.3640 -0.3920  0.6381
   16MOL   C39316623   4.811   3.835   1.714  1.0591 -0.3750  0.0136
   16MOL   C39416624   4.734   3.953   1.716  0.3372 -0.1962  0.0268
   16MOL   C39516625   4.743   4.044   1.824 -0.5605 -0.0062 -0.3963
   16MOL   C39616626   4.647   4.168   1.826 -0.8613 -0.5941 -0.2990
   16MOL   C39716627   4.624   4.223   1.688 -0.1536  0.1089 -0.5867
   16MOL   C39816628   4.517   4.117   1.881 -0.6253 -0.3374 -0.3272
   16MOL   C39916629   4.704   4.285   1.905  0.5540  0.0070  0.4933
   16MOL   C40016630   4.840   4.315   1.887 -0.1374  0.1246 -0.0029
   16MOL   C40116631   4.900   4.430   1.954  0.5142  0.2384  0.5850
   16MOL   C40216632   4.820   4.521   2.029  0.4677  0.3382 -0.4281
   16MOL   O40316633   4.873   4.630   2.085  0.3608  0.2623 -0.5446
   16MOL   C40416634   4.687   4.487   2.052  0.1271 -0.0879 -0.1001
   16MOL   C40516635   4.632   4.373   1.993  0.7620  0.3219 -0.4816
   16MOL   C40616636   4.825   4.011   1.934 -0.1043 -0.8182 -0.9908
   16MOL   C40716637   4.902   3.897   1.934 -0.0596  0.4653 -0.9054
   16MOL   C40816638   4.974   3.527   1.658  0.1220 -0.2442  0.6287
   16MOL   C40916639   4.930   3.404   1.612 -0.2172  0.1826  0.3965
   16MOL   C41016640   4.589   3.016   1.724 -0.0706 -0.0881  0.1472
   16MOL   C41116641   4.464   2.981   1.767 -0.2169 -0.5308 -0.1208
   16MOL   H41216642   4.303   3.268   1.696  1.0002  0.4842 -0.9769
   16MOL   H41316643   4.539   3.327   1.597 -0.9790 -1.2007 -2.5095
   16MOL   H41416644   4.664   3.352   1.819  0.3731  0.7529  0.4965
   16MOL   H41516645   4.756   3.551   1.917  1.9136  0.6414  0.8335
   16MOL   H41616646   4.799   3.756   1.641 -1.4251 -1.7496  1.8367
   16MOL   H41716647   4.665   3.968   1.634  0.4568 -1.7364 -0.3789
   16MOL   H41816648   4.561   4.312   1.693  1.0234  0.9391 -0.4555
   16MOL   H41916649   4.582   4.150   1.619 -1.2566  0.0326  0.1450
   16MOL   H42016650   4.724   4.254   1.657  0.3682  2.2604  3.0010
   16MOL   H42116651   4.544   4.074   1.977  0.1391 -0.8541 -0.7750
   16MOL   H42216652   4.452   4.202   1.904  0.9675  0.9961 -0.7030
   16MOL   H42316653   4.478   4.036   1.820  2.1371 -3.3931  1.8230
   16MOL   H42416654   4.901   4.250   1.825 -0.4815  0.8339 -1.1029
   16MOL   H42516655   5.004   4.456   1.943  0.7699 -0.8262  0.4193
   16MOL   H42616656   4.625   4.552   2.113  0.3855  2.6670 -2.6567
   16MOL   H42716657   4.526   4.364   2.013  1.3983 -1.7155  2.1814
   16MOL   H42816658   4.834   4.072   2.023  3.2764  0.5301 -2.1588
   16MOL   H42916659   4.961   3.870   2.021  0.9998  1.3126 -1.3439
   16MOL   H43016660   5.067   3.563   1.615 -0.6570  0.7562 -0.2533
   16MOL   H43116661   4.990   3.352   1.539  0.3736  0.8166  0.4319
   16MOL   H43216662   4.669   2.943   1.724 -1.3176 -1.5414 -3.1875
   16MOL   H43316663   4.438   2.887   1.814 -3.4896  0.1028 -0.4793
   16MOL   C43416664   4.976   4.615   2.174  0.7185 -0.2616 -0.1497
   16MOL   C43516665   5.085   4.704   2.164 -0.8061 -0.2769 -0.1298
   16MOL   C43616666   5.198   4.697   2.248 -0.1065  0.3351  0.1172
   16MOL   C43716667   5.198   4.606   2.357 -0.2193  0.3153 -0.1464
   16MOL   S43816668   5.334   4.596   2.477 -0.1046  0.2118  0.0533
   16MOL   O43916669   5.403   4.724   2.461 -0.2697 -0.6073  0.0949
   16MOL   O44016670   5.405   4.467   2.462  0.4086 -0.2293 -0.0192
   16MOL   C44116671   5.261   4.596   2.646  0.8209 -0.8837  0.1716
   16MOL   C44216672   5.184   4.706   2.688  0.4655  0.6250  0.6366
   16MOL   C44316673   5.130   4.708   2.817 -0.3987  0.7662 -0.5850
   16MOL   C44416674   5.153   4.599   2.911  0.2336  0.9560 -0.2081
   16MOL   O44516675   5.080   4.591   3.029  0.2421  0.0404 -0.5204
   16MOL   C44616676   5.099   4.688   3.125  0.6754  0.2223  0.1226
   16MOL   C44716677   4.982   4.742   3.183 -0.1031 -0.6500  0.5968
   16MOL   C44816678   4.992   4.831   3.289  0.0825  0.0173  0.1534
   16MOL   C44916679   5.112   4.887   3.331 -0.4815  0.9040  0.4530
   16MOL   C45016680   5.133   4.992   3.441 -0.0175 -0.6363 -0.2665
   16MOL   C45116681   5.209   5.112   3.392  0.5244 -0.0403 -0.9232
   16MOL   C45216682   5.006   5.054   3.497  0.3997  0.5959 -0.2858
   16MOL   C45316683   5.189   4.936   3.573 -0.7642 -0.1415 -0.6289
   16MOL   C45416684   5.261   5.016   3.665  0.0755  0.2221  0.4369
   16MOL   C45516685   5.317   4.962   3.783 -0.0405 -0.2404  0.6131
   16MOL   C45616686   5.289   4.827   3.812 -0.4437  0.3477  0.6073
   16MOL   O45716687   5.348   4.776   3.924 -0.2820 -0.4614 -0.2115
   16MOL   C45816688   5.206   4.748   3.731  0.1141 -0.2148 -0.4357
   16MOL   C45916689   5.157   4.805   3.610 -0.5918 -0.6649  0.3626
   16MOL   C46016690   5.229   4.831   3.277  0.4334 -0.0338  0.0851
   16MOL   C46116691   5.224   4.727   3.181  0.0803  0.0699 -0.6089
   16MOL   C46216692   5.233   4.491   2.869 -0.4652 -0.7340  0.0640
   16MOL   C46316693   5.288   4.487   2.742  0.2745  0.2779  0.6843
   16MOL   C46416694   5.085   4.519   2.373 -0.4746  0.4645 -0.3446
   16MOL   C46516695   4.978   4.520   2.277  0.0651 -0.2713 -0.2722
   16MOL   H46616696   5.087   4.763   2.074  0.4208  0.4218  0.3536
   16MOL   H46716697   5.281   4.759   2.219  0.6762 -1.2586 -1.0924
   16MOL   H46816698   5.157   4.785   2.620 -0.0704 -0.5962 -0.5816
   16MOL   H46916699   5.068   4.785   2.860  1.0896  1.8127 -0.2863
   16MOL   H47016700   4.880   4.712   3.164 -0.2095  1.6291 -2.7406
   16MOL   H47116701   4.898   4.856   3.335  0.0401  0.2683 -0.0745
   16MOL   H47216702   5.207   5.191   3.467  1.2651  0.4898 -1.4523
   16MOL   H47316703   5.170   5.150   3.298  1.3462 -1.8281 -2.0027
   16MOL   H47416704   5.309   5.071   3.374 -0.2192 -1.6126 -1.5456
   16MOL   H47516705   4.930   4.980   3.520 -0.1638  1.0515 -0.6576
   16MOL   H47616706   5.024   5.105   3.591 -1.0903 -0.3573  0.5198
   16MOL   H47716707   4.952   5.107   3.419 -0.1824 -0.0636 -0.3349
   16MOL   H47816708   5.283   5.120   3.651 -1.1246  0.2755 -1.2219
   16MOL   H47916709   5.376   5.026   3.846  1.4498  0.2101 -1.1678
   16MOL   H48016710   5.199   4.643   3.756  2.0099 -0.0777  0.8228
   16MOL   H48116711   5.092   4.745   3.549  0.0737  1.6966 -2.8009
   16MOL   H48216712   5.327   4.854   3.316  0.0337  1.3236  0.3011
   16MOL   H48316713   5.311   4.690   3.131  1.1136  2.2436 -0.4719
   16MOL   H48416714   5.263   4.425   2.949 -0.3430  2.8084  3.1071
   16MOL   H48516715   5.350   4.401   2.720  0.5468  0.3255  1.2614
   16MOL   H48616716   5.095   4.460   2.463 -0.1455 -2.4028 -2.1885
   16MOL   H48716717   4.893   4.455   2.282  0.4554 -0.7405  0.4349
   16MOL   C48816718   5.283   4.787   4.045  0.8898 -0.4329 -0.8027
   16MOL   C48916719   5.351   4.870   4.139  0.7310  0.6297 -0.5047
   16MOL   C49016720   5.303   4.887   4.272  1.1844 -0.7167 -0.3507
   16MOL   C49116721   5.179   4.829   4.303 -1.0077 -0.2971  0.3220
   16MOL   S49216722   5.103   4.854   4.472  0.4635  0.1156  0.1236
   16MOL   O49316723   4.992   4.753   4.485 -0.4742 -0.1261  0.4152
   16MOL   O49416724   5.076   5.000   4.493  0.0915  0.1568  0.2036
   16MOL   C49516725   5.221   4.808   4.591  0.8373 -0.2143 -0.0692
   16MOL   C49616726   5.336   4.883   4.621  0.7685 -0.0055 -0.6367
   16MOL   C49716727   5.439   4.826   4.701 -0.2773  1.0667 -0.0335
   16MOL   C49816728   5.415   4.703   4.762 -0.1421 -0.6423  0.2100
   16MOL   O49916729   5.509   4.649   4.842 -0.0024  0.3629 -0.1802
   16MOL   C50016730   5.609   4.583   4.776  0.0534  0.4674 -1.1969
   16MOL   C50116731   5.615   4.446   4.790  0.7513 -0.1652  0.1085
   16MOL   C50216732   5.722   4.373   4.734 -0.6974  0.0843  0.0785
   16MOL   C50316733   5.826   4.434   4.669 -0.4535  0.0273  0.3900
   16MOL   C50416734   5.943   4.353   4.613 -0.6538 -0.0462 -0.9181
   16MOL   C50516735   5.887   4.231   4.530 -0.1265  0.7466  0.3839
   16MOL   C50616736   6.033   4.422   4.509 -0.1154  0.5146  0.2607
   16MOL   C50716737   6.040   4.312   4.727 -0.5397  1.0964  0.9392
   16MOL   C50816738   6.085   4.410   4.810 -0.1207 -1.0921 -0.6438
   16MOL   C50916739   6.178   4.373   4.911  0.3689 -0.0567  0.7005
   16MOL   C51016740   6.233   4.245   4.921  0.4662  0.3206  0.4005
   16MOL   O51116741   6.329   4.214   5.012  0.5540 -0.5065 -0.1654
   16MOL   C51216742   6.194   4.148   4.824  1.0946 -0.5374 -0.3487
   16MOL   C51316743   6.089   4.180   4.735 -0.0590 -0.4470  0.3536
   16MOL   C51416744   5.820   4.575   4.653 -0.9737 -0.1091  0.6441
   16MOL   C51516745   5.719   4.647   4.710 -0.9193 -0.0883 -0.1956
   16MOL   C51616746   5.298   4.631   4.736 -0.0921 -0.2334  0.1034
   16MOL   C51716747   5.202   4.677   4.645  0.4201  0.7955 -0.2461
   16MOL   C51816748   5.111   4.750   4.210  0.1836 -0.1525  0.2776
   16MOL   C51916749   5.159   4.724   4.083  0.3551  0.1909  0.1430
   16MOL   H52016750   5.447   4.916   4.122  0.0879  2.7491  1.4522
   16MOL   H52116751   5.351   4.939   4.354 -1.2976  1.4691 -0.2390
   16MOL   H52216752   5.357   4.980   4.580  1.4326  0.1374  0.0287
   16MOL   H52316753   5.531   4.882   4.708  2.6036 -3.6415  2.0441
   16MOL   H52416754   5.541   4.401   4.855  0.3283  0.3556 -0.0089
   16MOL   H52516755   5.723   4.265   4.744 -0.2691 -0.0573 -1.4165
   16MOL   H52616756   5.832   4.154   4.583 -1.4256  0.6204 -1.1106
   16MOL   H52716757   5.968   4.176   4.483 -2.2070  0.0906 -2.6008
   16MOL   H52816758   5.822   4.259   4.446  2.6312 -0.7628 -2.3650
   16MOL   H52916759   6.100   4.496   4.552 -0.5709  1.5118 -0.7346
   16MOL   H53016760   6.109   4.358   4.464  1.1116  1.4623  0.9916
   16MOL   H53116761   5.973   4.470   4.432  1.0936  0.6322 -0.6203
   16MOL   H53216762   6.055   4.513   4.805  0.8591 -0.8696 -2.3060
   16MOL   H53316763   6.198   4.447   4.988 -2.2882  0.8378  0.6051
   16MOL   H53416764   6.246   4.053   4.826 -0.8775 -1.6238  0.9092
   16MOL   H53516765   6.061   4.104   4.663 -3.5357  1.3942 -0.3394
   16MOL   H53616766   5.887   4.633   4.590 -2.9200  1.9753  0.4405
   16MOL   H53716767   5.716   4.755   4.716  0.8627  0.0026 -0.6637
   16MOL   H53816768   5.287   4.543   4.797  0.3609 -1.3033 -1.3276
   16MOL   H53916769   5.111   4.621   4.631  1.5999 -0.9878 -1.0467
   16MOL   H54016770   5.007   4.727   4.231 -1.1865  3.9190 -1.3183
   16MOL   H54116771   5.111   4.662   4.009 -1.7649  0.5750  1.1572
   16MOL   C54216772   6.456   4.257   4.983  0.4419  0.1753 -0.6628
   16MOL   C54316773   6.530   4.209   4.872 -1.0741  0.2084  0.1224
   16MOL   C54416774   6.669   4.243   4.866 -0.1251  0.3521 -0.3290
   16MOL   C54516775   6.729   4.326   4.964 -0.1650 -0.1876  0.1161
   16MOL   S54616776   6.895   4.383   4.936  0.0921  0.1769 -0.1040
   16MOL   O54716777   6.931   4.478   5.044  0.4579 -0.4149  0.1625
   16MOL   O54816778   6.917   4.427   4.793  0.1749 -0.3189  0.2607
   16MOL   C54916779   7.000   4.229   4.955  0.0345  0.4073 -0.7827
   16MOL   C55016780   6.953   4.106   5.012  0.0495 -0.3903  0.2591
   16MOL   C55116781   7.045   3.998   5.016 -0.9675 -0.5498  0.9251
   16MOL   C55216782   7.176   4.008   4.955  0.1123 -0.1371 -0.3463
   16MOL   O55316783   7.254   3.902   4.962 -0.7453 -0.0152  0.2903
   16MOL   C55416784   7.386   3.912   4.983 -0.0290 -0.5950 -0.6807
   16MOL   C55516785   7.437   3.978   5.091  0.3714 -0.7187 -0.3001
   16MOL   C55616786   7.570   4.010   5.106  0.3915  0.4242 -0.8824
   16MOL   C55716787   7.666   3.954   5.011 -0.3374 -0.3218  0.0015
   16MOL   C55816788   7.814   3.983   5.027 -0.8179  0.0730 -0.2098
   16MOL   C55916789   7.912   3.866   4.991  0.5285  0.6089  0.4261
   16MOL   C56016790   7.858   4.093   4.928  0.0066 -0.3975  0.0640
   16MOL   C56116791   7.847   4.011   5.179 -0.4901 -0.6851 -0.6505
   16MOL   C56216792   7.864   3.917   5.280 -0.0368 -0.3973  0.3930
   16MOL   C56316793   7.909   3.954   5.410 -0.5297  0.2812  0.9791
   16MOL   C56416794   7.928   4.089   5.440 -0.6565  0.0441  0.3244
   16MOL   O56516795   7.966   4.131   5.566  0.0481 -0.1132  0.5189
   16MOL   C56616796   7.906   4.188   5.344 -0.3285 -0.7353  0.2818
   16MOL   C56716797   7.865   4.147   5.214  0.0534  0.2290  0.3836
   16MOL   C56816798   7.612   3.883   4.901 -1.3261 -0.1204 -0.2021
   16MOL   C56916799   7.471   3.859   4.891  0.2204  0.4251 -0.3926
   16MOL   C57016800   7.218   4.132   4.901  0.0451  1.0545  0.6532
   16MOL   C57116801   7.134   4.240   4.902 -0.6445 -0.4979 -0.0865
   16MOL   C57216802   6.661   4.377   5.074  0.6167 -0.3563  0.2138
   16MOL   C57316803   6.526   4.333   5.078  0.1869  0.1483  0.0986
   16MOL   H57416804   6.478   4.152   4.797  0.8881 -0.5406 -0.6994
   16MOL   H57516805   6.724   4.217   4.776 -0.4456  0.5559 -0.5845
   16MOL   H57616806   6.859   4.104   5.065  0.2902  1.5828  0.7898
   16MOL   H57716807   7.007   3.905   5.055  0.8275 -1.0723  1.5087
   16MOL   H57816808   7.359   3.991   5.164  0.2559 -0.6693 -0.4325
   16MOL   H57916809   7.600   4.053   5.200 -0.2075 -0.6150 -0.2075
   16MOL   H58016810   7.871   3.780   5.045 -0.0119  0.2478 -0.5302
   16MOL   H58116811   8.011   3.882   5.033  0.9858 -2.1889  0.5166
   16MOL   H58216812   7.905   3.837   4.886 -0.1433 -1.5548  1.0350
   16MOL   H58316813   7.806   4.188   4.940  0.9003  0.0770  0.2791
   16MOL   H58416814   7.965   4.102   4.910 -0.1512 -1.0241 -1.2458
   16MOL   H58516815   7.840   4.058   4.827 -0.0619 -0.5343  0.1236
   16MOL   H58616816   7.859   3.812   5.256 -4.0481  0.1022 -1.4303
   16MOL   H58716817   7.934   3.874   5.478  3.5550 -1.0693 -1.9202
   16MOL   H58816818   7.922   4.293   5.364  0.7131 -1.0319  1.0469
   16MOL   H58916819   7.855   4.222   5.137 -0.7549 -2.1307 -1.8938
   16MOL   H59016820   7.677   3.845   4.824 -1.5173  0.1182 -0.4872
   16MOL   H59116821   7.430   3.806   4.806  1.0880 -2.3321  0.8645
   16MOL   H59216822   7.312   4.149   4.851 -0.4252  3.0508  0.3992
   16MOL   H59316823   7.174   4.325   4.849  1.3284 -2.2476 -1.4364
   16MOL   H59416824   6.704   4.449   5.141 -1.8621 -0.0222  1.5102
   16MOL   H59516825   6.468   4.365   5.164  2.2760  2.8872  0.5716
   16MOL   C59616826   8.092   4.186   5.568 -0.1539  0.1515  0.5278
   16MOL   C59716827   8.206   4.113   5.530  0.2433 -0.6596 -0.4277
   16MOL   C59816828   0.073   4.183   5.538 -0.2094 -0.0854 -0.7646
   16MOL   C59916829   0.081   4.313   5.592  0.0221 -0.6740 -0.0695
   16MOL   S60016830   0.242   4.395   5.581 -0.1487 -0.3746 -0.1413
   16MOL   O60116831   0.341   4.286   5.566  0.1567 -0.3657  0.2553
   16MOL   O60216832   0.254   4.493   5.696  0.3272  0.3761  0.6092
   16MOL   C60316833   0.247   4.497   5.435  0.5088 -0.7040  0.0662
   16MOL   C60416834   0.242   4.439   5.309 -0.5331 -0.1112 -0.0747
   16MOL   C60516835   0.248   4.515   5.193 -0.1300 -0.0389 -0.1580
   16MOL   C60616836   0.264   4.656   5.207 -0.4189  0.2710 -0.3261
   16MOL   O60716837   0.284   4.737   5.097  0.5793  0.1162 -0.7773
   16MOL   C60816838   0.181   4.747   5.009 -0.4724 -0.8910  0.1621
   16MOL   C60916839   0.062   4.801   5.045 -1.0843 -0.7326  0.3388
   16MOL   C61016840   8.229   4.839   4.940 -0.0403  0.6728  0.2805
   16MOL   C61116841   8.252   4.805   4.807 -0.6282 -0.6622  0.6948
   16MOL   C61216842   8.147   4.845   4.703 -0.2021 -0.0301  0.3770
   16MOL   C61316843   8.057   4.725   4.684 -0.2394  0.4712  0.5201
   16MOL   C61416844   8.061   4.962   4.742 -0.4166  0.7691 -0.7294
   16MOL   C61516845   8.216   4.886   4.566  0.6312 -0.6988  0.5513
   16MOL   C61616846   0.025   5.009   4.547  0.1811 -0.4480 -0.1883
   16MOL   C61716847   0.090   5.047   4.427 -0.5300  0.4999 -0.1543
   16MOL   C61816848   0.105   4.952   4.320 -0.1305  0.6577 -0.2279
   16MOL   O61916849   0.177   4.983   4.208 -0.3846 -0.3387 -0.1710
   16MOL   C62016850   0.062   4.821   4.348 -0.2027 -0.4936 -0.2459
   16MOL   C62116851   8.237   4.791   4.462 -0.3191  0.1584 -0.5088
   16MOL   C62216852   0.112   4.734   4.774  0.3603  0.2390  0.3800
   16MOL   C62316853   0.205   4.706   4.876  0.1371  0.8919 -0.0456
   16MOL   C62416854   0.265   4.719   5.335  0.3373 -0.4067  0.8540
   16MOL   C62516855   0.253   4.637   5.448  0.3380 -0.0266  0.5836
   16MOL   C62616856   8.222   4.375   5.645  0.7277 -0.7337 -0.0688
   16MOL   C62716857   8.100   4.312   5.625  0.7820  0.3228 -0.2748
   16MOL   H62816858   8.197   4.011   5.494 -0.8615 -0.7705  0.1489
   16MOL   H62916859   0.162   4.128   5.514 -0.8431 -0.5538 -2.0746
   16MOL   H63016860   0.226   4.333   5.297 -2.0811 -0.0320  1.2633
   16MOL   H63116861   0.233   4.465   5.098  0.2707 -0.2139 -0.1291
   16MOL   H63216862   0.052   4.826   5.149  2.0559  2.0352  0.0849
   16MOL   H63316863   8.136   4.884   4.971  0.2218  2.0462 -0.8963
   16MOL   H63416864   8.114   4.635   4.659  1.6107  1.2668  1.7273
   16MOL   H63516865   7.989   4.734   4.600 -2.8599 -2.8933  2.1320
   16MOL   H63616866   7.991   4.706   4.769 -0.1101  0.7578  0.6845
   16MOL   H63716867   7.991   4.985   4.661  0.4939  1.8056 -1.2403
   16MOL   H63816868   7.997   4.945   4.828 -0.1594  0.4745 -0.5949
   16MOL   H63916869   8.120   5.048   4.774  0.9543  0.2452 -1.7624
   16MOL   H64016870   0.019   5.089   4.619 -1.5090  0.5299 -1.3542
   16MOL   H64116871   0.140   5.142   4.431 -0.0100  0.2569 -0.7936
   16MOL   H64216872   0.070   4.744   4.272 -0.9930  0.3077 -1.1552
   16MOL   H64316873   8.200   4.689   4.460  0.0973 -0.0002 -3.9129
   16MOL   H64416874   0.136   4.700   4.674  2.6797  0.9105  0.6801
   16MOL   H64516875   0.296   4.652   4.853 -0.7968  0.3402 -2.6385
   16MOL   H64616876   0.278   4.825   5.346  0.7524  0.0148 -2.9331
   16MOL   H64716877   0.266   4.677   5.548 -0.7525 -1.0040  1.1325
   16MOL   H64816878   8.227   4.475   5.686 -0.4844 -0.4993 -0.4591
   16MOL   H64916879   8.011   4.365   5.656  0.5111 -0.7685  0.8634
   16MOL   C65016880   0.153   4.921   4.090 -0.0158  0.6882 -0.1192
   16MOL   C65116881   0.246   4.833   4.041 -0.1812  0.8351  0.4304
   16MOL   C65216882   0.228   4.759   3.926  0.1245 -0.4610  0.1447
   16MOL   C65316883   0.111   4.790   3.850 -0.2882 -0.5574  0.0093
   16MOL   S65416884   0.094   4.715   3.691  0.0337  0.0362  0.3149
   16MOL   O65516885   0.229   4.684   3.641  0.1693  0.1076 -0.0796
   16MOL   O65616886   0.008   4.796   3.608 -0.5576  0.0970  0.1265
   16MOL   C65716887   0.005   4.558   3.720 -0.3381  0.1338  0.1006
   16MOL   C65816888   8.189   4.540   3.841  0.5276  0.3561  0.5869
   16MOL   C65916889   8.133   4.413   3.862  0.6648  0.2231  0.0510
   16MOL   C66016890   8.139   4.302   3.768  0.2933  0.5135  0.1148
   16MOL   O66116891   8.089   4.180   3.804  0.5737 -0.1900 -0.4185
   16MOL   C66216892   8.158   4.090   3.882  0.6910  0.4635 -0.7750
   16MOL   C66316893   0.045   4.071   3.863 -0.9206 -0.4385 -0.3708
   16MOL   C66416894   0.107   3.967   3.940 -0.0367  0.0438  0.3113
   16MOL   C66516895   0.038   3.886   4.037 -0.0826 -1.0820  0.0600
   16MOL   C66616896   0.112   3.783   4.113  0.5061  0.2006 -0.5047
   16MOL   C66716897   0.025   3.714   4.224  0.5208  1.0363 -0.1647
   16MOL   C66816898   0.148   3.674   4.007  0.6216 -0.4027  0.6257
   16MOL   C66916899   0.231   3.848   4.188 -0.0381 -0.8179 -0.1021
   16MOL   C67016900   0.211   3.966   4.259  0.4545  0.5520 -0.0675
   16MOL   C67116901   0.313   4.023   4.335 -0.3592 -0.3906  0.5601
   16MOL   C67216902   0.439   3.956   4.345  0.0321  0.2525 -0.5466
   16MOL   O67316903   0.532   4.011   4.429  0.2055 -0.4392  0.3168
   16MOL   C67416904   0.457   3.828   4.289 -0.0298  0.0203 -0.0387
   16MOL   C67516905   0.356   3.778   4.206 -0.1321 -0.3142  0.1205
   16MOL   C67616906   8.152   3.915   4.061  0.0776  0.0119 -1.0019
   16MOL   C67716907   8.093   4.015   3.979  1.1618  0.2366 -0.0528
   16MOL   C67816908   8.204   4.329   3.645 -0.0384  0.7084 -0.2240
   16MOL   C67916909   0.007   4.456   3.622  0.4733 -0.0419 -0.2906
   16MOL   C68016910   0.018   4.879   3.893  1.3020  0.0807  0.8475
   16MOL   C68116911   0.040   4.946   4.016  0.0973  0.4019  0.0354
   16MOL   H68216912   0.335   4.817   4.101  0.3292  1.2053 -0.2159
   16MOL   H68316913   0.314   4.708   3.885 -0.9778 -0.1871 -2.5695
   16MOL   H68416914   8.166   4.617   3.914 -0.7589  0.5802 -0.0430
   16MOL   H68516915   8.066   4.400   3.946 -0.5897  0.0386 -0.9629
   16MOL   H68616916   0.103   4.139   3.802  0.8681 -1.4485  0.1673
   16MOL   H68716917   0.211   3.950   3.919 -0.3942 -1.3211 -0.3903
   16MOL   H68816918   0.089   3.652   4.287 -0.8627 -0.7518 -0.4757
   16MOL   H68916919   8.202   3.652   4.176 -0.9649  1.7121  1.2654
   16MOL   H69016920   8.226   3.786   4.287  0.5293  1.5297 -0.7211
   16MOL   H69116921   0.208   3.729   3.934  0.5672  0.9568  1.5776
   16MOL   H69216922   0.206   3.593   4.050  0.5046  0.0029  1.5573
   16MOL   H69316923   0.060   3.637   3.954 -0.3027  2.2786  0.1849
   16MOL   H69416924   0.115   4.015   4.260 -0.1202 -0.4576 -1.9443
   16MOL   H69516925   0.295   4.117   4.386 -0.3154  0.1431 -0.3864
   16MOL   H69616926   0.542   3.764   4.308 -1.2018 -1.6652 -0.2855
   16MOL   H69716927   0.377   3.682   4.161 -0.9246 -0.1322 -0.6349
   16MOL   H69816928   8.088   3.867   4.134  0.3024 -1.0533 -1.5113
   16MOL   H69916929   7.992   4.048   3.997  1.4577  0.8744  0.4676
   16MOL   H70016930   8.206   4.255   3.566 -4.4820 -1.0140  1.1206
   16MOL   H70116931   0.069   4.455   3.534 -0.4510  0.7843 -0.9504
   16MOL   H70216932   8.182   4.898   3.835  2.0556 -0.7413 -0.5788
   16MOL   H70316933   8.218   5.013   4.055  1.0279  0.8279  1.1372
   16MOL   C70416934   0.616   3.942   4.508  0.1257  0.9241  0.6831
   16MOL   C70516935   0.578   3.927   4.643  1.0137 -0.1596 -0.4084
   16MOL   C70616936   0.655   3.850   4.735 -0.2287 -0.2997  0.2732
   16MOL   C70716937   0.779   3.797   4.688 -0.3269  0.1063 -0.0289
   16MOL   S70816938   0.888   3.729   4.817 -0.0019 -0.3813  0.0390
   16MOL   O70916939   0.881   3.584   4.793  0.0765 -0.6337 -0.5822
   16MOL   O71016940   0.854   3.786   4.951 -0.1781  0.6957 -0.4228
   16MOL   C71116941   1.053   3.792   4.773  0.1753 -0.8352 -0.7719
   16MOL   C71216942   1.062   3.932   4.774 -1.1774  0.4094  0.1573
   16MOL   C71316943   1.193   3.986   4.751 -0.2193 -0.0353  0.1084
   16MOL   C71416944   1.305   3.906   4.738  0.0214 -0.0361  0.2318
   16MOL   O71516945   1.434   3.962   4.728 -0.0976  0.2419 -0.2099
   16MOL   C71616946   1.516   3.939   4.834 -0.1531 -0.2817 -0.1545
   16MOL   C71716947   1.517   4.032   4.948 -0.1924 -0.4599  0.2112
   16MOL   C71816948   1.607   3.999   5.052  0.6417  0.4608  0.6807
   16MOL   C71916949   1.682   3.879   5.054 -0.1656  0.3449  0.6981
   16MOL   C72016950   1.779   3.849   5.178 -0.0450  1.0044 -0.7349
   16MOL   C72116951   1.705   3.884   5.313 -0.0770  0.2590 -0.5866
   16MOL   C72216952   1.824   3.699   5.172 -1.0156  0.2223  0.2222
   16MOL   C72316953   1.910   3.925   5.170  0.8462 -0.3154  0.0088
   16MOL   C72416954   1.991   3.950   5.283 -1.0992  0.0510 -0.5762
   16MOL   C72516955   2.115   4.026   5.272  0.2387  0.0854  0.3111
   16MOL   C72616956   2.163   4.069   5.145  0.2255  0.2328 -0.0806
   16MOL   O72716957   2.289   4.128   5.130 -0.2550  0.4681 -0.0681
   16MOL   C72816958   2.082   4.038   5.032 -0.4177 -1.0726 -0.1249
   16MOL   C72916959   1.957   3.964   5.038  0.5096  0.0960 -0.4233
   16MOL   C73016960   1.682   3.799   4.938 -0.6191 -0.1501 -0.5399
   16MOL   C73116961   1.600   3.828   4.833  0.2343  0.4724 -0.5233
   16MOL   C73216962   1.289   3.766   4.733 -0.0407  0.2962 -0.4063
   16MOL   C73316963   1.165   3.707   4.752  0.2358 -0.2307 -0.8216
   16MOL   C73416964   0.827   3.817   4.558  0.0793 -0.2844 -0.8249
   16MOL   C73516965   0.745   3.893   4.468  0.0927  0.5826 -0.2605
   16MOL   H73616966   0.481   3.963   4.674  0.7339 -0.6088 -0.7612
   16MOL   H73716967   0.633   3.818   4.836  1.7824 -0.9559  0.5193
   16MOL   H73816968   0.975   3.994   4.787 -0.2735  1.4028  1.8315
   16MOL   H73916969   1.211   4.092   4.761  2.1995 -0.4627  0.6346
   16MOL   H74016970   1.454   4.120   4.953 -1.3752 -1.3150  0.4653
   16MOL   H74116971   1.630   4.065   5.134  1.6540 -2.2175  2.6232
   16MOL   H74216972   1.767   3.862   5.399 -1.6601  0.2406  0.5698
   16MOL   H74316973   1.613   3.825   5.321  1.5879 -1.9526  3.1312
   16MOL   H74416974   1.676   3.989   5.324  0.1759  0.4382 -1.5553
   16MOL   H74516975   1.877   3.659   5.259  0.7839 -0.1899 -1.0260
   16MOL   H74616976   1.735   3.637   5.168  0.2280 -1.7184  1.7634
   16MOL   H74716977   1.894   3.672   5.093 -0.7556  1.8655 -0.1360
   16MOL   H74816978   1.969   3.920   5.384 -0.8981 -1.4919 -0.9772
   16MOL   H74916979   2.167   4.051   5.363 -1.2859  1.3932  0.8304
   16MOL   H75016980   2.118   4.056   4.932 -1.8640  0.7079 -0.3665
   16MOL   H75116981   1.899   3.957   4.948  1.9219  2.1668 -1.5428
   16MOL   H75216982   1.736   3.705   4.940 -2.1258 -0.9790  2.4224
   16MOL   H75316983   1.599   3.763   4.746 -1.8090  1.0252 -0.9361
   16MOL   H75416984   1.375   3.700   4.738 -0.5198 -0.3886 -1.1583
   16MOL   H75516985   1.147   3.601   4.759  0.6575 -0.3076 -0.8797
   16MOL   H75616986   0.920   3.777   4.521  1.5838  0.8471  1.5948
   16MOL   H75716987   0.780   3.909   4.367 -0.9136 -2.1360 -1.1062
   16MOL   C75816988   2.393   4.039   5.157 -0.7720  0.0272  0.0411
   16MOL   C75916989   2.474   3.980   5.051  0.8340  0.2693 -0.4463
   16MOL   C76016990   2.590   3.911   5.080 -0.4058  0.0574  0.0926
   16MOL   C76116991   2.633   3.897   5.210  0.1128 -0.2509 -0.5007
   16MOL   S76216992   2.787   3.816   5.257 -0.0213  0.2385 -0.3457
   16MOL   O76316993   2.764   3.717   5.361  0.2429  1.1242 -0.4495
   16MOL   O76416994   2.891   3.921   5.273  0.3150  0.3948  0.3048
   16MOL   C76516995   2.840   3.726   5.109 -0.1531  0.7225 -0.8762
   16MOL   C76616996   2.974   3.731   5.061  0.2841 -0.8393 -0.2612
   16MOL   C76716997   3.017   3.650   4.954  0.4217  0.0961  0.5967
   16MOL   C76816998   2.923   3.563   4.892 -0.2229 -0.6092  0.6373
   16MOL   O76916999   2.969   3.475   4.795  0.7313 -0.5327  0.6767
   16MOL   C77017000   3.024   3.527   4.680  0.1015  0.5211  0.4998
   16MOL   C77117001   3.127   3.454   4.613 -0.9041 -0.7368 -0.1650
   16MOL   C77217002   3.191   3.503   4.492  0.6846 -0.3658 -0.3363
   16MOL   C77317003   3.140   3.619   4.433 -0.4294  0.1664 -0.1885
   16MOL   C77417004   3.197   3.653   4.292 -0.0728  0.1718  0.4734
   16MOL   C77517005   3.342   3.608   4.266 -0.5905 -0.5105 -1.0549
   16MOL   C77617006   3.090   3.594   4.195  0.0989  0.3403  0.1314
   16MOL   C77717007   3.208   3.802   4.269  0.4726 -0.5945 -0.0793
   16MOL   C77817008   3.201   3.863   4.139 -0.8247  0.3054  0.3868
   16MOL   C77917009   3.191   4.005   4.124 -0.8222  0.1313 -0.1034
   16MOL   C78017010   3.203   4.086   4.238 -0.3857  0.2039  0.5202
   16MOL   O78117011   3.205   4.220   4.216  0.4335 -0.3686  0.1178
   16MOL   C78217012   3.223   4.029   4.369 -0.7005 -0.7652  0.5591
   16MOL   C78317013   3.230   3.891   4.381  0.4922 -0.3157  0.5132
   16MOL   C78417014   3.033   3.686   4.498  0.1583  0.1748 -0.0813
   16MOL   C78517015   2.973   3.644   4.614 -0.2743  0.9360 -0.3846
   16MOL   C78617016   2.792   3.559   4.935  0.6642 -0.1337  0.0244
   16MOL   C78717017   2.748   3.639   5.047 -0.2824 -0.5038 -0.1500
   16MOL   C78817018   2.558   3.948   5.314  0.0911  0.7103 -0.3104
   16MOL   C78917019   2.442   4.020   5.289  0.4161  0.6703  0.5517
   16MOL   H79017020   2.433   3.979   4.951 -0.0137 -1.2722 -0.1144
   16MOL   H79117021   2.663   3.885   5.005 -0.8938 -2.8874  0.5979
   16MOL   H79217022   3.041   3.799   5.112  2.1216 -2.7040 -0.1298
   16MOL   H79317023   3.121   3.663   4.927 -0.1091 -0.2068 -1.7046
   16MOL   H79417024   3.148   3.355   4.651 -0.5800  0.3716  2.6554
   16MOL   H79517025   3.265   3.443   4.441  0.9274  1.7359 -2.5425
   16MOL   H79617026   3.335   3.499   4.266 -1.2972 -0.4702  0.0369
   16MOL   H79717027   3.421   3.641   4.333 -0.8810 -1.1480 -0.3862
   16MOL   H79817028   3.367   3.620   4.160  1.0743 -2.9555 -0.9973
   16MOL   H79917029   3.122   3.603   4.091 -1.2098 -0.3619 -0.3456
   16MOL   H80017030   3.069   3.487   4.204  1.5230 -0.0153 -0.5426
   16MOL   H80117031   2.995   3.646   4.203 -1.1944 -2.1086  1.1722
   16MOL   H80217032   3.203   3.797   4.054  1.0049 -2.4063  2.4393
   16MOL   H80317033   3.188   4.055   4.028  1.8828  1.5190  0.4808
   16MOL   H80417034   3.218   4.087   4.460 -2.2276 -0.1583  0.1097
   16MOL   H80517035   3.247   3.857   4.481 -1.0412  0.2096  0.9603
   16MOL   H80617036   3.002   3.780   4.454 -2.0208 -0.0875  0.8724
   16MOL   H80717037   2.885   3.695   4.649  0.2471  1.1871  0.5898
   16MOL   H80817038   2.735   3.486   4.879  1.1830 -0.9019  0.4712
   16MOL   H80917039   2.646   3.636   5.084 -0.4451  0.3581 -0.5089
   16MOL   H81017040   2.596   3.927   5.413 -0.1184 -2.9725 -0.9069
   16MOL   H81117041   2.399   4.069   5.375 -1.3757  1.7349 -0.9242
   16MOL   C81217042   3.079   4.277   4.229  0.5069 -1.3330 -0.3392
   16MOL   C81317043   3.052   4.359   4.339 -0.0544  0.3264 -0.1912
   16MOL   C81417044   2.916   4.400   4.364  0.5849  0.6449  0.2550
   16MOL   C81517045   2.818   4.381   4.261 -0.0901  0.1250 -0.9819
   16MOL   S81617046   2.644   4.439   4.286  0.1188 -0.1848 -0.1971
   16MOL   O81717047   2.611   4.417   4.427 -0.3282  0.3099 -0.5053
   16MOL   O81817048   2.555   4.389   4.181 -0.1821 -0.2726  0.4867
   16MOL   C81917049   2.672   4.614   4.256 -0.4932  0.1985 -0.0634
   16MOL   C82017050   2.629   4.705   4.358 -0.3499  0.2575 -0.0761
   16MOL   C82117051   2.628   4.843   4.324  0.0056  0.1259 -0.6798
   16MOL   C82217052   2.680   4.885   4.194  0.1693 -0.3744  0.2747
   16MOL   O82317053   2.693   5.020   4.162 -0.2330  0.9287  0.5701
   16MOL   C82417054   2.628   5.111   4.235  0.0206  0.0994  1.1300
   16MOL   C82517055   2.663   5.136   4.365 -0.2147  0.0828  0.3565
   16MOL   C82617056   2.585   5.229   4.441 -0.1896 -0.3903 -0.0747
   16MOL   C82717057   2.471   5.286   4.386  0.3275 -0.6039 -0.2753
   16MOL   C82817058   2.390   5.381   4.479  0.4397 -0.4763  0.3404
   16MOL   C82917059   2.493   5.493   4.516  0.1450 -0.1764  0.3347
   16MOL   C83017060   2.277   5.451   4.400  0.1308  0.9815  0.6810
   16MOL   C83117061   2.334   5.308   4.612 -0.3560 -0.0840  0.5426
   16MOL   C83217062   2.384   5.331   4.743 -0.2016  0.0562  0.4408
   16MOL   C83317063   2.350   5.254   4.853  0.0339 -0.2608  0.6806
   16MOL   C83417064   2.245   5.165   4.835 -0.0697  0.0477 -0.0120
   16MOL   O83517065   2.188   5.097   4.944 -0.4521 -0.2533 -0.1753
   16MOL   C83617066   2.188   5.133   4.710 -0.3302  0.0824  0.2762
   16MOL   C83717067   2.243   5.201   4.597 -0.3911 -0.3881 -0.0997
   16MOL   C83817068   2.430   5.258   4.248 -0.4524  0.4622  0.5495
   16MOL   C83917069   2.521   5.178   4.170 -0.0122  0.5910  0.4237
   16MOL   C84017070   2.727   4.792   4.100 -0.1486 -0.1145  0.3208
   16MOL   C84117071   2.720   4.655   4.130 -0.6174  0.0251 -0.6724
   16MOL   C84217072   2.848   4.321   4.144 -0.6744 -0.0979  0.6163
   16MOL   C84317073   2.975   4.259   4.136  0.0059  0.2551  0.2927
   16MOL   H84417074   3.126   4.383   4.415  0.0928  0.9180 -0.5169
   16MOL   H84517075   2.889   4.460   4.450  0.6609  1.7415 -0.4677
   16MOL   H84617076   2.595   4.673   4.455  0.8759  1.4309  0.7570
   16MOL   H84717077   2.588   4.908   4.400 -0.2538 -1.2347  0.3708
   16MOL   H84817078   2.752   5.099   4.413 -0.8449 -0.7237  0.9197
   16MOL   H84917079   2.610   5.247   4.545 -2.0806  2.4678 -0.0599
   16MOL   H85017080   2.585   5.458   4.564  0.1963 -2.1779 -1.1378
   16MOL   H85117081   2.449   5.565   4.585  1.4873 -0.2994  1.3400
   16MOL   H85217082   2.531   5.546   4.429 -0.4402  0.4852  0.4865
   16MOL   H85317083   2.219   5.526   4.454  1.2761  2.2980  0.0894
   16MOL   H85417084   2.321   5.497   4.312  1.6840  0.6540  1.2684
   16MOL   H85517085   2.207   5.378   4.359  0.0710  1.5055 -0.1398
   16MOL   H85617086   2.466   5.400   4.755 -1.0930  1.2861 -0.3257
   16MOL   H85717087   2.398   5.282   4.945  1.5632  1.5443 -0.6133
   16MOL   H85817088   2.108   5.060   4.703 -0.7445  0.4565  1.0438
   16MOL   H85917089   2.218   5.174   4.495 -0.1592 -1.2804  0.0782
   16MOL   H86017090   2.340   5.295   4.201 -0.1218 -1.3205 -1.5334
   16MOL   H86117091   2.507   5.162   4.064  0.8195 -0.0427  0.3996
   16MOL   H86217092   2.758   4.834   4.005  2.7169  2.3847  2.3000
   16MOL   H86317093   2.757   4.580   4.062 -1.6231 -0.7837 -0.3435
   16MOL   H86417094   2.771   4.302   4.070 -2.4584  1.2740  2.0809
   16MOL   H86517095   2.986   4.208   4.042 -0.4854  2.1095 -0.7949
   16MOL   C86617096   2.272   5.059   5.047 -0.1673  0.8274  0.5758
   16MOL   C86717097   2.254   5.114   5.171  0.1510  0.2106 -0.4324
   16MOL   C86817098   2.341   5.087   5.279  0.2531  0.2981 -0.6601
   16MOL   C86917099   2.458   5.013   5.252 -0.4034 -0.1860 -0.0703
   16MOL   S87017100   2.589   4.981   5.388 -0.0289 -0.1545 -0.5017
   16MOL   O87117101   2.540   4.863   5.462 -0.8693  0.0977 -0.2185
   16MOL   O87217102   2.595   5.112   5.457 -0.6054 -1.0337  0.2533
   16MOL   C87317103   2.759   4.944   5.323  0.5486  0.0951 -0.1803
   16MOL   C87417104   2.785   4.809   5.289 -0.5817 -0.5109  0.2513
   16MOL   C87517105   2.922   4.775   5.270  0.3315  0.0784 -0.8544
   16MOL   C87617106   3.023   4.871   5.289  0.5778  0.5174  0.0938
   16MOL   O87717107   3.156   4.842   5.284  0.2677 -0.2511 -0.0260
   16MOL   C87817108   3.216   4.795   5.401 -0.6697  0.6545 -0.2504
   16MOL   C87917109   3.297   4.879   5.482 -0.5782  0.4426  0.1041
   16MOL   C88017110   3.366   4.831   5.595  0.6498  0.5127 -0.4562
   16MOL   C88117111   3.356   4.694   5.634 -0.7743 -0.6954 -0.7293
   16MOL   C88217112   3.437   4.622   5.745 -0.6959 -0.6226 -0.5979
   16MOL   C88317113   3.561   4.708   5.774 -0.2191 -0.0799 -0.3622
   16MOL   C88417114   3.355   4.627   5.873  0.4807 -0.8508  1.4034
   16MOL   C88517115   3.492   4.483   5.703  0.0194  0.1888 -0.0923
   16MOL   C88617116   3.441   4.369   5.770  0.2187  0.4485 -0.8457
   16MOL   C88717117   3.491   4.241   5.740 -0.1474 -0.5911 -0.0813
   16MOL   C88817118   3.606   4.229   5.651  0.8811 -0.4151 -0.7532
   16MOL   O88917119   3.655   4.107   5.614 -0.1433 -0.2450  0.2817
   16MOL   C89017120   3.640   4.339   5.573 -0.7907  0.1207  0.5343
   16MOL   C89117121   3.589   4.468   5.602  0.4415 -0.3303 -0.1927
   16MOL   C89217122   3.265   4.614   5.564 -0.6777  0.0305  0.2614
   16MOL   C89317123   3.192   4.667   5.454 -0.3940  0.2798 -0.0842
   16MOL   C89417124   2.994   5.008   5.317  0.2589 -0.2544 -0.1266
   16MOL   C89517125   2.857   5.045   5.333 -0.1344 -0.1419  0.0608
   16MOL   C89617126   2.481   4.956   5.124  0.3405 -0.4934 -0.3506
   16MOL   C89717127   2.380   4.971   5.024  0.7092  0.5850 -0.3335
   16MOL   H89817128   2.165   5.169   5.193  0.9894  2.0287 -1.5036
   16MOL   H89917129   2.330   5.139   5.373  1.2074 -1.3497  0.3902
   16MOL   H90017130   2.713   4.728   5.295 -1.4335  0.2643  0.6868
   16MOL   H90117131   2.943   4.670   5.260 -1.7539 -0.5322  0.8789
   16MOL   H90217132   3.303   4.986   5.471  1.7646  0.5501  1.8891
   16MOL   H90317133   3.422   4.900   5.656  0.0008 -0.7367  1.6138
   16MOL   H90417134   3.626   4.658   5.845 -2.4895 -1.5563  0.7342
   16MOL   H90517135   3.543   4.812   5.803 -1.0286  0.1597 -1.6628
   16MOL   H90617136   3.622   4.725   5.686  0.6941 -2.7271 -0.2716
   16MOL   H90717137   3.256   4.582   5.862  0.2016  0.2356 -0.7942
   16MOL   H90817138   3.412   4.602   5.962  0.1562 -1.3817  1.4638
   16MOL   H90917139   3.325   4.730   5.893  0.1470 -0.8348  0.8362
   16MOL   H91017140   3.368   4.370   5.850 -0.7821 -2.8868 -1.6354
   16MOL   H91117141   3.450   4.151   5.784 -2.0667 -0.4823 -1.5863
   16MOL   H91217142   3.716   4.333   5.496 -0.9092 -1.4740  0.5314
   16MOL   H91317143   3.613   4.557   5.546  0.6396  0.2886  0.8620
   16MOL   H91417144   3.246   4.514   5.598 -0.0187  0.2976  1.4568
   16MOL   H91517145   3.117   4.612   5.400 -0.5481  1.7853 -1.4524
   16MOL   H91617146   3.079   5.071   5.335 -0.5477  0.7966  0.0728
   16MOL   H91717147   2.824   5.145   5.357 -1.9120 -0.6888 -0.0661
   16MOL   H91817148   2.567   4.897   5.095 -0.1450  0.2138 -3.3850
   16MOL   H91917149   2.379   4.917   4.931  1.0508 -0.2959  0.1719
   16MOL   C92017150   3.692   4.019   5.713  0.3454 -0.4447  0.1179
   16MOL   C92117151   3.750   4.068   5.835 -0.0814  0.0547  0.3563
   16MOL   C92217152   3.787   3.974   5.935  0.1168  0.0437 -0.3525
   16MOL   C92317153   3.766   3.840   5.913 -0.4316  0.6131  0.6644
   16MOL   S92417154   3.826   3.717   6.035 -0.1874 -0.1085  0.1708
   16MOL   O92517155   3.858   3.791   6.161 -0.1973  0.5729 -0.2232
   16MOL   O92617156   3.923   3.630   5.970  0.5537  0.9994 -0.0663
   16MOL   C92717157   3.687   3.609   6.079  0.2140  0.3451  0.3857
   16MOL   C92817158   3.709   3.472   6.105 -0.7741  0.6665 -0.6860
   16MOL   C92917159   3.603   3.396   6.153 -0.6110 -0.2410  0.0098
   16MOL   C93017160   3.473   3.451   6.181 -0.3237 -0.0113 -0.4829
   16MOL   O93117161   3.371   3.368   6.216 -0.1155  0.2761  0.5020
   16MOL   C93217162   3.262   3.340   6.133 -0.0063 -0.5019 -0.6029
   16MOL   C93317163   3.151   3.298   6.204 -0.5598 -0.7046 -0.0463
   16MOL   C93417164   3.030   3.270   6.139  0.7196  0.2701 -0.4001
   16MOL   C93517165   3.024   3.275   5.996  0.3491  0.8914  0.4582
   16MOL   C93617166   2.888   3.279   5.917 -0.6539  0.3080  0.2337
   16MOL   C93717167   2.887   3.175   5.807  0.3139  0.2641 -0.0916
   16MOL   C93817168   2.769   3.242   6.013  0.4103  1.1568 -0.0158
   16MOL   C93917169   2.867   3.422   5.863  0.2703  0.2205 -0.6798
   16MOL   C94017170   2.869   3.534   5.951  0.4569 -0.2257 -0.0347
   16MOL   C94117171   2.829   3.660   5.908 -0.7675  0.0831 -0.9783
   16MOL   C94217172   2.788   3.681   5.780  0.1073 -0.2197 -0.2278
   16MOL   O94317173   2.730   3.803   5.748 -0.1474 -0.0747 -0.1161
   16MOL   C94417174   2.786   3.571   5.688 -0.6101 -0.0782 -0.1731
   16MOL   C94517175   2.819   3.442   5.730  0.5617  0.0384  0.1093
   16MOL   C94617176   3.148   3.294   5.931  0.4993 -0.0330 -0.2110
   16MOL   C94717177   3.270   3.319   6.001  0.5230  0.0965  0.2682
   16MOL   C94817178   3.457   3.584   6.160 -0.1929 -0.2295  0.2241
   16MOL   C94917179   3.566   3.660   6.112  0.2336  0.2757  0.0846
   16MOL   C95017180   3.690   3.794   5.801 -0.2295  0.3164 -0.1981
   16MOL   C95117181   3.660   3.883   5.695  0.1232  0.0715  0.0318
   16MOL   H95217182   3.781   4.171   5.843  0.2672  0.0236 -0.5143
   16MOL   H95317183   3.850   3.996   6.020 -1.4729 -1.4535  1.2790
   16MOL   H95417184   3.805   3.428   6.087 -1.1422 -0.1185 -0.7489
   16MOL   H95517185   3.625   3.292   6.168 -0.5503 -0.4121 -1.2170
   16MOL   H95617186   3.168   3.291   6.310  1.6576  1.3133 -0.2420
   16MOL   H95717187   2.943   3.240   6.194  1.1159 -0.4190 -0.1404
   16MOL   H95817188   2.898   3.078   5.855  2.0974  1.1533  1.3522
   16MOL   H95917189   2.968   3.190   5.735 -0.1004 -0.6166 -0.7555
   16MOL   H96017190   2.793   3.168   5.752  2.0028  0.1301 -3.1250
   16MOL   H96117191   2.678   3.236   5.954  0.2005 -3.1689  0.6446
   16MOL   H96217192   2.773   3.141   6.052  0.7297  0.3078 -2.1594
   16MOL   H96317193   2.738   3.316   6.087 -2.6476 -1.0598  1.0162
   16MOL   H96417194   2.901   3.517   6.053 -0.8538  1.7896  0.7527
   16MOL   H96517195   2.823   3.738   5.983  0.1865 -0.0501 -0.7562
   16MOL   H96617196   2.737   3.588   5.593 -1.4412 -2.5816 -0.2338
   16MOL   H96717197   2.781   3.358   5.675  2.2922 -0.5196 -0.2554
   16MOL   H96817198   3.152   3.293   5.823 -0.7560  2.5979 -0.3237
   16MOL   H96917199   3.360   3.337   5.943 -0.0207 -1.2964 -1.0679
   16MOL   H97017200   3.360   3.626   6.182  0.5488  2.2526 -1.0219
   16MOL   H97117201   3.556   3.766   6.091  0.1934  0.4030  0.7167
   16MOL   H97217202   3.669   3.690   5.781 -1.5499  0.3591  0.9153
   16MOL   H97317203   3.616   3.841   5.606  2.2060 -0.6599 -0.6799
   16MOL   C97417204   2.801   3.901   5.686 -0.7521 -0.1431  0.5637
   16MOL   C97517205   2.918   3.881   5.603 -0.5287 -0.3324 -0.0385
   16MOL   C97617206   2.987   3.993   5.553 -0.7479 -0.6381 -0.1024
   16MOL   C97717207   2.949   4.127   5.592  0.8263 -0.2724  0.1397
   16MOL   S97817208   3.037   4.274   5.560 -0.3434 -0.0905 -0.1938
   16MOL   O97917209   3.144   4.271   5.666  0.3856  0.2977  0.5791
   16MOL   O98017210   2.943   4.384   5.543 -0.2327 -0.3041 -0.7084
   16MOL   C98117211   3.121   4.255   5.402 -0.0781  0.4357 -0.3746
   16MOL   C98217212   3.261   4.264   5.397 -0.0796 -0.1976  0.6489
   16MOL   C98317213   3.338   4.238   5.277 -0.1315 -0.0239  0.1960
   16MOL   C98417214   3.272   4.208   5.158  0.2596 -1.1992 -0.0730
   16MOL   O98517215   3.338   4.205   5.032  0.4173  0.0170 -0.3122
   16MOL   C98617216   3.362   4.088   4.973  0.3798  0.7696  0.1847
   16MOL   C98717217   3.285   4.037   4.867  0.0448  1.2473 -0.0012
   16MOL   C98817218   3.331   3.918   4.802  0.2823  0.7603 -0.1064
   16MOL   C98917219   3.447   3.849   4.838  0.2356 -1.1218 -0.0221
   16MOL   C99017220   3.497   3.719   4.775 -0.8445 -0.6713 -0.4612
   16MOL   C99117221   3.459   3.603   4.873 -0.4098  0.4846 -0.0612
   16MOL   C99217222   3.422   3.690   4.640 -0.4387  0.0113 -0.3652
   16MOL   C99317223   3.647   3.724   4.738 -0.1702 -0.3683 -0.9106
   16MOL   C99417224   3.703   3.843   4.683 -0.6797 -0.2053 -0.1553
   16MOL   C99517225   3.841   3.853   4.667 -0.0683  0.5352 -0.2931
   16MOL   C99617226   3.928   3.751   4.704 -0.1114  0.3531 -0.3783
   16MOL   O99717227   4.064   3.761   4.694 -0.1961 -0.2921  0.5573
   16MOL   C99817228   3.870   3.627   4.741  0.5186  0.0734  0.7691
   16MOL   C99917229   3.736   3.621   4.772 -0.2827  0.4990  0.2636
   16MOL     C117230   3.528   3.903   4.943  0.9649 -0.4394 -0.1485
   16MOL     C217231   3.484   4.023   5.010  0.6612 -0.3605 -0.0020
   16MOL     C317232   3.128   4.203   5.161  0.0269 -0.0937  0.3878
   16MOL     C417233   3.051   4.231   5.277 -0.6783  0.0026  0.2923
   16MOL     C517234   2.830   4.143   5.668 -0.0050 -0.4032  0.4212
   16MOL     C617235   2.765   4.038   5.721  0.0589 -0.4149  0.3119
   16MOL     H717236   2.951   3.783   5.573  0.7591 -0.3244  1.2697
   16MOL     H817237   3.063   3.979   5.478  0.7210 -2.7047  1.6859
   16MOL     H917238   3.312   4.305   5.483  0.5232  0.9207 -0.2219
   16MOL    H1017239   3.443   4.263   5.278 -0.0114 -0.5272  0.6952
   16MOL    H1117240   3.196   4.092   4.845 -1.6537 -1.1753  0.6057
   16MOL    H1217241   3.273   3.880   4.719  0.0964 -1.4201  0.9739
   16MOL    H1317242   3.476   3.504   4.830 -1.0754  0.0865  0.5905
   16MOL    H1417243   3.354   3.596   4.899  0.0758  0.2662  1.9061
   16MOL    H1517244   3.499   3.613   4.974 -0.1734 -0.2331 -0.0837
   16MOL    H1617245   3.316   3.675   4.657 -0.6224  1.9504  0.3090
   16MOL    H1717246   3.435   3.777   4.575 -1.7209  0.4409 -0.0420
   16MOL    H1817247   3.471   3.603   4.595  0.1874 -0.0424  0.4118
   16MOL    H1917248   3.642   3.931   4.667  0.2972  0.5062  0.0084
   16MOL    H2017249   3.878   3.947   4.629  3.4641 -0.5376  0.2754
   16MOL    H2117250   3.936   3.544   4.757  2.5510  1.4555 -0.1895
   16MOL    H2217251   3.706   3.529   4.821  0.2838  0.0805 -0.1753
   16MOL    H2317252   3.616   3.852   4.981 -0.6737 -2.2767  1.2914
   16MOL    H2417253   3.533   4.070   5.094  2.8256  1.6859 -2.3565
   16MOL    H2517254   3.077   4.192   5.066 -1.6678  2.0604  0.9896
   16MOL    H2617255   2.943   4.225   5.266 -0.6216  0.8518 -0.7250
   16MOL    H2717256   2.803   4.243   5.701 -0.8418 -0.7918  0.9410
   16MOL    H2817257   2.693   4.065   5.796  2.8076  1.6423  2.3011
   16MOL    C2917258   4.108   3.805   4.572 -0.1323  0.6050 -1.0291
   16MOL    C3017259   4.127   3.720   4.464 -0.2147  0.1834  0.1467
   16MOL    C3117260   4.172   3.769   4.341 -0.0101 -0.2315  0.9250
   16MOL    C3217261   4.226   3.897   4.333 -0.1853  0.3472 -1.1740
   16MOL    S3317262   4.304   3.960   4.189  0.2532  0.0333 -0.3579
   16MOL    O3417263   4.230   4.074   4.134  0.2441 -0.0967  0.1874
   16MOL    O3517264   4.328   3.839   4.106  0.5800 -0.1846  0.3852
   16MOL    C3617265   4.472   4.022   4.225  0.4830 -0.2327 -0.3175
   16MOL    C3717266   4.570   3.928   4.253  0.5618  0.1826 -0.5718
   16MOL    C3817267   4.704   3.971   4.254  0.0110 -0.2947 -0.3733
   16MOL    C3917268   4.739   4.107   4.235  0.0539 -0.4024 -0.5781
   16MOL    O4017269   4.874   4.148   4.232 -0.2307  0.3374  0.5641
   16MOL    C4117270   4.978   4.055   4.235 -0.1985  0.0136 -0.4039
   16MOL    C4217271   5.025   4.004   4.359 -0.0016  0.1447 -0.3403
   16MOL    C4317272   5.122   3.899   4.363  0.0280  1.0670  0.0253
   16MOL    C4417273   5.179   3.845   4.241 -0.1494 -0.1948 -0.4712
   16MOL    C4517274   5.285   3.739   4.247 -0.0597 -0.5601 -0.0117
   16MOL    C4617275   5.323   3.688   4.390  0.3548  0.1686  0.2994
   16MOL    C4717276   5.216   3.623   4.170 -0.0072 -0.4648 -1.3406
   16MOL    C4817277   5.408   3.800   4.170  0.8605 -0.3255 -0.5590
   16MOL    C4917278   5.444   3.759   4.041  0.2184  0.3918 -0.5231
   16MOL    C5017279   5.522   3.833   3.957  0.3343 -0.4148 -0.2670
   16MOL    C5117280   5.575   3.956   3.998 -0.1818 -0.1452 -1.1964
   16MOL    O5217281   5.660   4.028   3.917  0.1141  0.5019  0.4295
   16MOL    C5317282   5.543   3.996   4.128 -0.4143  0.1386 -0.4944
   16MOL    C5417283   5.470   3.917   4.221  1.0936  0.4426  0.2699
   16MOL    C5517284   5.131   3.895   4.121  0.1936  0.5507  0.5019
   16MOL    C5617285   5.031   4.000   4.117  0.0062  0.0591 -0.1964
   16MOL    C5717286   4.635   4.198   4.202  0.8480  0.4876  0.4029
   16MOL    C5817287   4.496   4.158   4.196 -0.7887 -0.2357  1.0131
   16MOL    C5917288   4.214   3.987   4.443  0.2354  0.3257 -0.1057
   16MOL    C6017289   4.154   3.937   4.563  0.6895  0.4812 -0.1466
   16MOL    H6117290   4.097   3.616   4.467  1.0787 -0.1782  1.7147
   16MOL    H6217291   4.188   3.706   4.254 -0.9344 -0.1730  0.7008
   16MOL    H6317292   4.552   3.824   4.276 -0.1605  0.8182  1.8696
   16MOL    H6417293   4.779   3.894   4.264 -0.8707 -0.9697  1.2244
   16MOL    H6517294   4.992   4.055   4.448  0.3943 -0.1777 -0.0063
   16MOL    H6617295   5.154   3.862   4.459 -1.3674 -0.0544  0.0765
   16MOL    H6717296   5.232   3.648   4.434  0.3464 -0.5291 -0.3431
   16MOL    H6817297   5.364   3.762   4.459  2.0336  0.3516 -0.8536
   16MOL    H6917298   5.399   3.610   4.392  0.4434  0.2676  0.8015
   16MOL    H7017299   5.280   3.535   4.165  0.6974  0.0053 -0.7010
   16MOL    H7117300   5.122   3.603   4.222 -0.0198  1.0495 -0.7469
   16MOL    H7217301   5.191   3.643   4.066  0.5098  0.3165 -1.3157
   16MOL    H7317302   5.397   3.666   4.010 -1.1189  0.7717  0.3189
   16MOL    H7417303   5.540   3.798   3.856 -0.4461 -1.4182 -0.0622
   16MOL    H7517304   5.581   4.089   4.168 -0.6534 -0.4025  1.0533
   16MOL    H7617305   5.449   3.949   4.322  0.1582 -0.9371  0.5257
   16MOL    H7717306   5.167   3.858   4.027  0.5036  1.0213  0.4347
   16MOL    H7817307   5.003   4.041   4.021 -0.1755  1.4646  0.4461
   16MOL    H7917308   4.650   4.301   4.172  2.3347 -0.1196 -1.0063
   16MOL    H8017309   4.417   4.226   4.168  0.7565  0.8784 -0.7632
   16MOL    H8117310   4.260   4.084   4.429 -1.6988  0.8477 -3.7052
   16MOL    H8217311   4.162   4.002   4.649  3.1052  0.6251 -0.4245
   16MOL    H8317312   5.708   4.087   3.973 -1.6264  1.0314  1.3933
   17MOL     C117313   3.134   3.519   8.150 -0.1166 -0.3059 -0.2353
   17MOL     C217314   3.078   3.417   8.071 -0.0865 -0.6512 -0.2464
   17MOL     C317315   3.017   3.302   8.127  0.2615  0.1747  0.0443
   17MOL     C417316   3.036   3.278   0.008 -0.4557  0.2355  0.2301
   17MOL     S517317   2.967   3.142   0.084  0.2884 -0.6056 -0.0359
   17MOL     O617318   2.907   3.051   8.233  0.2213 -0.1591  0.5249
   17MOL     O717319   2.882   3.197   0.191  0.1640  0.4880  0.0532
   17MOL     C817320   3.088   3.049   0.165  0.6197 -0.0442 -0.0269
   17MOL     C917321   3.208   3.019   0.093 -0.0488  0.2797 -0.4739
   17MOL    C1017322   3.298   2.925   0.146 -0.2148  0.2327  0.1010
   17MOL    C1117323   3.265   2.858   0.264  0.0131  0.7678 -0.0259
   17MOL    O1217324   3.353   2.763   0.312  0.6561  0.3070  0.5268
   17MOL    C1317325   3.323   2.631   0.303  0.2809  0.9255  0.4726
   17MOL    C1417326   3.404   2.549   0.223  0.2252 -0.4659  0.0689
   17MOL    C1517327   3.383   2.405   0.220  0.0140 -0.3598  0.0790
   17MOL    C1617328   3.261   2.355   0.277  0.7303  0.7996 -0.3481
   17MOL    C1717329   3.232   2.198   0.273  0.0988  0.5622 -0.6358
   17MOL    C1817330   3.139   2.140   0.383 -0.6818 -0.0445 -0.5118
   17MOL    C1917331   3.148   2.178   0.149 -0.4431 -0.5094 -0.3831
   17MOL    C2017332   3.362   2.112   0.270 -0.7544 -0.1022 -0.1951
   17MOL    C2117333   3.443   2.096   0.388  0.5144  0.3347  0.1460
   17MOL    C2217334   3.553   2.002   0.387  0.4087 -0.1791  0.0673
   17MOL    C2317335   3.603   1.959   0.261 -0.1229  0.0195  0.0507
   17MOL    O2417336   3.710   1.872   0.265  0.4681  0.8409  0.4089
   17MOL    C2517337   3.534   1.992   0.142 -0.4171  0.5836 -0.2228
   17MOL    C2617338   3.410   2.065   0.147  0.5228  0.3053  0.0926
   17MOL    C2717339   3.167   2.447   0.332  0.1729 -0.4888 -0.2176
   17MOL    C2817340   3.209   2.576   0.363  0.6060 -0.0720 -0.4965
   17MOL    C2917341   3.147   2.891   0.344 -0.4418 -0.2054  0.3849
   17MOL    C3017342   3.055   2.983   0.281  0.1754  0.1354  0.6029
   17MOL    C3117343   3.106   3.368   0.090 -0.1390 -0.0966 -0.3637
   17MOL    C3217344   3.146   3.490   0.031 -0.0541  0.1730 -0.2137
   17MOL    H3317345   3.075   3.428   7.964 -0.7760  1.1127 -0.0531
   17MOL    H3417346   2.958   3.235   8.067  0.9986  1.5860 -2.3157
   17MOL    H3517347   3.236   3.071   0.003 -1.5138  0.4237 -0.8612
   17MOL    H3617348   3.387   2.902   0.089 -1.0229  0.3114 -1.1944
   17MOL    H3717349   3.489   2.593   0.173 -0.0682 -1.1150 -1.0056
   17MOL    H3817350   3.459   2.342   0.177 -2.1243 -2.2308 -1.0492
   17MOL    H3917351   3.195   2.119   0.474  0.5328  0.4257 -1.1404
   17MOL    H4017352   3.097   2.045   0.352 -0.1846  0.0237 -1.4359
   17MOL    H4117353   3.056   2.211   0.389 -0.5097  0.1853 -0.8144
   17MOL    H4217354   3.151   2.072   0.122 -2.0022 -0.8133  0.5978
   17MOL    H4317355   3.049   2.222   0.151  0.1423  1.1052 -3.7023
   17MOL    H4417356   3.194   2.227   0.063  1.2700  0.2184  0.9101
   17MOL    H4517357   3.416   2.157   0.473  2.3070  1.4507 -0.0748
   17MOL    H4617358   3.617   1.982   0.471  0.7196 -1.2768 -0.4087
   17MOL    H4717359   3.571   1.960   0.046 -0.5970  0.5399 -0.2779
   17MOL    H4817360   3.341   2.065   0.063 -1.7271 -0.0153  1.9033
   17MOL    H4917361   3.072   2.415   0.373 -0.5628  1.5070 -0.3493
   17MOL    H5017362   3.143   2.636   0.423 -1.6307 -2.0691 -0.9015
   17MOL    H5117363   3.113   2.844   0.435 -2.7439 -0.7814 -0.7253
   17MOL    H5217364   2.955   2.994   0.322 -0.7202 -0.4683 -1.3493
   17MOL    H5317365   3.112   3.339   0.195  1.4927  0.8479 -0.1774
   17MOL    H5417366   3.192   3.565   0.094 -1.3640  1.0831 -0.3271
   17MOL    H5517367   3.163   3.611   8.103  1.3600 -0.8804 -0.4877
   17MOL    C5617368   3.683   1.747   0.212 -0.5934 -0.3505  0.3000
   17MOL    C5717369   3.746   1.699   0.095  0.0961  0.1796 -0.4885
   17MOL    C5817370   3.712   1.572   0.038  0.4634  0.6333 -0.6675
   17MOL    C5917371   3.618   1.492   0.107 -1.0620  0.3720 -0.2154
   17MOL    S6017372   3.572   1.337   0.034 -0.1122  0.0654 -0.0682
   17MOL    O6117373   3.571   1.357   8.141 -0.3222  0.2099  0.6609
   17MOL    O6217374   3.450   1.290   0.102  0.2922  0.0192  0.3094
   17MOL    C6317375   3.712   1.232   0.070  0.1793  0.9578  1.0185
   17MOL    C6417376   3.836   1.242   8.249 -0.5512  0.2600 -0.3763
   17MOL    C6517377   3.942   1.153   0.015 -0.5665 -0.1815  0.1141
   17MOL    C6617378   3.919   1.049   0.104  0.1254 -0.7904  0.3863
   17MOL    O6717379   4.005   0.942   0.115  0.2960  0.4014  0.2633
   17MOL    C6817380   4.130   0.964   0.159 -0.3172  0.0979 -0.2028
   17MOL    C6917381   4.240   0.934   0.071  0.2876 -0.8430  0.5682
   17MOL    C7017382   4.372   0.948   0.125  0.3130  0.1637  0.3947
   17MOL    C7117383   4.392   0.995   0.260 -0.2180  0.1778 -0.2394
   17MOL    C7217384   4.531   1.019   0.330  0.1208 -0.6101  0.1580
   17MOL    C7317385   4.561   1.169   0.330  0.0123 -0.3411  0.7614
   17MOL    C7417386   4.532   0.981   0.479  1.0370  0.4859  0.2730
   17MOL    C7517387   4.633   0.946   0.245  0.1562  0.4603  0.0714
   17MOL    C7617388   4.662   0.806   0.257  0.0496  0.7386  1.1186
   17MOL    C7717389   4.755   0.742   0.179  0.4400  0.0486  0.6494
   17MOL    C7817390   4.824   0.813   0.079  0.2819  0.7495  0.8912
   17MOL    O7917391   4.920   0.743   0.004 -0.8535 -0.2133  0.6000
   17MOL    C8017392   4.802   0.950   0.064  0.1465  0.3406 -0.2710
   17MOL    C8117393   4.714   1.016   0.147  0.5597  0.2491 -0.5326
   17MOL    C8217394   4.282   1.027   0.339  1.0495 -0.6631  1.0132
   17MOL    C8317395   4.149   1.012   0.290  0.1414  0.1390 -0.0133
   17MOL    C8417396   3.799   1.043   0.177 -0.3845  0.1709 -0.7251
   17MOL    C8517397   3.699   1.134   0.162  0.0666  0.1184 -0.1322
   17MOL    C8617398   3.558   1.531   0.229  0.1707 -0.2395 -0.0485
   17MOL    C8717399   3.599   1.656   0.285 -0.4784 -0.5801  0.1973
   17MOL    H8817400   3.808   1.769   0.041  1.4772 -1.0610 -0.5509
   17MOL    H8917401   3.744   1.536   8.195  0.5885  0.7789 -0.6814
   17MOL    H9017402   3.845   1.326   8.180  1.8120  0.2627 -0.1287
   17MOL    H9117403   4.035   1.161   8.213  0.1261  1.2135  1.4291
   17MOL    H9217404   4.225   0.894   8.225 -0.3912 -0.1564  0.3827
   17MOL    H9317405   4.453   0.917   0.061  0.7478  0.2096  0.9215
   17MOL    H9417406   4.551   1.214   0.231 -1.7273 -1.6502  0.3150
   17MOL    H9517407   4.662   1.189   0.367  0.6033 -1.3670 -0.2719
   17MOL    H9617408   4.481   1.216   0.388  0.8075  1.6838  0.2477
   17MOL    H9717409   4.630   0.982   0.527  1.5470 -1.6046 -0.6445
   17MOL    H9817410   4.464   1.035   0.544  1.7817  0.3916  1.1310
   17MOL    H9917411   4.485   0.883   0.478  1.1242  0.3882 -3.1036
   17MOL   H10017412   4.600   0.754   0.328 -1.1208  0.7929  0.1516
   17MOL   H10117413   4.761   0.636   0.196  0.4171  0.0847  0.8859
   17MOL   H10217414   4.855   1.016   8.250 -0.2385  1.9584  0.9760
   17MOL   H10317415   4.692   1.119   0.124 -1.1931 -0.1652 -0.8159
   17MOL   H10417416   4.283   1.060   0.441 -1.7376  0.2816  0.7736
   17MOL   H10517417   4.069   1.042   0.355 -1.0456 -2.5333 -0.1953
   17MOL   H10617418   3.784   0.968   0.253  1.8827  0.5678  0.1416
   17MOL   H10717419   3.610   1.129   0.223 -0.9079  0.3399 -1.4899
   17MOL   H10817420   3.484   1.466   0.273 -0.7721  0.0332 -1.1983
   17MOL   H10917421   3.559   1.700   0.375 -0.6097  0.5845 -0.4213
   17MOL   C11017422   5.023   0.819   8.216  0.0655 -0.3722  0.4867
   17MOL   C11117423   5.108   0.871   0.064  0.3713  0.6273  0.3337
   17MOL   C11217424   5.214   0.950   0.017  0.0301  0.5539  1.0760
   17MOL   C11317425   5.245   0.970   8.135  0.1671  0.1704  0.1280
   17MOL   S11417426   5.392   1.065   8.085  0.3191  0.1120 -0.1348
   17MOL   O11517427   5.371   1.200   8.131  0.3434  0.1652 -0.2867
   17MOL   O11617428   5.412   1.042   7.940 -0.2005 -0.3043  0.3459
   17MOL   C11717429   5.523   0.982   8.183  0.4503 -0.0716  0.2116
   17MOL   C11817430   5.561   0.857   8.124 -0.5804  0.6215  0.2866
   17MOL   C11917431   5.656   0.780   8.199  0.6865 -0.6231  0.1251
   17MOL   C12017432   5.717   0.829   0.060 -0.2587 -0.0104  0.8056
   17MOL   O12117433   5.807   0.753   0.126  0.3708 -0.3836 -0.3593
   17MOL   C12217434   5.787   0.619   0.139  0.2930 -0.0906  0.0254
   17MOL   C12317435   5.673   0.585   0.215  0.0520 -0.2854 -0.8847
   17MOL   C12417436   5.630   0.453   0.225 -0.5377  0.6887  0.1712
   17MOL   C12517437   5.701   0.350   0.159 -0.4422  0.2089 -0.0737
   17MOL   C12617438   5.646   0.204   0.147  0.7109  0.8594 -0.0977
   17MOL   C12717439   5.565   0.171   0.267 -0.4438 -0.8491 -0.2047
   17MOL   C12817440   5.547   0.204   0.025  0.2563 -0.5841  0.3846
   17MOL   C12917441   5.757   0.108   0.130 -0.2768 -0.3516  0.3018
   17MOL   C13017442   5.856   0.091   0.230 -0.3877  0.7976  0.0170
   17MOL   C13117443   5.959   8.246   0.225  0.3351 -0.3369 -0.1548
   17MOL   C13217444   5.964   8.170   0.104 -0.3756  0.3056  0.5581
   17MOL   O13317445   6.070   8.078   0.095  0.5056 -0.0274  0.5156
   17MOL   C13417446   5.875   8.184   8.252 -0.1167  0.5173  0.5372
   17MOL   C13517447   5.772   0.027   0.012 -0.5648  0.0500 -0.0276
   17MOL   C13617448   5.823   0.385   0.094  0.2047 -0.3019  0.2633
   17MOL   C13717449   5.862   0.522   0.081 -0.4676 -0.5918 -0.0650
   17MOL   C13817450   5.674   0.954   0.118  0.1376 -0.7289  0.8440
   17MOL   C13917451   5.577   1.032   0.051 -0.1025  0.4845 -0.1868
   17MOL   C14017452   5.174   0.895   8.036  0.2071  0.1648  0.0433
   17MOL   C14117453   5.053   0.833   8.079 -0.2655  0.1881 -0.0753
   17MOL   H14217454   5.090   0.849   0.168  1.2025 -2.2277 -0.0813
   17MOL   H14317455   5.276   0.994   0.094  2.0299  2.6663 -1.6391
   17MOL   H14417456   5.516   0.808   8.039  1.4681 -0.4687 -0.2040
   17MOL   H14517457   5.681   0.687   8.149 -0.9185 -1.5013  0.9295
   17MOL   H14617458   5.613   0.661   0.262  1.4257  0.7690 -0.8006
   17MOL   H14717459   5.547   0.433   0.290 -0.5735 -1.3977 -0.4692
   17MOL   H14817460   5.474   0.231   0.273  0.1670 -0.1453  3.6934
   17MOL   H14917461   5.614   0.189   0.363 -0.3454  3.1264 -0.9138
   17MOL   H15017462   5.527   0.069   0.256 -2.3588 -0.0177 -1.5691
   17MOL   H15117463   5.577   0.264   8.193  0.7024  1.6697  2.0915
   17MOL   H15217464   5.505   0.105   0.004 -0.9928 -0.0578  0.3801
   17MOL   H15317465   5.462   0.266   0.051  1.5773  0.8599  1.3526
   17MOL   H15417466   5.850   0.154   0.317 -0.6342 -0.0501  0.6184
   17MOL   H15517467   6.028   8.226   0.305 -0.3976  0.7981  0.7884
   17MOL   H15617468   5.896   8.128   8.162  0.7150  2.8503 -0.7712
   17MOL   H15717469   5.704   0.047   8.183 -1.5339  1.0192  0.9917
   17MOL   H15817470   5.880   0.314   0.036  2.0083  2.7867 -1.9202
   17MOL   H15917471   5.954   0.548   0.032 -1.7473  2.5212 -0.9454
   17MOL   H16017472   5.713   0.995   0.210  3.4621  0.3638 -0.9738
   17MOL   H16117473   5.528   1.115   0.098 -0.2586  1.0026 -1.2625
   17MOL   H16217474   5.195   0.896   7.931  1.8741  1.2084  0.3654
   17MOL   H16317475   4.982   0.795   8.007 -1.3996  0.3951  0.9196
   17MOL   C16417476   6.068   7.972   0.182 -0.0229 -0.3471  0.4759
   17MOL   C16517477   6.176   7.967   0.280 -0.5414 -0.1791  0.3413
   17MOL   C16617478   6.182   7.860   0.376 -0.2702 -0.5096  0.5270
   17MOL   C16717479   6.069   7.780   0.380 -0.5658  0.5109 -0.1176
   17MOL   S16817480   6.059   7.653   0.505  0.1824 -0.2368  0.1162
   17MOL   O16917481   6.190   7.636   0.568  0.1706 -0.4791 -0.7343
   17MOL   O17017482   5.985   7.539   0.447 -0.0962 -0.0615  0.2834
   17MOL   C17117483   5.942   7.712   0.635 -0.1372 -1.3159 -0.8536
   17MOL   C17217484   5.992   7.777   0.753 -0.0459 -0.2477 -0.0112
   17MOL   C17317485   5.901   7.827   0.852 -0.3937 -0.0645  0.8681
   17MOL   C17417486   5.761   7.812   0.834  0.3858  0.1088  0.9542
   17MOL   O17517487   5.664   7.853   0.922  0.4760 -0.2725  0.8732
   17MOL   C17617488   5.697   7.932   1.029  0.0819 -0.1106 -0.4227
   17MOL   C17717489   5.714   8.068   1.019 -0.3148 -0.3518  0.1232
   17MOL   C17817490   5.741   8.145   1.135  0.2481 -0.1210  0.2672
   17MOL   C17917491   5.756   8.085   1.260  0.5034  0.2042  0.0299
   17MOL   C18017492   5.776   8.172   1.382 -0.7591  0.9874 -0.0440
   17MOL   C18117493   5.637   8.206   1.425 -0.0357  0.0783 -0.8501
   17MOL   C18217494   5.842   8.113   1.504 -0.4145 -0.9339  0.1559
   17MOL   C18317495   5.855   0.048   1.336  0.5526  0.3383 -1.1606
   17MOL   C18417496   5.985   0.032   1.298 -0.0406  0.2779 -0.2491
   17MOL   C18517497   6.062   0.147   1.279  0.4829 -0.6622 -0.5216
   17MOL   C18617498   6.011   0.280   1.286  0.0918  0.5480 -0.1027
   17MOL   O18717499   6.104   0.384   1.253  0.4557 -0.0026 -0.1229
   17MOL   C18817500   5.871   0.292   1.305 -0.4403  0.9435 -0.8624
   17MOL   C18917501   5.792   0.181   1.327  0.7256 -0.0263 -0.0911
   17MOL   C19017502   5.737   7.943   1.270 -0.0219  0.3776  0.8026
   17MOL   C19117503   5.719   7.866   1.153  0.3901  0.3617 -0.4423
   17MOL   C19217504   5.714   7.753   0.717 -0.3982 -0.4783 -0.3407
   17MOL   C19317505   5.802   7.707   0.619  0.3610 -0.9541  0.6284
   17MOL   C19417506   5.961   7.781   0.289 -0.0159 -0.0525  0.1190
   17MOL   C19517507   5.962   7.876   0.191 -0.4073 -0.0311 -0.0686
   17MOL   H19617508   6.255   8.041   0.272 -1.8593  1.2710  0.4759
   17MOL   H19717509   6.255   7.859   0.455  0.5256 -0.5789 -0.1980
   17MOL   H19817510   6.098   7.792   0.770 -0.5603  1.6016  1.7111
   17MOL   H19917511   5.939   7.884   0.935  1.6636 -0.1520  0.0288
   17MOL   H20017512   5.694   8.114   0.923 -2.4433 -0.0284  0.7032
   17MOL   H20117513   5.737   8.252   1.119  1.0249 -0.0421  0.5681
   17MOL   H20217514   5.587   8.133   1.488  0.7870  0.2696  0.0539
   17MOL   H20317515   5.565   8.244   1.353 -0.6159 -0.4014 -0.5171
   17MOL   H20417516   5.653   0.033   1.498  0.5993 -1.3374  0.6003
   17MOL   H20517517   5.800   8.026   1.555  1.4887 -2.3003 -0.5237
   17MOL   H20617518   5.946   8.087   1.482 -0.8673 -2.5734 -0.1396
   17MOL   H20717519   5.851   8.187   1.583 -2.5607 -0.6595  0.1788
   17MOL   H20817520   6.032   8.188   1.300 -0.1124  0.1985 -1.8350
   17MOL   H20917521   6.162   0.123   1.245 -0.1934 -0.9658 -2.3504
   17MOL   H21017522   5.824   0.389   1.307 -0.9179  0.7026  0.2718
   17MOL   H21117523   5.688   0.198   1.352  0.6842  1.4551 -1.2524
   17MOL   H21217524   5.748   7.887   1.362 -0.3384 -0.4371  0.3497
   17MOL   H21317525   5.714   7.759   1.159  3.6437  0.2094  0.4493
   17MOL   H21417526   5.609   7.743   0.692 -1.2133  4.0401  0.9834
   17MOL   H21517527   5.767   7.666   0.525  0.1437 -1.8619  1.0943
   17MOL   H21617528   5.876   7.714   0.294 -0.8075  0.9025 -0.2487
   17MOL   H21717529   5.882   7.873   0.119  0.7114  1.4169 -1.4197
   17MOL   C21817530   6.056   0.500   1.194 -0.7568 -0.3867  0.1802
   17MOL   C21917531   6.046   0.611   1.279  0.0898 -0.1364 -0.0434
   17MOL   C22017532   5.990   0.728   1.229 -0.4005  0.2069  0.4292
   17MOL   C22117533   5.960   0.746   1.087  0.5695  0.1303 -0.9592
   17MOL   S22217534   5.902   0.903   1.017  0.1929 -0.0855 -0.2548
   17MOL   O22317535   5.767   0.884   0.965  0.0631 -0.0911  0.0756
   17MOL   O22417536   6.002   0.950   0.920  0.3564 -0.7523  0.7324
   17MOL   C22517537   5.890   1.032   1.145 -0.0280  0.9279 -0.7848
   17MOL   C22617538   5.997   1.033   1.232 -0.7191  0.8044 -0.5743
   17MOL   C22717539   6.005   1.135   1.330 -0.1474 -0.0860 -0.3823
   17MOL   C22817540   5.905   1.229   1.338 -0.3531  0.6094 -0.0924
   17MOL   O22917541   5.922   1.328   1.435 -0.3647 -0.6190  0.1917
   17MOL   C23017542   5.812   1.380   1.500 -0.8053 -0.7045 -0.3690
   17MOL   C23117543   5.720   1.297   1.562 -0.6621 -0.1967 -0.0812
   17MOL   C23217544   5.613   1.352   1.639 -0.9030 -0.1008  0.5005
   17MOL   C23317545   5.603   1.493   1.659 -0.3729 -0.0302 -0.0999
   17MOL   C23417546   5.500   1.546   1.759  0.3224  0.7045  0.0909
   17MOL   C23517547   5.469   1.699   1.737  0.5859 -0.9450  0.3797
   17MOL   C23617548   5.370   1.463   1.741  0.8111 -0.0737 -0.3023
   17MOL   C23717549   5.542   1.533   1.905  0.8559  0.0752  0.1170
   17MOL   C23817550   5.452   1.557   2.011  0.7150 -1.1531 -0.0432
   17MOL   C23917551   5.489   1.544   2.144 -0.1019  0.0085  0.0749
   17MOL   C24017552   5.624   1.515   2.176  0.1974 -0.5256 -0.1400
   17MOL   O24117553   5.649   1.512   2.311  0.1058 -0.4511 -0.3557
   17MOL   C24217554   5.714   1.475   2.074 -0.8860  0.5247 -0.0159
   17MOL   C24317555   5.675   1.496   1.940  0.5977 -0.0143  1.1103
   17MOL   C24417556   5.701   1.578   1.595  0.6930  1.0855 -0.1460
   17MOL   C24517557   5.802   1.518   1.516 -0.3962  1.0615 -0.2667
   17MOL   C24617558   5.798   1.224   1.246  0.8456 -0.2673  0.5744
   17MOL   C24717559   5.790   1.127   1.150 -0.1278 -0.3273 -0.0946
   17MOL   C24817560   5.981   0.632   1.003  0.3100 -0.0618 -0.2204
   17MOL   C24917561   6.018   0.512   1.061 -0.3250 -0.5849 -0.1202
   17MOL   H25017562   6.062   0.607   1.386 -2.9265  0.5873  0.4793
   17MOL   H25117563   5.974   0.807   1.301  0.4899  1.7860 -1.0652
   17MOL   H25217564   6.077   0.965   1.208  0.8054  2.4739 -0.3376
   17MOL   H25317565   6.090   1.135   1.396 -0.4491 -0.9734  0.0216
   17MOL   H25417566   5.728   1.190   1.556 -0.5058 -0.3088  1.9634
   17MOL   H25517567   5.554   1.274   1.686  0.8668 -1.7476  0.0771
   17MOL   H25617568   5.548   1.768   1.765  0.9919 -1.2892  0.0850
   17MOL   H25717569   5.369   1.725   1.772  0.5511  0.3870 -0.6750
   17MOL   H25817570   5.453   1.717   1.631 -0.6039  0.7600  0.8182
   17MOL   H25917571   5.290   1.512   1.798 -0.3633 -1.3316 -0.8406
   17MOL   H26017572   5.345   1.456   1.635  3.6586  0.6357 -1.0664
   17MOL   H26117573   5.376   1.356   1.760 -4.4743 -0.9416 -2.5959
   17MOL   H26217574   5.348   1.581   1.991  1.7853  2.3761 -1.9362
   17MOL   H26317575   5.424   1.553   2.230  0.2323  1.3859  0.1955
   17MOL   H26417576   5.816   1.443   2.091 -1.2292 -0.3334  0.4504
   17MOL   H26517577   5.753   1.478   1.867 -2.1551 -0.6595 -1.7362
   17MOL   H26617578   5.707   1.682   1.622 -1.6617  1.7185 -1.9166
   17MOL   H26717579   5.876   1.581   1.470  2.7407 -2.4948 -0.3554
   17MOL   H26817580   5.720   1.298   1.242  0.3796 -0.6565  2.1478
   17MOL   H26917581   5.713   1.137   1.074 -2.2425 -1.0194  1.9037
   17MOL   H27017582   5.964   0.647   0.898  0.7949  1.8166 -0.0516
   17MOL   H27117583   6.023   0.426   0.996 -0.9137 -0.1884 -0.7035
   17MOL   C27217584   5.770   1.471   2.363 -0.0304  0.4478  0.5295
   17MOL   C27317585   5.785   1.359   2.445  0.0389  0.2507 -0.0009
   17MOL   C27417586   5.915   1.325   2.490 -0.6807  0.0933 -0.0856
   17MOL   C27517587   6.030   1.403   2.464 -0.3400 -0.3944  0.6065
   17MOL   S27617588   6.195   1.347   2.522 -0.0001 -0.2282 -0.2469
   17MOL   O27717589   6.296   1.449   2.487 -0.4528 -0.1947 -0.4367
   17MOL   O27817590   6.209   1.207   2.474  0.1125 -0.0650  0.2679
   17MOL   C27917591   6.185   1.334   2.701  0.6188  0.0820 -0.2801
   17MOL   C28017592   6.072   1.381   2.771  0.8561 -0.3752 -0.8297
   17MOL   C28117593   6.058   1.360   2.908 -0.9608  0.0427  0.3409
   17MOL   C28217594   6.170   1.304   2.978 -0.2718 -0.0163 -0.2749
   17MOL   O28317595   6.159   1.302   3.115 -0.0611  0.1091  0.3442
   17MOL   C28417596   6.066   1.215   3.170  0.0839  0.6060 -0.9200
   17MOL   C28517597   6.045   1.237   3.308  0.2292  0.2883 -0.1570
   17MOL   C28617598   5.944   1.159   3.377 -0.4506  0.9396  0.0875
   17MOL   C28717599   5.860   1.067   3.310  0.0095  0.1054 -0.0257
   17MOL   C28817600   5.761   0.983   3.383 -0.2453  0.7699 -0.2197
   17MOL   C28917601   5.823   0.845   3.394 -0.1620  1.0628  0.2901
   17MOL   C29017602   5.742   1.029   3.531 -0.4375 -0.0879  0.0739
   17MOL   C29117603   5.632   0.982   3.303  0.1223  0.2623  0.1755
   17MOL   C29217604   5.568   0.861   3.257 -0.5552 -0.2800 -0.7325
   17MOL   C29317605   5.453   0.866   3.177  0.1044  0.1668  0.4300
   17MOL   C29417606   5.394   0.988   3.134  0.1173 -0.0899 -0.5031
   17MOL   O29517607   5.269   1.001   3.081 -0.2547 -0.1617  0.3981
   17MOL   C29617608   5.452   1.107   3.183 -0.1675 -0.2077  1.7354
   17MOL   C29717609   5.577   1.106   3.256  0.3542 -0.0892  0.6015
   17MOL   C29817610   5.888   1.040   3.172  0.4509 -0.5973 -0.2600
   17MOL   C29917611   5.991   1.111   3.100  0.0619  0.9359  0.2818
   17MOL   C30017612   6.286   1.259   2.912  0.3085  0.3927 -0.2943
   17MOL   C30117613   6.291   1.284   2.772  0.1077  0.3838 -0.1589
   17MOL   C30217614   6.008   1.513   2.382 -0.3627  0.4408 -0.8955
   17MOL   C30317615   5.884   1.542   2.326 -0.1899 -0.1714 -0.0149
   17MOL   H30417616   5.700   1.301   2.478  0.5368 -0.6086 -0.2362
   17MOL   H30517617   5.925   1.243   2.559 -0.1561  0.2237 -0.0087
   17MOL   H30617618   5.988   1.422   2.717 -0.6314 -0.2431  1.5156
   17MOL   H30717619   5.971   1.381   2.969 -1.9637  1.1026 -1.4192
   17MOL   H30817620   6.103   1.311   3.360  1.2974 -1.1678  0.7406
   17MOL   H30917621   5.947   1.176   3.484  0.3704 -0.1164  0.2407
   17MOL   H31017622   5.923   0.836   3.435  0.4528  0.1757 -1.3402
   17MOL   H31117623   5.825   0.791   3.299 -0.0384 -1.1868  1.5414
   17MOL   H31217624   5.760   0.781   3.456  0.4099  0.4164  0.2165
   17MOL   H31317625   5.654   0.984   3.576 -1.9539  1.9036 -0.8376
   17MOL   H31417626   5.836   1.000   3.578 -0.6473 -1.3444 -0.2471
   17MOL   H31517627   5.734   1.137   3.539  0.2466  0.0677 -1.1405
   17MOL   H31617628   5.605   0.767   3.296 -0.1825  1.2087  2.6924
   17MOL   H31717629   5.401   0.777   3.144  2.1096 -0.9832  0.2804
   17MOL   H31817630   5.410   1.199   3.146  0.0677 -0.9814 -0.5171
   17MOL   H31917631   5.629   1.196   3.283 -0.0428  1.1510 -2.5275
   17MOL   H32017632   5.831   0.965   3.119  0.2574 -1.1588  0.7278
   17MOL   H32117633   6.012   1.103   2.995  3.6255  1.7999  0.8527
   17MOL   H32217634   6.374   1.221   2.960 -0.7990 -1.4124  0.3712
   17MOL   H32317635   6.379   1.253   2.718  1.0136  0.2865  1.3319
   17MOL   H32417636   6.094   1.564   2.341 -1.0312  0.1455 -2.6955
   17MOL   H32517637   5.881   1.624   2.255  0.4849 -1.1219 -1.1514
   17MOL   C32617638   5.194   0.904   3.015 -0.4527  0.3043  0.2417
   17MOL   C32717639   5.051   0.919   3.028  0.8710  0.0555 -0.6769
   17MOL   C32817640   4.971   0.832   2.943 -0.0440  0.1220  0.4477
   17MOL   C32917641   5.025   0.741   2.857 -0.0039  0.3841 -0.0096
   17MOL   S33017642   4.909   0.640   2.762  0.3129  0.2350  0.5138
   17MOL   O33117643   4.920   0.680   2.619  0.1386  0.2952 -0.0810
   17MOL   O33217644   4.779   0.644   2.826 -0.3031 -0.1619 -0.3737
   17MOL   C33317645   4.959   0.471   2.765 -0.7731 -0.3450 -1.0699
   17MOL   C33417646   4.980   0.412   2.889  0.7298  0.0500  0.1496
   17MOL   C33517647   5.017   0.277   2.886 -0.4396 -0.2304  0.4760
   17MOL   C33617648   5.030   0.207   2.763 -0.1671 -0.3325 -0.4909
   17MOL   O33717649   5.072   0.077   2.764 -0.1554  0.1150  0.2221
   17MOL   C33817650   4.970   8.239   2.775 -0.0611 -0.4149 -1.0777
   17MOL   C33917651   4.896   8.228   2.894 -0.9085 -0.5173 -0.2791
   17MOL   C34017652   4.795   8.132   2.907 -0.0775 -0.0819  0.1292
   17MOL   C34117653   4.763   8.046   2.803  0.7507  0.3310 -0.8572
   17MOL   C34217654   4.654   7.927   2.823  0.1221 -0.2202 -0.4634
   17MOL   C34317655   4.514   7.987   2.778  0.8547 -0.6166 -0.7426
   17MOL   C34417656   4.686   7.809   2.723  0.3255 -0.1917 -0.1412
   17MOL   C34517657   4.657   7.863   2.963 -0.2342  0.1573  0.0554
   17MOL   C34617658   4.537   7.862   3.041 -0.4113  0.1389  0.8189
   17MOL   C34717659   4.543   7.796   3.165  0.4857 -0.7255  1.1168
   17MOL   C34817660   4.654   7.729   3.220 -0.3702  0.2931  0.0666
   17MOL   O34917661   4.641   7.655   3.335 -0.5821 -0.2939 -0.1349
   17MOL   C35017662   4.772   7.741   3.142  0.2720  0.3644  0.4909
   17MOL   C35117663   4.776   7.803   3.015  0.0379 -0.7552  0.1416
   17MOL   C35217664   4.832   8.074   2.677  0.3594  0.4955  0.3503
   17MOL   C35317665   4.934   8.165   2.663 -0.1125  1.0802  0.2299
   17MOL   C35417666   4.999   0.276   2.641 -0.3468  0.2174 -1.1778
   17MOL   C35517667   4.962   0.407   2.637  0.3438 -0.4333 -0.2391
   17MOL   C35617668   5.167   0.729   2.843 -0.1270  0.1128 -0.4725
   17MOL   C35717669   5.248   0.815   2.923 -0.0850 -0.2608  0.2118
   17MOL   H35817670   5.016   0.996   3.094 -0.0661 -0.8325 -0.1135
   17MOL   H35917671   4.867   0.855   2.928 -0.1244 -1.0789 -0.8586
   17MOL   H36017672   4.979   0.469   2.981  0.8941 -2.3083  1.6470
   17MOL   H36117673   5.044   0.231   2.980 -0.8804 -0.2166  0.6076
   17MOL   H36217674   4.914   0.031   2.985 -2.7255 -0.3869  0.0296
   17MOL   H36317675   4.745   8.130   3.002  3.0067  2.2948  1.8893
   17MOL   H36417676   4.516   8.015   2.673  0.3835  0.6251 -0.4346
   17MOL   H36517677   4.489   8.073   2.840 -2.3198 -1.0687 -1.2889
   17MOL   H36617678   4.438   7.910   2.788  0.3974 -0.0028  0.6709
   17MOL   H36717679   4.699   7.840   2.620 -0.6469  1.9286  0.3573
   17MOL   H36817680   4.780   7.761   2.749  0.0168 -0.2441  0.9282
   17MOL   H36917681   4.607   7.733   2.726  0.1047  0.0567  0.3537
   17MOL   H37017682   4.441   7.901   3.010 -0.8312 -0.9064  0.7812
   17MOL   H37117683   4.456   7.790   3.228  0.0193  1.0920  0.6593
   17MOL   H37217684   4.861   7.681   3.158  0.6274 -0.7569 -4.6936
   17MOL   H37317685   4.859   7.800   2.946 -0.6479  1.2173 -0.8072
   17MOL   H37417686   4.789   8.028   2.590 -0.3884  1.9367 -0.0538
   17MOL   H37517687   4.982   8.167   2.567  0.1812  0.5177  0.3660
   17MOL   H37617688   5.011   0.224   2.546 -1.4193  2.3266 -2.5052
   17MOL   H37717689   4.931   0.457   2.547  0.9931  0.6090  0.1010
   17MOL   H37817690   5.214   0.671   2.766  1.1645  0.3700  0.1198
   17MOL   H37917691   5.354   0.808   2.900  0.0075 -2.0441  1.0351
   17MOL   C38017692   4.724   7.548   3.346  0.2215  0.6450  0.4966
   17MOL   C38117693   4.854   7.570   3.400 -0.2682 -0.4609  0.1386
   17MOL   C38217694   4.941   7.460   3.401 -0.7843 -0.2910  0.0244
   17MOL   C38317695   4.914   7.340   3.332  0.2678  0.0799  0.2720
   17MOL   S38417696   5.043   7.220   3.321 -0.2653 -0.1753 -0.5649
   17MOL   O38517697   5.160   7.289   3.262  0.4960  0.8255 -0.0963
   17MOL   O38617698   4.978   7.098   3.265  0.4620 -0.1860 -0.5404
   17MOL   C38717699   5.071   7.189   3.496 -0.3371 -0.4171 -0.4012
   17MOL   C38817700   4.983   7.107   3.571  0.1962  0.9612 -0.2858
   17MOL   C38917701   5.010   7.063   3.701  0.0618 -0.2815  0.1015
   17MOL   C39017702   5.131   7.111   3.761  0.1281  0.5535  0.2668
   17MOL   O39117703   5.173   7.061   3.882 -0.4023  0.4830  0.1092
   17MOL   C39217704   5.089   7.068   3.989  0.3076 -0.4385 -0.6463
   17MOL   C39317705   5.063   7.182   4.065 -0.8148 -0.1450  0.5753
   17MOL   C39417706   4.969   7.186   4.167 -0.1046  0.1155 -0.6073
   17MOL   C39517707   4.895   7.067   4.186  0.2153  1.2594  0.6728
   17MOL   C39617708   4.773   7.064   4.287  0.8641  0.1909  0.6534
   17MOL   C39717709   4.780   6.939   4.382 -0.4029 -0.2654  0.4651
   17MOL   C39817710   4.775   7.180   4.385 -0.2668  0.1299 -0.0522
   17MOL   C39917711   4.640   7.069   4.212 -0.0170  0.4355  0.1562
   17MOL   C40017712   4.613   7.187   4.138  0.7338 -0.1057  0.4775
   17MOL   C40117713   4.495   7.197   4.061  0.8152  0.7081 -0.2978
   17MOL   C40217714   4.393   7.097   4.073 -0.7131 -0.6824  0.3049
   17MOL   O40317715   4.281   7.117   3.998  0.1124  0.0203  0.5644
   17MOL   C40417716   4.423   6.982   4.147 -0.2750 -0.0301  0.0043
   17MOL   C40517717   4.540   6.968   4.222  0.4875  0.2271 -0.0769
   17MOL   C40617718   4.920   6.951   4.116  0.3469  0.0838  0.2649
   17MOL   C40717719   5.019   6.950   4.017 -0.3813  0.9408  0.4145
   17MOL   C40817720   5.220   7.195   3.692  0.3928  0.7337 -0.3118
   17MOL   C40917721   5.193   7.234   3.560 -0.1579  0.2299  0.0570
   17MOL   C41017722   4.789   7.316   3.272  0.1397 -0.1192  0.1104
   17MOL   C41117723   4.691   7.420   3.285 -0.1951 -0.1763  0.5814
   17MOL   H41217724   4.892   7.665   3.437  1.2999 -0.2833 -1.8452
   17MOL   H41317725   5.042   7.460   3.440 -0.5079  2.0486 -0.6081
   17MOL   H41417726   4.891   7.069   3.528 -0.7080  2.4133  0.3285
   17MOL   H41517727   4.947   6.995   3.758 -0.8421  0.5915  0.1731
   17MOL   H41617728   5.108   7.278   4.047 -1.4269 -0.2062 -1.3390
   17MOL   H41717729   4.948   7.281   4.214  0.2741  0.0144 -0.2326
   17MOL   H41817730   4.694   6.937   4.448  0.9237  1.7963  2.3460
   17MOL   H41917731   4.871   6.942   4.442 -1.2033  0.2777  1.6542
   17MOL   H42017732   4.786   6.843   4.331  2.9502 -0.3235  0.8654
   17MOL   H42117733   4.691   7.174   4.454 -1.8817  2.3866 -1.7375
   17MOL   H42217734   4.862   7.183   4.451  0.9305 -1.1696 -1.5426
   17MOL   H42317735   4.749   7.278   4.345 -1.7152  0.3232  1.2886
   17MOL   H42417736   4.689   7.263   4.135 -0.6993  1.3907  1.2982
   17MOL   H42517737   4.477   7.286   4.003  2.0058 -1.7615 -4.5921
   17MOL   H42617738   4.359   6.896   4.160 -0.7224  0.5939  2.0621
   17MOL   H42717739   4.563   6.875   4.271 -1.6214  0.1261  0.7869
   17MOL   H42817740   4.857   6.866   4.137  0.8510 -0.8724 -1.9238
   17MOL   H42917741   5.047   6.857   3.970 -0.9120  0.7005  0.5749
   17MOL   H43017742   5.314   7.223   3.738  1.1484 -3.6558  1.0301
   17MOL   H43117743   5.263   7.292   3.501 -0.0028 -1.7811 -1.7744
   17MOL   H43217744   4.784   7.235   3.200  1.4846  0.1757 -0.3298
   17MOL   H43317745   4.597   7.419   3.232  0.6351 -0.8911 -0.9133
   17MOL   C43417746   4.192   7.014   3.986  0.4305 -0.3291 -0.2072
   17MOL   C43517747   4.085   7.010   4.080  0.0572  0.4210 -0.1446
   17MOL   C43617748   3.980   6.919   4.062  0.4990  0.6547 -0.1748
   17MOL   C43717749   3.992   6.830   3.949  0.6290 -0.3522 -0.9224
   17MOL   S43817750   3.863   6.706   3.922 -0.5118 -0.0632  0.0830
   17MOL   O43917751   3.806   6.676   4.056  0.2773  0.6623  0.6280
   17MOL   O44017752   3.921   6.599   3.837 -0.4468 -0.4186 -0.2204
   17MOL   C44117753   3.744   6.793   3.827 -0.2953  0.4318 -0.2706
   17MOL   C44217754   3.676   6.912   3.875  0.6492 -0.2752  0.3175
   17MOL   C44317755   3.588   6.976   3.789 -0.1919 -0.9549 -0.2060
   17MOL   C44417756   3.563   6.936   3.655 -0.7153 -0.2393  0.5349
   17MOL   O44517757   3.477   7.005   3.574 -0.1955  0.7468 -0.2755
   17MOL   C44617758   3.360   7.032   3.637 -0.2195  0.4673 -0.3420
   17MOL   C44717759   3.251   6.946   3.631 -0.1365  0.2714 -0.3863
   17MOL   C44817760   3.131   6.983   3.700 -0.1342 -0.0628 -0.7460
   17MOL   C44917761   3.119   7.107   3.776  0.5059 -0.2948 -0.2929
   17MOL   C45017762   2.992   7.149   3.860  0.2760 -0.1896 -0.9640
   17MOL   C45117763   2.904   7.241   3.782 -0.4812  0.3590 -0.1053
   17MOL   C45217764   2.914   7.020   3.889 -1.1434 -0.4164  0.2615
   17MOL   C45317765   3.033   7.213   3.990 -0.5817  0.2685 -0.3230
   17MOL   C45417766   2.973   7.331   4.043 -0.5853  0.2926  0.1431
   17MOL   C45517767   3.011   7.384   4.161  0.0102 -0.1135 -0.2338
   17MOL   C45617768   3.128   7.342   4.228 -1.3080 -0.1949 -0.3217
   17MOL   O45717769   3.179   7.406   4.335 -0.4169  0.3751 -0.0035
   17MOL   C45817770   3.188   7.221   4.188  0.6858  0.1405  0.2381
   17MOL   C45917771   3.145   7.164   4.064  0.6183  0.2700 -0.4095
   17MOL   C46017772   3.226   7.192   3.765  0.0218  0.0063  0.2311
   17MOL   C46117773   3.347   7.158   3.706  0.8001  0.2004  0.0203
   17MOL   C46217774   3.631   6.822   3.606 -0.7573 -0.8589  0.1595
   17MOL   C46317775   3.721   6.749   3.691 -0.4148  0.0292 -0.4001
   17MOL   C46417776   4.106   6.827   3.863  0.0643  0.1787 -0.4071
   17MOL   C46517777   4.203   6.927   3.877  0.2296  0.4403  0.5015
   17MOL   H46617778   4.082   7.077   4.165 -1.1439  1.2432 -0.8340
   17MOL   H46717779   3.901   6.908   4.135 -0.6758  0.8854 -1.3700
   17MOL   H46817780   3.689   6.942   3.978 -0.5678 -0.5330  0.5466
   17MOL   H46917781   3.529   7.061   3.818  0.4634 -0.4330 -0.3952
   17MOL   H47017782   3.260   6.849   3.583  0.0339  0.7591 -1.3399
   17MOL   H47117783   3.050   6.912   3.698 -0.1990 -0.0882  1.5835
   17MOL   H47217784   2.949   7.338   3.759 -0.0302  0.0382 -0.5946
   17MOL   H47317785   2.808   7.253   3.831 -1.6186  1.4440 -2.5188
   17MOL   H47417786   2.889   7.185   3.689  0.9971  0.9556 -0.7245
   17MOL   H47517787   2.984   6.955   3.940 -1.2961 -0.9662 -0.2306
   17MOL   H47617788   2.822   7.036   3.946 -0.8572  0.5074  0.4710
   17MOL   H47717789   2.889   6.968   3.797  1.2565 -1.2552  0.0789
   17MOL   H47817790   2.881   7.373   4.004 -0.0444  2.9544  1.5650
   17MOL   H47917791   2.955   7.471   4.193 -0.1500  0.3246 -1.6715
   17MOL   H48017792   3.271   7.177   4.242  0.9757 -0.1024 -0.4023
   17MOL   H48117793   3.202   7.082   4.022  2.3089  0.3843  1.6040
   17MOL   H48217794   3.220   7.287   3.817 -2.3032 -0.1034  0.2075
   17MOL   H48317795   3.433   7.224   3.706 -0.0576  1.3555 -1.6843
   17MOL   H48417796   3.617   6.795   3.502  0.2254 -1.4482  0.1727
   17MOL   H48517797   3.793   6.677   3.655  2.3199  2.2008  0.6155
   17MOL   H48617798   4.109   6.753   3.783 -0.3415 -0.6575  0.3379
   17MOL   H48717799   4.279   6.931   3.800  0.8523 -1.3111  1.0136
   17MOL   C48817800   3.166   7.540   4.337  0.5308  0.8276 -0.6816
   17MOL   C48917801   3.117   7.604   4.451 -0.4029  0.2836 -0.5691
   17MOL   C49017802   3.111   7.746   4.459 -0.1155  0.4027  0.5842
   17MOL   C49117803   3.161   7.825   4.353  0.2734  0.1852 -0.0076
   17MOL   S49217804   3.184   7.998   4.392  0.4589 -0.0737 -0.2812
   17MOL   O49317805   3.056   8.064   4.395  0.0679  0.2221  0.2211
   17MOL   O49417806   3.283   8.052   4.297 -0.1363 -0.8701 -0.1208
   17MOL   C49517807   3.260   8.007   4.557 -0.1925 -0.2510 -0.6889
   17MOL   C49617808   3.393   7.962   4.588 -0.3589  0.0594  0.2536
   17MOL   C49717809   3.445   7.956   4.718  0.2445 -0.1636 -0.2854
   17MOL   C49817810   3.353   7.960   4.827 -0.2828  0.0494  0.1626
   17MOL   O49917811   3.406   7.931   4.949  0.1468  0.1070 -0.0118
   17MOL   C50017812   3.328   7.938   5.061 -0.2836  0.3161  0.4160
   17MOL   C50117813   3.261   7.827   5.111  0.3205  0.6783 -0.5348
   17MOL   C50217814   3.185   7.839   5.229  0.1269  0.0554  0.9059
   17MOL   C50317815   3.165   7.969   5.294 -0.1490  0.1568 -0.6319
   17MOL   C50417816   3.074   7.990   5.418 -0.0716 -0.6137 -0.4902
   17MOL   C50517817   3.065   8.140   5.457 -0.0694 -0.1444 -0.2594
   17MOL   C50617818   2.926   7.942   5.378 -0.4766 -0.6951 -1.0168
   17MOL   C50717819   3.129   7.913   5.545  0.1381  0.0937  0.6367
   17MOL   C50817820   3.273   7.910   5.574 -0.2634 -0.4840  0.0170
   17MOL   C50917821   3.319   7.870   5.700 -0.7138 -0.3014 -0.0249
   17MOL   C51017822   3.232   7.813   5.792  0.2216 -0.5739 -0.1529
   17MOL   O51117823   3.283   7.783   5.919 -0.8658  0.2343 -0.1473
   17MOL   C51217824   3.094   7.797   5.758  0.2450  0.3067 -1.0319
   17MOL   C51317825   3.037   7.856   5.639  0.4291  0.4452 -0.2035
   17MOL   C51417826   3.246   8.073   5.245  0.3041 -0.4493  0.4159
   17MOL   C51517827   3.330   8.058   5.134  0.4626 -0.1712 -0.6279
   17MOL   C51617828   3.218   7.998   4.793  0.6206  0.4708 -0.3363
   17MOL   C51717829   3.175   8.019   4.663 -0.0878  0.0549 -0.0257
   17MOL   C51817830   3.208   7.761   4.233 -0.6421  0.7081 -0.9300
   17MOL   C51917831   3.206   7.621   4.224  0.4253  0.1166 -0.1007
   17MOL   H52017832   3.081   7.540   4.530  2.4933 -1.3004 -0.4650
   17MOL   H52117833   3.077   7.788   4.553 -0.5798 -0.0145  0.6037
   17MOL   H52217834   3.451   7.948   4.498 -0.8465  0.0363 -0.0585
   17MOL   H52317835   3.545   7.919   4.730  0.4400  1.0274  2.0179
   17MOL   H52417836   3.260   7.734   5.056 -1.4337  0.9062 -0.9071
   17MOL   H52517837   3.140   7.754   5.278  0.0596 -1.1051 -1.1380
   17MOL   H52617838   3.160   8.185   5.486  0.0880  0.5015 -1.6915
   17MOL   H52717839   2.988   8.167   5.528  1.0262 -1.1291  1.3311
   17MOL   H52817840   3.028   8.198   5.373  0.8916 -1.8455 -1.9190
   17MOL   H52917841   2.915   7.834   5.363  0.4293 -0.7270 -1.4508
   17MOL   H53017842   2.850   7.977   5.448 -0.1618 -0.6927 -0.6739
   17MOL   H53117843   2.880   7.983   5.289 -1.1301 -2.3314 -1.4571
   17MOL   H53217844   3.333   7.951   5.495  0.4823 -0.4574  0.5877
   17MOL   H53317845   3.424   7.861   5.724 -0.9751  3.5815  3.1968
   17MOL   H53417846   3.035   7.752   5.837  0.6406 -0.6629 -1.2839
   17MOL   H53517847   2.930   7.848   5.624  0.6801 -2.0910 -0.8097
   17MOL   H53617848   3.249   8.167   5.298  1.9392 -1.0737  1.4649
   17MOL   H53717849   3.389   8.141   5.101  0.5292 -0.0786 -0.2803
   17MOL   H53817850   3.140   8.003   4.866  0.2886 -2.7323 -0.3734
   17MOL   H53917851   3.075   8.057   4.646  0.4282  1.9947  1.1781
   17MOL   H54017852   3.240   7.817   4.146  2.0591  1.9668  0.7979
   17MOL   H54117853   3.241   7.571   4.134  0.6569 -1.0276  0.6106
   17MOL   C54217854   3.291   7.657   5.964  0.0276  0.4050 -0.2784
   17MOL   C54317855   3.413   7.591   5.954 -0.4078 -0.2333 -0.0688
   17MOL   C54417856   3.428   7.455   5.991 -0.3518  0.0496 -0.2729
   17MOL   C54517857   3.321   7.379   6.034  0.4400 -0.3311  0.3013
   17MOL   S54617858   3.364   7.217   6.100 -0.2589 -0.1156 -0.0006
   17MOL   O54717859   3.241   7.157   6.154 -0.6499 -0.8532  0.1309
   17MOL   O54817860   3.476   7.232   6.191 -0.2888 -0.1149 -0.5774
   17MOL   C54917861   3.418   7.113   5.969  0.0230  0.7057  0.8463
   17MOL   C55017862   3.510   7.006   5.988 -0.1056 -0.5265  0.3815
   17MOL   C55117863   3.578   6.949   5.876  0.3337 -0.7925 -0.0779
   17MOL   C55217864   3.530   6.981   5.746 -0.3915 -0.3722  0.5550
   17MOL   O55317865   3.593   6.925   5.634  0.0686  0.8824 -0.7140
   17MOL   C55417866   3.649   6.801   5.647 -0.3886 -0.1005  0.6689
   17MOL   C55517867   3.789   6.789   5.667  0.6770 -0.1999  0.4493
   17MOL   C55617868   3.853   6.664   5.660 -0.5269 -0.0141  0.1169
   17MOL   C55717869   3.777   6.548   5.634  0.4478  0.1786 -0.0250
   17MOL   C55817870   3.854   6.417   5.620 -0.5747  0.1342  0.8694
   17MOL   C55917871   4.000   6.434   5.570 -1.1214  0.3842 -0.5320
   17MOL   C56017872   3.886   6.358   5.762 -0.2473  0.3296  0.2066
   17MOL   C56117873   3.790   6.314   5.534  0.1707  0.8283  0.4392
   17MOL   C56217874   3.751   6.343   5.405  0.3388  0.6251 -0.0641
   17MOL   C56317875   3.718   6.236   5.315  0.6361  0.5916  0.2508
   17MOL   C56417876   3.711   6.102   5.357  0.3795  0.2670  0.3328
   17MOL   O56517877   3.689   6.007   5.258  0.3298 -0.3167 -0.0177
   17MOL   C56617878   3.727   6.079   5.492  0.0306 -0.4263 -0.2130
   17MOL   C56717879   3.777   6.182   5.575  0.5689 -0.6160 -0.2721
   17MOL   C56817880   3.640   6.558   5.610 -0.2017  0.8317  0.8843
   17MOL   C56917881   3.575   6.684   5.620 -0.2069 -0.3126  0.3733
   17MOL   C57017882   3.428   7.080   5.731 -0.2130  0.2027  0.7092
   17MOL   C57117883   3.371   7.141   5.842  0.3256  1.1828  0.3971
   17MOL   C57217884   3.196   7.440   6.047 -0.7105  0.2750 -0.1274
   17MOL   C57317885   3.183   7.582   6.018 -0.3260 -0.2156  0.2579
   17MOL   H57417886   3.497   7.646   5.914 -1.4663  2.2443  0.9782
   17MOL   H57517887   3.527   7.412   5.987 -0.1165  0.3903  1.3486
   17MOL   H57617888   3.540   6.977   6.088  0.2425 -2.2793 -0.2199
   17MOL   H57717889   3.666   6.888   5.892 -0.1027 -1.3548  0.2112
   17MOL   H57817890   3.844   6.875   5.705 -0.7151  1.1803 -0.5761
   17MOL   H57917891   3.961   6.661   5.668 -0.5220 -2.0359 -0.6082
   17MOL   H58017892   4.067   6.493   5.632 -0.7957 -0.6160  0.0800
   17MOL   H58117893   3.988   6.486   5.475 -0.3368 -1.9639 -1.9728
   17MOL   H58217894   4.045   6.335   5.558  1.3683  1.4278 -0.0521
   17MOL   H58317895   3.799   6.335   5.824  0.7332 -1.4022  0.9718
   17MOL   H58417896   3.962   6.280   5.758 -2.1632 -1.5833 -0.3765
   17MOL   H58517897   3.929   6.441   5.818 -1.4929  2.6136 -2.0832
   17MOL   H58617898   3.758   6.448   5.379  1.3399  1.1686  2.2362
   17MOL   H58717899   3.698   6.259   5.211  0.8899  2.9831  0.7085
   17MOL   H58817900   3.718   5.981   5.536 -2.9675  1.4179  3.6068
   17MOL   H58917901   3.804   6.140   5.671  1.5696 -2.6180 -1.4144
   17MOL   H59017902   3.579   6.475   5.576 -0.1476  1.0698  0.1979
   17MOL   H59117903   3.468   6.689   5.609 -0.4882  0.0059  2.9418
   17MOL   H59217904   3.401   7.111   5.631  2.4354  0.5412  0.0572
   17MOL   H59317905   3.295   7.215   5.824 -0.5709 -0.2618 -2.0384
   17MOL   H59417906   3.115   7.383   6.091  0.5343 -0.8031  0.8080
   17MOL   H59517907   3.085   7.628   6.022  0.4384  1.3254  1.7622
   17MOL   C59617908   3.733   5.879   5.276  0.5024 -0.6086 -0.4059
   17MOL   C59717909   3.853   5.847   5.202  0.0135 -0.5282  0.0595
   17MOL   C59817910   3.891   5.714   5.203 -0.6412  0.0263 -0.1532
   17MOL   C59917911   3.827   5.622   5.291 -0.7733  0.1314  0.0575
   17MOL   S60017912   3.894   5.451   5.294  0.1029 -0.4890  0.1772
   17MOL   O60117913   3.935   5.420   5.156 -0.3282 -0.2054  0.2402
   17MOL   O60217914   3.797   5.366   5.364 -0.0184  0.3938 -0.5093
   17MOL   C60317915   4.040   5.453   5.395 -0.2428 -0.5759 -0.1695
   17MOL   C60417916   4.126   5.343   5.386  0.5056 -0.3078 -0.2887
   17MOL   C60517917   4.247   5.342   5.461  0.7166 -0.3873 -0.2140
   17MOL   C60617918   4.284   5.455   5.538 -0.4239 -0.2861 -0.2818
   17MOL   O60717919   4.396   5.457   5.618  0.6526 -0.6305 -0.1979
   17MOL   C60817920   4.493   5.538   5.567 -0.4982  0.0362  0.8597
   17MOL   C60917921   4.527   5.662   5.626  0.3666  0.8106  0.4757
   17MOL   C61017922   4.624   5.746   5.564 -0.0416  0.2411 -0.0859
   17MOL   C61117923   4.705   5.699   5.457  0.0254  0.6688  0.6165
   17MOL   C61217924   4.821   5.781   5.391  0.3247 -0.5430 -0.1795
   17MOL   C61317925   4.946   5.698   5.392 -0.5014 -1.0490 -0.1946
   17MOL   C61417926   4.793   5.810   5.242 -0.0767 -0.4260  0.1202
   17MOL   C61517927   4.830   5.910   5.476  0.0561  0.1866  0.2277
   17MOL   C61617928   4.740   6.016   5.447 -0.0593 -0.6666 -1.4052
   17MOL   C61717929   4.732   6.119   5.543  0.3846  0.2504 -0.1152
   17MOL   C61817930   4.823   6.140   5.642 -0.2705 -0.2831  0.5431
   17MOL   O61917931   4.800   6.240   5.728 -0.2957 -0.1655  0.7883
   17MOL   C62017932   4.925   6.044   5.660  0.8086 -0.2837  0.5548
   17MOL   C62117933   4.926   5.924   5.583  0.1832 -0.2508  0.5597
   17MOL   C62217934   4.673   5.572   5.406  0.1795  0.5037  1.0931
   17MOL   C62317935   4.571   5.491   5.455 -0.0174 -0.0690 -0.2167
   17MOL   C62417936   4.199   5.568   5.530  0.2692  0.7243  0.4019
   17MOL   C62517937   4.078   5.573   5.459  0.8534 -0.2243  0.6377
   17MOL   C62617938   3.728   5.659   5.376 -0.6972  0.0105  0.5626
   17MOL   C62717939   3.671   5.786   5.358 -0.3872 -0.0831  0.4805
   17MOL   H62817940   3.911   5.917   5.144  1.7774 -2.1170 -0.1422
   17MOL   H62917941   3.968   5.677   5.138  0.1325 -2.4387  2.0935
   17MOL   H63017942   4.118   5.262   5.316  1.2969  1.0327 -1.9630
   17MOL   H63117943   4.311   5.256   5.449  2.9763  0.9825  1.5609
   17MOL   H63217944   4.471   5.714   5.702 -0.3234  0.6166  0.1072
   17MOL   H63317945   4.619   5.840   5.617 -5.4034 -2.1800  4.0830
   17MOL   H63417946   4.939   5.605   5.336  1.0229 -1.2021 -0.1525
   17MOL   H63517947   4.985   5.677   5.492 -0.4757  1.0935  0.2756
   17MOL   H63617948   5.023   5.756   5.340 -0.6847 -0.9137 -0.3158
   17MOL   H63717949   4.689   5.839   5.224 -0.3605 -1.1872  0.5009
   17MOL   H63817950   4.861   5.889   5.211  1.6062 -2.0601 -0.4383
   17MOL   H63917951   4.813   5.723   5.180 -1.2017 -1.3357  1.0080
   17MOL   H64017952   4.672   6.011   5.364 -0.3705  1.8355 -1.3387
   17MOL   H64117953   4.655   6.193   5.529  0.0663  0.0593  0.5986
   17MOL   H64217954   4.999   6.059   5.738  0.7703 -0.0193  0.5393
   17MOL   H64317955   4.997   5.845   5.601 -1.2665 -1.8279 -0.4810
   17MOL   H64417956   4.715   5.530   5.316  0.4126  2.1191  0.4402
   17MOL   H64517957   4.549   5.397   5.406  0.0029  0.2126 -0.7738
   17MOL   H64617958   4.215   5.655   5.593 -0.1274  0.0170  1.4874
   17MOL   H64717959   4.020   5.664   5.454 -1.2497 -1.5006  1.2463
   17MOL   H64817960   3.700   5.588   5.452 -1.1416  0.5931  0.9460
   17MOL   H64917961   3.583   5.804   5.417 -0.1462 -0.1486  0.8621
   17MOL   C65017962   4.688   6.243   5.807 -0.8330 -0.6754 -0.6746
   17MOL   C65117963   4.631   6.126   5.861 -0.5756 -0.0599  0.4166
   17MOL   C65217964   4.518   6.127   5.945  0.8709 -0.6468  0.1952
   17MOL   C65317965   4.465   6.250   5.990 -0.4895 -0.7770  0.2667
   17MOL   S65417966   4.317   6.254   6.082  0.0592  0.0341  0.0502
   17MOL   O65517967   4.219   6.176   6.007  0.0018  0.3385 -0.1155
   17MOL   O65617968   4.288   6.393   6.118  0.0934 -0.1121  0.2610
   17MOL   C65717969   4.373   6.162   6.233  0.1911  0.6722  0.4003
   17MOL   C65817970   4.500   6.170   6.292  0.3084 -0.1098  0.4642
   17MOL   C65917971   4.525   6.107   6.414  0.1545  0.0779 -0.9549
   17MOL   C66017972   4.421   6.026   6.475 -0.1901  0.4273  0.0485
   17MOL   O66117973   4.446   5.967   6.600 -0.2227 -0.3369  0.0060
   17MOL   C66217974   4.490   5.834   6.607  0.4070 -0.5602 -0.0483
   17MOL   C66317975   4.525   5.790   6.736  0.1857 -0.1981  0.1184
   17MOL   C66417976   4.575   5.658   6.751  0.1189  0.2877 -0.2057
   17MOL   C66517977   4.589   5.571   6.641 -0.6063 -0.1600 -0.0643
   17MOL   C66617978   4.646   5.431   6.666 -0.6133 -0.2144  0.2196
   17MOL   C66717979   4.524   5.339   6.697 -0.3537 -0.2890 -0.4879
   17MOL   C66817980   4.720   5.371   6.538 -0.0837  0.2935 -0.5072
   17MOL   C66917981   4.753   5.432   6.775  0.0932  0.3249  0.4943
   17MOL   C67017982   4.774   5.322   6.856 -0.2201 -0.2517  0.5375
   17MOL   C67117983   4.869   5.319   6.956 -0.0220 -0.2396  0.3867
   17MOL   C67217984   4.961   5.425   6.969 -0.2995  0.1457 -0.7512
   17MOL   O67317985   5.066   5.418   7.067 -0.1803 -0.3288  0.2552
   17MOL   C67417986   4.951   5.537   6.882 -0.6981 -0.4163 -1.0471
   17MOL   C67517987   4.844   5.542   6.785  0.3325  0.8404 -0.4276
   17MOL   C67617988   4.561   5.623   6.516  0.7623  0.7945  0.2455
   17MOL   C67717989   4.511   5.752   6.494 -0.7784 -0.5079  0.2293
   17MOL   C67817990   4.291   6.020   6.426  0.4518 -0.1824 -0.1338
   17MOL   C67917991   4.273   6.087   6.302  0.8261 -0.5308 -0.2689
   17MOL   C68017992   4.531   6.370   5.943  0.2032 -0.1487 -0.3408
   17MOL   C68117993   4.638   6.367   5.847 -0.1022  0.9256 -0.5403
   17MOL   H68217994   4.673   6.032   5.827  3.1636  1.5437  0.3573
   17MOL   H68317995   4.479   6.030   5.972  0.1351 -0.1714  0.8870
   17MOL   H68417996   4.585   6.228   6.260 -0.5180 -0.4347 -2.4800
   17MOL   H68517997   4.623   6.108   6.460 -0.3151 -1.9384  0.1486
   17MOL   H68617998   4.525   5.851   6.825 -2.3299  0.9590 -0.6155
   17MOL   H68717999   4.606   5.621   6.848 -1.3307 -3.1576 -0.9932
   17MOL   H68818000   4.462   5.362   6.784 -1.5732 -0.7674 -1.2201
   17MOL   H68918001   4.560   5.238   6.716  1.7485  0.5642  0.2089
   17MOL   H69018002   4.454   5.330   6.614 -1.1445 -0.0183  0.1377
   17MOL   H69118003   4.769   5.278   6.565  1.5683  0.5724 -2.4048
   17MOL   H69218004   4.656   5.353   6.451 -1.1570 -0.0920  0.3567
   17MOL   H69318005   4.790   5.447   6.503  1.1184 -0.7069 -0.2924
   17MOL   H69418006   4.726   5.229   6.829  2.8427 -1.4368 -0.9922
   17MOL   H69518007   4.879   5.237   7.026 -0.0742  0.5076  1.2830
   17MOL   H69618008   5.029   5.611   6.884 -0.0618 -0.9807 -3.2261
   17MOL   H69718009   4.847   5.625   6.717 -1.0815  0.8568 -0.4886
   17MOL   H69818010   4.570   5.556   6.431  2.2901  1.8841 -0.4682
   17MOL   H69918011   4.502   5.783   6.391  1.8150  1.6734  0.5915
   17MOL   H70018012   4.218   5.964   6.482 -0.3940  0.3719 -0.6678
   17MOL   H70118013   4.173   6.078   6.262 -0.3094 -2.4904  2.8593
   17MOL   H70218014   4.497   6.466   5.981 -0.2289 -0.4613  0.0774
   17MOL   H70318015   4.684   6.459   5.816 -1.3071  1.0834 -1.9368
   17MOL   C70418016   5.105   5.540   7.125  0.2976  0.6098  0.2137
   17MOL   C70518017   5.233   5.589   7.102  0.3271  0.0739 -0.0233
   17MOL   C70618018   5.290   5.686   7.183  0.3781 -0.5488  0.1887
   17MOL   C70718019   5.210   5.741   7.286  0.2803  0.4285 -0.1228
   17MOL   S70818020   5.280   5.867   7.393  0.1950  0.0724 -0.1085
   17MOL   O70918021   5.346   5.795   7.505 -0.5447  0.0010  0.3060
   17MOL   O71018022   5.168   5.957   7.426  0.1253 -0.2692 -0.3539
   17MOL   C71118023   5.396   5.960   7.290 -0.4177  0.6189 -0.3736
   17MOL   C71218024   5.535   5.925   7.292 -0.2050  0.1915  1.0876
   17MOL   C71318025   5.628   5.990   7.210  0.0237  0.7273 -0.0178
   17MOL   C71418026   5.582   6.089   7.117 -0.1605  0.1183  0.8332
   17MOL   O71518027   5.680   6.153   7.043 -0.1025 -0.0602 -0.0340
   17MOL   C71618028   5.679   6.288   7.052 -0.1785  0.8500  0.1140
   17MOL   C71718029   5.671   6.365   6.936  0.1382  0.3967 -0.1010
   17MOL   C71818030   5.668   6.509   6.942 -0.4477  0.3443  0.4324
   17MOL   C71918031   5.680   6.584   7.061 -0.3889  0.0483 -0.4947
   17MOL   C72018032   5.688   6.739   7.061  0.5311  0.4107  0.1655
   17MOL   C72118033   5.619   6.792   7.190 -0.1406 -0.3935  0.3207
   17MOL   C72218034   5.834   6.788   7.072  0.2729 -0.4160  0.0021
   17MOL   C72318035   5.621   6.800   6.939 -0.2262  0.3240 -0.2085
   17MOL   C72418036   5.695   6.846   6.829  1.1618  0.0619  0.1963
   17MOL   C72518037   5.629   6.909   6.719  0.0451  0.9719  0.4261
   17MOL   C72618038   5.489   6.915   6.725  0.4034  0.2992  0.1030
   17MOL   O72718039   5.421   6.955   6.614  0.3685  0.2768  0.0790
   17MOL   C72818040   5.417   6.861   6.828 -0.0509 -0.0003 -0.0775
   17MOL   C72918041   5.481   6.799   6.936 -0.7460  1.6373 -0.0297
   17MOL   C73018042   5.689   6.498   7.178 -0.4450  0.3142 -0.6238
   17MOL   C73118043   5.699   6.355   7.168  0.3953  0.9116  0.0099
   17MOL   C73218044   5.442   6.121   7.107  0.7225  0.0146  0.1438
   17MOL   C73318045   5.351   6.054   7.192  0.7149 -0.0835 -0.5766
   17MOL   C73418046   5.076   5.707   7.300  0.9453  0.9067 -0.4609
   17MOL   C73518047   5.025   5.600   7.224 -0.2876  0.1092 -0.0149
   17MOL   H73618048   5.294   5.538   7.029  1.2401 -0.3753  1.0423
   17MOL   H73718049   5.388   5.722   7.153  0.5072 -0.0329  1.2128
   17MOL   H73818050   5.556   5.839   7.355  0.1149 -0.2337  0.4070
   17MOL   H73918051   5.729   5.952   7.214 -0.6068 -0.9115  0.9381
   17MOL   H74018052   5.664   6.313   6.841  1.8763 -0.8644  0.4407
   17MOL   H74118053   5.650   6.563   6.851 -1.3600  1.3769  1.2121
   17MOL   H74218054   5.622   6.901   7.188  1.3990 -0.4428 -0.7320
   17MOL   H74318055   5.669   6.752   7.279 -1.8688 -3.9237 -0.2125
   17MOL   H74418056   5.518   6.754   7.208 -0.3148 -0.7930 -1.4208
   17MOL   H74518057   5.833   6.894   7.100  0.4026  0.6516 -3.8125
   17MOL   H74618058   5.891   6.751   7.157  0.0048  2.5879  1.5729
   17MOL   H74718059   5.893   6.764   6.984  0.3348  1.9484 -0.6457
   17MOL   H74818060   5.802   6.837   6.817  1.2711  0.3042  0.9816
   17MOL   H74918061   5.673   6.944   6.627  0.8296 -0.4083  0.2739
   17MOL   H75018062   5.310   6.853   6.831 -0.1310  0.2266 -1.8555
   17MOL   H75118063   5.430   6.749   7.017 -0.2414 -3.8362 -2.8257
   17MOL   H75218064   5.702   6.535   7.279  0.5450  2.2757 -1.4355
   17MOL   H75318065   5.721   6.303   7.260 -1.1385  0.5078  0.1584
   17MOL   H75418066   5.402   6.193   7.036 -1.9870 -0.6505  0.9355
   17MOL   H75518067   5.249   6.091   7.187  0.8944  0.2786 -1.7401
   17MOL   H75618068   5.022   5.763   7.374 -0.0804  0.4530 -0.8406
   17MOL   H75718069   4.921   5.578   7.243 -0.1653 -0.8246 -0.4109
   17MOL   C75818070   5.393   7.091   6.598 -0.6069 -0.0080 -0.6390
   17MOL   C75918071   5.456   7.151   6.484  0.5194 -0.0621  0.7443
   17MOL   C76018072   5.425   7.286   6.455  0.3435 -0.4458  0.5902
   17MOL   C76118073   5.328   7.353   6.536  0.0394  0.2800  0.1284
   17MOL   S76218074   5.279   7.519   6.509 -0.0059  0.2754 -0.2135
   17MOL   O76318075   5.355   7.584   6.397  0.3103  0.4588  0.2912
   17MOL   O76418076   5.280   7.592   6.636 -0.0695 -0.2419 -0.5087
   17MOL   C76518077   5.101   7.510   6.447 -0.4045  0.0754  0.4958
   17MOL   C76618078   5.004   7.589   6.510 -0.0405 -0.5133  0.6402
   17MOL   C76718079   4.868   7.584   6.469 -0.8712  0.1373 -0.0791
   17MOL   C76818080   4.833   7.493   6.369  1.0907 -1.0153 -0.2206
   17MOL   O76918081   4.699   7.485   6.345  0.1108  0.0393  0.5224
   17MOL   C77018082   4.644   7.366   6.358  0.0752  0.5975  0.7104
   17MOL   C77118083   4.634   7.287   6.240 -0.0290 -0.2015  0.1443
   17MOL   C77218084   4.581   7.157   6.253 -0.8452 -0.2295 -0.3521
   17MOL   C77318085   4.530   7.112   6.381 -0.8669  0.4910 -0.1093
   17MOL   C77418086   4.467   6.973   6.396  0.7052  0.2326 -0.7161
   17MOL   C77518087   4.590   6.877   6.415  0.2708 -0.4734  0.6983
   17MOL   C77618088   4.374   6.962   6.523  0.0357 -0.2334 -0.6543
   17MOL   C77718089   4.379   6.944   6.277 -0.3239  0.1375 -0.3067
   17MOL   C77818090   4.288   7.032   6.221  0.2437  0.6675  0.5043
   17MOL   C77918091   4.204   7.000   6.109 -0.1471  0.2278  0.9988
   17MOL   C78018092   4.201   6.867   6.062  0.0535  0.5521 -0.3358
   17MOL   O78118093   4.097   6.834   5.977  0.3829  0.6612 -0.2403
   17MOL   C78218094   4.288   6.776   6.119 -0.9729 -0.1010  0.2318
   17MOL   C78318095   4.384   6.814   6.217  0.2538  0.4869  0.0479
   17MOL   C78418096   4.542   7.194   6.494 -1.0354  0.0892  0.0908
   17MOL   C78518097   4.592   7.326   6.479  0.3700 -0.4671 -0.0986
   17MOL   C78618098   4.928   7.423   6.297 -0.5384  0.2431  0.0379
   17MOL   C78718099   5.061   7.430   6.339 -0.3725  0.2019 -0.5093
   17MOL   C78818100   5.264   7.288   6.644  0.0360 -0.8784  0.1146
   17MOL   C78918101   5.294   7.154   6.674 -0.5782  0.2446  0.1461
   17MOL   H79018102   5.518   7.095   6.416 -1.5912 -0.9696 -0.5091
   17MOL   H79118103   5.466   7.326   6.364  0.2253  0.3187  0.8710
   17MOL   H79218104   5.039   7.660   6.583  2.6555  1.6296 -2.5753
   17MOL   H79318105   4.801   7.657   6.512 -1.6976 -0.0199 -1.0677
   17MOL   H79418106   4.661   7.317   6.140 -1.1952 -0.6405 -0.3045
   17MOL   H79518107   4.575   7.093   6.167 -0.3557 -0.2769 -0.3491
   17MOL   H79618108   4.664   6.917   6.484 -1.0105  1.9965  0.7030
   17MOL   H79718109   4.633   6.856   6.317 -0.5483 -1.1190  0.4682
   17MOL   H79818110   4.554   6.783   6.456  1.2410 -1.6294 -1.0270
   17MOL   H79918111   4.425   6.966   6.620  0.2037 -2.1163 -0.6517
   17MOL   H80018112   4.306   7.047   6.517  1.7239  1.1701 -0.4517
   17MOL   H80118113   4.307   6.876   6.522 -2.6748  1.6525  3.3096
   17MOL   H80218114   4.282   7.128   6.271 -0.3107  1.0162 -0.2255
   17MOL   H80318115   4.132   7.074   6.076  0.2296  0.1850  0.0656
   17MOL   H80418116   4.290   6.681   6.068 -0.6548 -1.0173  1.9202
   17MOL   H80518117   4.446   6.732   6.249  1.1781 -0.0114 -2.8596
   17MOL   H80618118   4.510   7.162   6.593 -0.9751 -0.5488 -0.0968
   17MOL   H80718119   4.596   7.393   6.564  2.6230 -1.1139  0.3367
   17MOL   H80818120   4.896   7.360   6.215 -0.9743  0.0699  0.3401
   17MOL   H80918121   5.129   7.362   6.290 -0.6967  0.7332 -1.7005
   17MOL   H81018122   5.173   7.329   6.686 -0.9479 -2.0464 -0.8071
   17MOL   H81118123   5.234   7.106   6.750 -1.7956 -1.0396 -1.5628
   17MOL   C81218124   3.996   6.765   6.037  0.2458  0.1903  0.3339
   17MOL   C81318125   4.004   6.624   6.032 -0.2580 -0.1895  0.3141
   17MOL   C81418126   3.889   6.550   6.059 -0.1538 -0.7065 -0.7688
   17MOL   C81518127   3.780   6.615   6.119 -0.0449 -0.0740 -0.5578
   17MOL   S81618128   3.639   6.511   6.178 -0.0133 -0.1579  0.1974
   17MOL   O81718129   3.650   6.500   6.324  0.0506  0.2457  0.6588
   17MOL   O81818130   3.640   6.391   6.093 -0.5745 -0.6082  0.0071
   17MOL   C81918131   3.486   6.601   6.153 -0.6319  0.0709  0.9779
   17MOL   C82018132   3.466   6.653   6.025  0.5900 -1.0674  0.1904
   17MOL   C82118133   3.360   6.741   5.998  0.4232 -0.9051 -0.0855
   17MOL   C82218134   3.279   6.776   6.107  0.1761 -0.5544 -0.2845
   17MOL   O82318135   3.182   6.866   6.086  0.0430  0.2330 -0.3621
   17MOL   C82418136   3.055   6.813   6.093  0.0211  0.0265 -0.5958
   17MOL   C82518137   2.993   6.751   5.991 -0.1839  1.1768  0.5853
   17MOL   C82618138   2.866   6.691   6.009 -0.5302  0.0421  0.2964
   17MOL   C82718139   2.792   6.700   6.127  0.5304  0.3504  0.7815
   17MOL   C82818140   2.656   6.631   6.147  0.2769 -0.4983  0.2820
   17MOL   C82918141   2.676   6.495   6.217 -0.2354  0.6057  0.4266
   17MOL   C83018142   2.556   6.704   6.245  0.5563 -0.8361 -0.5004
   17MOL   C83118143   2.579   6.625   6.015  0.5419  0.3512  0.0093
   17MOL   C83218144   2.544   6.742   5.944 -0.6341  0.3422  0.2649
   17MOL   C83318145   2.467   6.740   5.824 -0.1089 -0.9495  0.1418
   17MOL   C83418146   2.431   6.622   5.760  0.3400  0.0193 -0.3878
   17MOL   O83518147   2.369   6.635   5.641 -0.1928 -0.1308 -0.1654
   17MOL   C83618148   2.469   6.502   5.821  0.8169 -0.4178 -0.6411
   17MOL   C83718149   2.535   6.505   5.950  0.2274 -0.3575  0.2168
   17MOL   C83818150   2.859   6.770   6.230  0.3044 -0.4770 -0.4632
   17MOL   C83918151   2.981   6.834   6.210  0.2404 -0.5608 -0.3185
   17MOL   C84018152   3.293   6.715   6.231  0.1874  0.5467  0.2973
   17MOL   C84118153   3.394   6.626   6.255  0.2961 -0.1665  0.6240
   17MOL   C84218154   3.776   6.752   6.133 -0.8430 -0.0683  0.1486
   17MOL   C84318155   3.879   6.833   6.085 -0.6416 -0.2795 -0.6581
   17MOL   H84418156   4.088   6.566   5.996 -1.2861 -1.1794 -0.5119
   17MOL   H84518157   3.900   6.444   6.047  1.1264 -0.5623 -0.9350
   17MOL   H84618158   3.548   6.632   5.958  1.8801  3.3194  0.2314
   17MOL   H84718159   3.337   6.774   5.898  3.9508 -1.9324 -1.3184
   17MOL   H84818160   3.045   6.737   5.898 -0.3405 -2.0510  0.9211
   17MOL   H84918161   2.822   6.639   5.925 -0.7173  0.6153  0.0391
   17MOL   H85018162   2.726   6.504   6.313  0.1461  1.5185  0.1435
   17MOL   H85118163   2.736   6.437   6.147 -1.3897 -0.4530  0.2655
   17MOL   H85218164   2.582   6.440   6.229  0.9335 -1.4990  0.1896
   17MOL   H85318165   2.582   6.704   6.351 -0.5406  1.0770 -0.2102
   17MOL   H85418166   2.547   6.806   6.208  3.2040 -0.0550  0.8667
   17MOL   H85518167   2.460   6.653   6.237  0.1313 -0.2170  0.5475
   17MOL   H85618168   2.574   6.838   5.983 -1.4053 -0.2663  2.4062
   17MOL   H85718169   2.439   6.836   5.781 -2.3886 -1.4169  0.4863
   17MOL   H85818170   2.447   6.409   5.772  0.0824 -0.3917 -0.3550
   17MOL   H85918171   2.550   6.409   5.997  4.6413 -1.0436 -2.3697
   17MOL   H86018172   2.817   6.774   6.330 -0.0938  0.2443 -0.6496
   17MOL   H86118173   3.023   6.893   6.291 -0.3071 -0.1401 -0.3388
   17MOL   H86218174   3.219   6.723   6.310  1.0939 -1.9543  1.4338
   17MOL   H86318175   3.411   6.585   6.353  1.5002  0.6735  0.7752
   17MOL   H86418176   3.688   6.789   6.184  1.1228  1.6229  2.3897
   17MOL   H86518177   3.876   6.940   6.095  0.9010 -0.2145 -0.7694
   17MOL   C86618178   2.448   6.638   5.531 -0.7718 -0.7004 -0.2170
   17MOL   C86718179   2.416   6.743   5.439  0.0162 -0.8923  0.1107
   17MOL   C86818180   2.493   6.753   5.317 -0.7573  0.3169 -0.1529
   17MOL   C86918181   2.599   6.658   5.292 -0.6780  0.0364 -0.0905
   17MOL   S87018182   2.698   6.659   5.140  0.4050  0.8268 -0.1446
   17MOL   O87118183   2.703   6.794   5.079 -0.0131 -1.0429  0.3192
   17MOL   O87218184   2.658   6.546   5.052  0.1626 -0.0941  0.2826
   17MOL   C87318185   2.869   6.636   5.199  0.4902 -0.8139 -0.0030
   17MOL   C87418186   2.920   6.507   5.200  0.3230 -0.3012  0.2973
   17MOL   C87518187   3.048   6.477   5.238 -0.6651 -0.0250  0.1315
   17MOL   C87618188   3.131   6.587   5.274  0.0744  0.1335  0.0671
   17MOL   O87718189   3.261   6.579   5.318  0.8333  0.6950 -0.4811
   17MOL   C87818190   3.298   6.503   5.428  0.5008 -0.3010 -0.3925
   17MOL   C87918191   3.264   6.552   5.554 -0.7918 -0.0392  0.0351
   17MOL   C88018192   3.298   6.474   5.666 -0.0375 -0.0206 -0.7617
   17MOL   C88118193   3.347   6.339   5.658  0.7439 -0.5085 -0.1807
   17MOL   C88218194   3.353   6.248   5.787 -0.0979 -0.4364  0.1970
   17MOL   C88318195   3.334   6.095   5.746  0.8458 -0.5757 -0.2023
   17MOL   C88418196   3.490   6.261   5.838 -0.8921 -0.5155  0.5053
   17MOL   C88518197   3.234   6.290   5.875 -0.0995  0.6400 -0.4323
   17MOL   C88618198   3.257   6.319   6.012 -0.3904  0.5351 -0.0693
   17MOL   C88718199   3.142   6.334   6.091  0.0538  0.8376  0.4369
   17MOL   C88818200   3.018   6.303   6.046  0.2192  0.3341 -0.2430
   17MOL   O88918201   2.922   6.284   6.142 -0.1624  0.0891  0.2152
   17MOL   C89018202   2.987   6.284   5.913 -0.1949 -0.6796  0.2519
   17MOL   C89118203   3.098   6.291   5.824  0.4835  0.1062  0.2133
   17MOL   C89218204   3.370   6.292   5.526  0.0301  0.6928  0.3799
   17MOL   C89318205   3.343   6.372   5.413  0.4366 -0.1405  0.1322
   17MOL   C89418206   3.076   6.718   5.282 -0.1542 -0.1103  0.1802
   17MOL   C89518207   2.942   6.740   5.241  0.0561  0.2547  0.2175
   17MOL   C89618208   2.628   6.560   5.383  0.0608  0.3362  0.6409
   17MOL   C89718209   2.562   6.551   5.507 -0.9156 -0.4159  0.2565
   17MOL   H89818210   2.337   6.813   5.460 -0.9217 -1.3916 -1.6296
   17MOL   H89918211   2.495   6.828   5.240  0.7684  0.9860  0.5167
   17MOL   H90018212   2.853   6.425   5.180  1.3184 -0.9765 -0.2948
   17MOL   H90118213   3.088   6.377   5.237 -1.1223 -0.2236 -2.2828
   17MOL   H90218214   3.234   6.654   5.573  1.3318  0.5942  0.0814
   17MOL   H90318215   3.277   6.515   5.763  0.8966  0.5657 -0.7982
   17MOL   H90418216   3.419   6.061   5.686  1.0922  0.7548 -0.6181
   17MOL   H90518217   3.240   6.075   5.695 -0.1870 -1.7794  2.0923
   17MOL   H90618218   3.332   6.028   5.832  2.4472  0.3807  0.5844
   17MOL   H90718219   3.566   6.230   5.767 -1.9829 -0.2609 -0.7918
   17MOL   H90818220   3.501   6.369   5.851  1.1434 -0.5146 -1.0445
   17MOL   H90918221   3.513   6.208   5.930 -0.9362 -3.2141 -0.9952
   17MOL   H91018222   3.356   6.331   6.052  0.8186 -2.9969 -1.7480
   17MOL   H91118223   3.158   6.376   6.189  1.7500  0.0551  0.5265
   17MOL   H91218224   2.887   6.267   5.877 -0.3463 -0.8338  0.7453
   17MOL   H91318225   3.085   6.271   5.719 -0.7696  2.1270 -0.0453
   17MOL   H91418226   3.400   6.189   5.520 -1.3544  0.3951 -2.0535
   17MOL   H91518227   3.373   6.339   5.314 -1.0995 -2.1897  0.3172
   17MOL   H91618228   3.144   6.796   5.312  1.2233 -0.7940 -1.0547
   17MOL   H91718229   2.897   6.838   5.242  1.7621  1.1639 -3.6188
   17MOL   H91818230   2.708   6.493   5.353  0.5713  1.4561 -0.5700
   17MOL   H91918231   2.579   6.472   5.579 -2.2525 -0.3508  0.6639
   17MOL   C92018232   2.928   6.161   6.202 -0.1967  0.6302 -0.1237
   17MOL   C92118233   2.939   6.158   6.342 -0.0068 -1.2901  0.5852
   17MOL   C92218234   2.953   6.041   6.408 -0.3743  0.4077 -0.7202
   17MOL   C92318235   2.955   5.921   6.341  0.4216 -0.1930 -0.5173
   17MOL   S92418236   2.951   5.772   6.441 -0.1303 -0.1410 -0.2664
   17MOL   O92518237   2.906   5.657   6.365 -0.3259 -0.4818 -0.3810
   17MOL   O92618238   2.873   5.805   6.566 -0.5437  0.1779 -0.0817
   17MOL   C92718239   3.130   5.734   6.465 -1.0037  0.5169  0.6491
   17MOL   C92818240   3.216   5.703   6.352  0.6033 -0.6335  0.7793
   17MOL   C92918241   3.354   5.658   6.368  0.3274 -0.5128  0.1805
   17MOL   C93018242   3.405   5.653   6.494  0.4265 -0.8228 -0.0613
   17MOL   O93118243   3.535   5.609   6.510 -0.2939  0.2453 -0.0177
   17MOL   C93218244   3.627   5.685   6.575 -0.7282 -1.0395  0.8785
   17MOL   C93318245   3.629   5.828   6.571 -0.1620 -0.1542 -1.5785
   17MOL   C93418246   3.728   5.898   6.646  0.5266 -0.2177  0.2478
   17MOL   C93518247   3.829   5.824   6.712  0.0560  0.0741 -0.1524
   17MOL   C93618248   3.937   5.902   6.789 -0.2228  0.3185 -0.4317
   17MOL   C93718249   4.071   5.826   6.792 -0.0299  0.1142  0.4510
   17MOL   C93818250   3.966   6.033   6.712  0.6089 -0.0122 -0.2886
   17MOL   C93918251   3.890   5.927   6.934  0.1420  0.9004 -0.2283
   17MOL   C94018252   3.865   6.055   6.989  0.2287  0.0273  0.9763
   17MOL   C94118253   3.827   6.069   7.123  0.3479  0.1592  0.2579
   17MOL   C94218254   3.817   5.957   7.208 -0.7554 -0.3303  0.6522
   17MOL   O94318255   3.791   5.982   7.341 -0.4526  0.2927  0.7605
   17MOL   C94418256   3.846   5.829   7.161 -0.1396  0.2242 -0.2316
   17MOL   C94518257   3.879   5.810   7.020  0.2703 -0.3701 -0.1121
   17MOL   C94618258   3.823   5.685   6.716 -0.2467 -0.2570  0.1878
   17MOL   C94718259   3.721   5.612   6.648 -0.3148 -0.7939  0.4092
   17MOL   C94818260   3.328   5.689   6.608 -0.5419 -0.0641  0.6981
   17MOL   C94918261   3.194   5.722   6.593 -0.6297 -0.1235  0.2918
   17MOL   C95018262   2.927   5.913   6.204 -0.0720 -0.2790 -0.5261
   17MOL   C95118263   2.913   6.037   6.129  0.7410  0.0323 -1.0518
   17MOL   H95218264   2.951   6.252   6.393  0.3962 -1.9514  1.7385
   17MOL   H95318265   2.967   6.052   6.515  0.9567  0.1822 -0.8631
   17MOL   H95418266   3.171   5.711   6.254  0.3358 -0.6726  0.8980
   17MOL   H95518267   3.416   5.623   6.286 -1.9459 -1.6618 -1.0876
   17MOL   H95618268   3.551   5.883   6.519 -0.7991  0.2122 -0.2509
   17MOL   H95718269   3.718   6.005   6.636 -2.6517 -0.6254 -1.6854
   17MOL   H95818270   4.064   5.727   6.836 -1.0423  0.5534  1.3027
   17MOL   H95918271   4.137   5.876   6.863 -3.1184  4.3532  0.5087
   17MOL   H96018272   4.129   5.818   6.700 -0.8151 -1.8544  0.1046
   17MOL   H96118273   3.988   6.005   6.609 -1.0609  0.4528 -0.7924
   17MOL   H96218274   3.883   6.103   6.718 -1.5410 -2.6021  0.7211
   17MOL   H96318275   4.052   6.090   6.749 -1.2788  1.4865  1.9069
   17MOL   H96418276   3.891   6.148   6.941  2.5069 -0.4973  1.1227
   17MOL   H96518277   3.803   6.168   7.160  2.0592  0.5531  0.3192
   17MOL   H96618278   3.847   5.743   7.227 -0.3648  2.7559  3.1917
   17MOL   H96718279   3.896   5.714   6.974  1.7665  1.5064 -3.6175
   17MOL   H96818280   3.897   5.622   6.764 -0.4047 -1.0904 -0.6462
   17MOL   H96918281   3.710   5.506   6.637  0.8973 -0.9572  0.7308
   17MOL   H97018282   3.374   5.682   6.706  0.2841 -1.5526  0.2196
   17MOL   H97118283   3.130   5.741   6.678 -1.5384 -1.0561 -0.1643
   17MOL   H97218284   2.936   5.817   6.156  0.1465 -1.2549  1.4259
   17MOL   H97318285   2.907   6.034   6.021 -0.1751  3.6406 -1.1479
   17MOL   C97418286   3.902   5.979   7.425  0.4182 -0.1893  0.5636
   17MOL   C97518287   3.914   5.890   7.537  0.1266  0.0700  0.4356
   17MOL   C97618288   4.033   5.883   7.612 -0.3732 -0.4379 -0.0268
   17MOL   C97718289   4.141   5.966   7.574 -0.0607 -0.1302 -0.1494
   17MOL   S97818290   4.290   5.951   7.668  0.5106  0.1590 -0.5096
   17MOL   O97918291   4.389   5.874   7.590 -0.2082 -0.2294  0.4638
   17MOL   O98018292   4.249   5.905   7.800  0.3592  0.1408 -0.0600
   17MOL   C98118293   4.356   6.121   7.697  0.3341  0.2122  0.3130
   17MOL   C98218294   4.269   6.213   7.751  0.4142  0.0300  1.2277
   17MOL   C98318295   4.312   6.346   7.784 -0.6032  0.2084  0.0058
   17MOL   C98418296   4.443   6.387   7.749  0.0881 -0.1483  0.4350
   17MOL   O98518297   4.498   6.512   7.776  0.4459 -0.4338 -0.4952
   17MOL   C98618298   4.496   6.556   7.904 -0.2956 -0.1402 -0.3616
   17MOL   C98718299   4.410   6.668   7.924  0.5882 -0.2206 -1.1559
   17MOL   C98818300   4.400   6.731   8.052  0.1701 -0.2970 -0.4523
   17MOL   C98918301   4.476   6.683   8.159 -0.0563 -0.0654  0.2798
   17MOL   C99018302   4.449   6.737   0.055  0.5447  0.7584  0.4480
   17MOL   C99118303   4.535   6.678   0.168 -0.1515  0.1618 -0.8714
   17MOL   C99218304   4.477   6.893   0.058  0.1554  0.3995 -0.3331
   17MOL   C99318305   4.304   6.711   0.098  0.1884  0.1607  0.5758
   17MOL   C99418306   4.206   6.814   0.109 -0.0894  0.4621  0.2755
   17MOL   C99518307   4.073   6.784   0.144 -1.0844 -0.6261 -0.1201
   17MOL   C99618308   4.027   6.658   0.166  0.1774  0.2894  0.0497
   17MOL   O99718309   3.899   6.633   0.194  1.0905  0.8609  0.0893
   17MOL   C99818310   4.118   6.552   0.162 -0.0151 -0.5953  0.6324
   17MOL   C99918311   4.253   6.578   0.118  0.0676  0.0129  0.2324
   17MOL     C118312   4.561   6.571   8.141 -0.3945  0.2323  0.7247
   17MOL     C218313   4.577   6.504   8.013 -0.0821  0.2197  0.0122
   17MOL     C318314   4.523   6.295   7.677 -1.1742 -0.3871 -0.2755
   17MOL     C418315   4.487   6.158   7.654  0.4055 -1.0463 -0.0935
   17MOL     C518316   4.131   6.052   7.465 -0.3666 -0.3318  0.3181
   17MOL     C618317   4.015   6.065   7.391  0.3927 -0.4880 -0.3034
   17MOL     H718318   3.831   5.826   7.560 -0.3360  0.2408 -0.7010
   17MOL     H818319   4.032   5.811   7.693  1.2063  1.4785  1.7687
   17MOL     H918320   4.168   6.186   7.777 -0.4248  0.2219 -1.6223
   17MOL    H1018321   4.245   6.415   7.834 -1.7461 -0.9143  0.0699
   17MOL    H1118322   4.363   6.706   7.834 -0.1842  2.2298  0.2330
   17MOL    H1218323   4.346   6.824   8.056  0.4393 -0.2166  1.5676
   17MOL    H1318324   4.514   6.718   0.267  0.1284  2.7630 -1.8214
   17MOL    H1418325   4.641   6.675   0.146  0.0487  2.3437 -0.2485
   17MOL    H1518326   4.520   6.570   0.166  0.5900  0.0446 -0.1810
   17MOL    H1618327   4.584   6.899   0.034  0.3452  0.4521  0.5404
   17MOL    H1718328   4.424   6.959   8.243 -0.2214  1.6096  1.1239
   17MOL    H1818329   4.459   6.930   0.158  1.4974  0.1606  0.0125
   17MOL    H1918330   4.226   6.916   0.081 -0.2224  0.8459  1.5462
   17MOL    H2018331   4.003   6.866   0.153  0.1988  0.4687  0.0777
   17MOL    H2118332   4.082   6.450   0.173 -0.8065 -0.5425 -1.1718
   17MOL    H2218333   4.320   6.496   0.094 -1.7779 -2.0350  1.8712
   17MOL    H2318334   4.622   6.535   8.222  1.6664  0.3090 -0.7350
   17MOL    H2418335   4.648   6.424   8.003  1.6344  1.5552  1.1736
   17MOL    H2518336   4.622   6.315   7.638 -0.3842 -1.4286  1.0902
   17MOL    H2618337   4.557   6.089   7.610  2.6976  1.2767 -0.2503
   17MOL    H2718338   4.211   6.120   7.440  1.0793 -2.3430 -0.7164
   17MOL    H2818339   4.020   6.132   7.306 -2.8488 -0.7964 -0.8090
   17MOL    C2918340   3.865   6.638   0.326 -0.1031 -0.2063 -0.1089
   17MOL    C3018341   3.883   6.749   0.408  0.7115 -0.6254  0.2456
   17MOL    C3118342   3.862   6.738   0.550  0.1811 -0.5247  0.7403
   17MOL    C3218343   3.807   6.619   0.608  0.0484 -0.0801  0.8925
   17MOL    S3318344   3.784   6.596   0.785  0.2768  0.4835  0.2067
   17MOL    O3418345   3.670   6.505   0.811 -0.0585  0.2473  0.7116
   17MOL    O3518346   3.778   6.737   0.836  0.3935  0.3660 -0.3384
   17MOL    C3618347   3.934   6.526   0.855 -0.2927 -0.2912  0.3145
   17MOL    C3718348   4.023   6.454   0.770  0.1883 -0.2493  0.0217
   17MOL    C3818349   4.154   6.421   0.819 -0.9906  0.7795 -0.7324
   17MOL    C3918350   4.184   6.444   0.955  0.4272 -0.4146 -0.3561
   17MOL    O4018351   4.311   6.411   0.997  0.3097  0.1021 -0.1711
   17MOL    C4118352   4.328   6.295   1.070 -0.3287  0.0537  0.4144
   17MOL    C4218353   4.443   6.286   1.150 -0.2669 -0.2098  0.4988
   17MOL    C4318354   4.472   6.185   1.241  1.0193  0.1010 -0.1222
   17MOL    C4418355   4.386   6.071   1.241 -0.0037  0.0424 -0.6535
   17MOL    C4518356   4.423   5.957   1.338 -0.6810 -0.5201  0.2486
   17MOL    C4618357   4.555   5.896   1.286  0.3702  0.2393 -0.3783
   17MOL    C4718358   4.450   6.018   1.482  0.1087 -0.0748  0.0371
   17MOL    C4818359   4.313   5.845   1.350 -0.8800  0.3667 -0.3009
   17MOL    C4918360   4.219   5.837   1.459  0.0419  0.3567  0.5883
   17MOL    C5018361   4.124   5.730   1.475  0.0380  0.5609  0.2211
   17MOL    C5118362   4.122   5.626   1.378  0.0166  0.0259  0.3638
   17MOL    O5218363   4.026   5.521   1.392 -0.4143 -0.0106 -0.4384
   17MOL    C5318364   4.210   5.644   1.266  1.3038 -0.0164  0.1378
   17MOL    C5418365   4.307   5.751   1.247  0.8688  0.4277  0.0364
   17MOL    C5518366   4.275   6.070   1.155 -0.2330  0.2650 -0.5559
   17MOL    C5618367   4.242   6.185   1.085 -0.1481 -0.3213 -0.3479
   17MOL    C5718368   4.093   6.506   1.043 -0.0701 -0.0533 -0.2599
   17MOL    C5818369   3.973   6.549   0.988  0.0543  0.5535 -0.7484
   17MOL    C5918370   3.774   6.515   0.521 -0.3869  0.6436  0.4128
   17MOL    C6018371   3.807   6.518   0.386 -0.1776 -0.0335  0.0136
   17MOL    H6118372   3.919   6.844   0.370  1.1516 -1.2913 -1.0450
   17MOL    H6218373   3.888   6.819   0.615  0.9481  0.9576 -1.3510
   17MOL    H6318374   3.995   6.442   0.666  0.4558  2.7811 -0.4475
   17MOL    H6418375   4.235   6.383   0.758 -1.5451 -1.0210 -0.3824
   17MOL    H6518376   4.515   6.367   1.145 -0.0360 -0.2641  2.6462
   17MOL    H6618377   4.558   6.187   1.308  1.1017 -1.0925 -0.1847
   17MOL    H6718378   4.622   5.982   1.284  0.7830 -0.0729 -0.0689
   17MOL    H6818379   4.548   5.869   1.181  0.7936 -0.4810 -0.2299
   17MOL    H6918380   4.597   5.821   1.354 -3.5385 -0.7228  1.1128
   17MOL    H7018381   4.364   6.075   1.518  0.4550 -0.0579  0.8589
   17MOL    H7118382   4.474   5.936   1.550 -0.7711 -0.4269 -0.0780
   17MOL    H7218383   4.535   6.085   1.496  0.8924 -1.2451  0.9693
   17MOL    H7318384   4.221   5.920   1.529 -1.3047  0.4824  0.4871
   17MOL    H7418385   4.063   5.712   1.563  0.4223  0.2758  0.4346
   17MOL    H7518386   4.196   5.567   1.191 -0.0915  1.5287 -1.2024
   17MOL    H7618387   4.372   5.754   1.162  0.6741 -0.3090 -0.1390
   17MOL    H7718388   4.208   5.986   1.155  0.2411 -0.1161  0.1136
   17MOL    H7818389   4.149   6.189   1.030 -0.3387 -0.6423 -0.0525
   17MOL    H7918390   4.116   6.522   1.147 -0.8942  0.3710 -0.1416
   17MOL    H8018391   3.909   6.607   1.053  0.0062 -0.7650  0.4262
   17MOL    H8118392   3.737   6.421   0.560 -0.5309 -0.0528 -1.3649
   17MOL    H8218393   3.786   6.432   0.324  0.4097 -0.6483  0.6622
   17MOL    H8318394   4.050   5.443   1.344  2.0116  0.1805  0.3657
   18MOL     C118395   0.949   0.745   0.023 -0.0949 -0.0947  0.4413
   18MOL     C218396   0.905   0.654   8.175  0.3063 -0.2632  0.1502
   18MOL     C318397   0.998   0.593   8.084  0.6818  0.0971 -0.9152
   18MOL     C418398   1.135   0.629   8.096 -0.3629  0.4250 -0.0443
   18MOL     S518399   1.248   0.556   7.970  0.4683 -0.5544 -0.0528
   18MOL     O618400   1.202   0.423   7.937  0.2807  0.6251 -0.8272
   18MOL     O718401   1.381   0.584   8.015  0.2579 -0.2439 -0.3991
   18MOL     C818402   1.222   0.644   7.815 -0.2093 -0.2569  0.7529
   18MOL     C918403   1.093   0.650   7.759  0.7932 -0.3712  0.2124
   18MOL    C1018404   1.075   0.727   7.647 -0.5177  0.9747 -0.0796
   18MOL    C1118405   1.186   0.765   7.565  0.0917 -0.1496 -0.8524
   18MOL    O1218406   1.174   0.822   7.441 -0.1465  0.4379 -0.3167
   18MOL    C1318407   1.082   0.769   7.355 -0.1796  0.8293  0.8355
   18MOL    C1418408   0.974   0.844   7.314 -0.1567  0.8197 -0.5880
   18MOL    C1518409   0.882   0.787   7.217 -0.6552 -0.5634 -0.1415
   18MOL    C1618410   0.895   0.648   7.182  0.5410 -0.5000 -0.5470
   18MOL    C1718411   0.791   0.574   7.099 -0.5726 -0.4230 -0.3421
   18MOL    C1818412   0.707   0.663   7.015  0.1075 -0.2598  0.2079
   18MOL    C1918413   0.864   0.471   7.004 -0.0943  0.2260  0.3285
   18MOL    C2018414   0.699   0.507   7.203 -0.5372 -0.4536  0.2100
   18MOL    C2118415   0.649   0.375   7.188 -0.0480 -0.6281  0.2288
   18MOL    C2218416   0.554   0.331   7.281  0.0417  0.1906  0.3950
   18MOL    C2318417   0.506   0.413   7.388  0.5109  0.8367 -0.5050
   18MOL    O2418418   0.411   0.378   7.481 -0.2476 -0.1855 -0.1345
   18MOL    C2518419   0.567   0.535   7.409  0.4986 -0.0447  0.1077
   18MOL    C2618420   0.659   0.583   7.316 -0.6526  0.0505 -0.0912
   18MOL    C2718421   1.004   0.571   7.237 -0.0297  0.2809 -0.5938
   18MOL    C2818422   1.093   0.635   7.320 -0.3798  0.3975  0.0331
   18MOL    C2918423   1.313   0.753   7.615 -0.0353  0.1156 -0.0537
   18MOL    C3018424   1.329   0.695   7.740  0.1824  0.3747 -0.1144
   18MOL    C3118425   1.181   0.716   8.202 -0.2440  0.1197 -0.1852
   18MOL    C3218426   1.086   0.774   0.042 -0.1754 -0.3940 -0.2320
   18MOL    H3318427   0.800   0.631   8.172  0.9685 -3.2599 -0.9649
   18MOL    H3418428   0.957   0.530   8.006 -2.0174  0.9958 -0.2543
   18MOL    H3518429   1.006   0.600   7.799  0.9312  0.0392  1.0415
   18MOL    H3618430   0.978   0.746   7.604 -1.7524  3.4663  3.5048
   18MOL    H3718431   0.952   0.942   7.353 -0.3442  1.9761 -3.4684
   18MOL    H3818432   0.794   0.839   7.184 -1.0695 -0.8008  0.5801
   18MOL    H3918433   0.661   0.745   7.071 -1.1546 -0.3115 -0.7346
   18MOL    H4018434   0.637   0.592   6.971  0.8275  0.8480 -2.8596
   18MOL    H4118435   0.768   0.707   6.936  1.9824 -0.6123  1.4104
   18MOL    H4218436   0.948   0.507   6.944  0.2254  1.1396  1.3097
   18MOL    H4318437   0.892   0.381   7.060  1.2310 -0.0203 -0.7155
   18MOL    H4418438   0.794   0.438   6.927 -1.9100  0.6077  1.7670
   18MOL    H4518439   0.673   0.313   7.103 -0.9306 -3.7223  2.1637
   18MOL    H4618440   0.510   0.233   7.270 -0.2792  0.5994 -2.2999
   18MOL    H4718441   0.541   0.591   7.498 -0.3973  0.8840 -0.7228
   18MOL    H4818442   0.686   0.687   7.326  0.8087 -0.1920 -1.3737
   18MOL    H4918443   1.016   0.463   7.238 -0.2725  0.2510  1.2628
   18MOL    H5018444   1.174   0.582   7.367 -0.9891 -1.0572 -0.5242
   18MOL    H5118445   1.387   0.806   7.556  0.6327  0.9906  1.5278
   18MOL    H5218446   1.427   0.692   7.786  0.2717  0.6994 -0.2882
   18MOL    H5318447   1.288   0.731   8.208 -0.2419  1.3465 -2.6985
   18MOL    H5418448   1.122   0.847   0.113 -0.1084 -0.8094  0.1659
   18MOL    H5518449   0.877   0.785   0.093  0.0166 -0.7527  0.9336
   18MOL    C5618450   0.292   0.316   7.453  0.4014 -0.5425  0.4806
   18MOL    C5718451   0.228   0.364   7.336  0.9538  0.5203  0.3424
   18MOL    C5818452   0.098   0.316   7.306 -0.3436  0.3244  0.2779
   18MOL    C5918453   0.032   0.226   7.394 -0.2323 -0.1685 -0.3536
   18MOL    S6018454   8.121   0.163   7.371  0.0988  0.0522 -0.3666
   18MOL    O6118455   8.083   0.080   7.487  0.1426  0.0275  0.1880
   18MOL    O6218456   8.116   0.097   7.239 -0.4307 -0.3902 -0.1522
   18MOL    C6318457   8.029   0.317   7.378  0.1222  0.5061 -0.0993
   18MOL    C6418458   8.064   0.413   7.466  0.5807  0.8535  0.2344
   18MOL    C6518459   8.001   0.542   7.460 -0.0991  0.0173  0.0512
   18MOL    C6618460   7.894   0.562   7.372 -0.4516 -0.5937 -0.1019
   18MOL    O6718461   7.836   0.685   7.353 -0.2844 -0.1700 -0.6777
   18MOL    C6818462   7.891   0.754   7.255  0.1596 -0.2275  0.7466
   18MOL    C6918463   8.014   0.820   7.285 -0.6038 -0.1213  0.5145
   18MOL    C7018464   8.062   0.911   7.188 -0.9100  0.2676  0.0014
   18MOL    C7118465   7.986   0.938   7.068  0.1136 -0.4799 -0.7713
   18MOL    C7218466   8.031   1.042   6.964  0.5817  0.1154 -0.4394
   18MOL    C7318467   7.920   1.156   6.983  0.5095  0.0835  0.4146
   18MOL    C7418468   8.167   1.109   6.976  0.1983  0.0975 -0.6050
   18MOL    C7518469   8.027   0.978   6.826  0.1606 -0.0801  0.4092
   18MOL    C7618470   7.966   1.051   6.724  0.4341 -1.2253  0.0182
   18MOL    C7718471   7.971   1.010   6.591  0.3372  0.2262 -0.4413
   18MOL    C7818472   8.035   0.891   6.551 -0.3331 -0.4062 -0.8897
   18MOL    O7918473   8.042   0.842   6.425 -0.5044  0.0027  0.3269
   18MOL    C8018474   8.117   0.828   6.655  0.6189 -0.1488 -0.0254
   18MOL    C8118475   8.110   0.871   6.791 -0.3383 -0.2586  0.6155
   18MOL    C8218476   7.870   0.865   7.045 -0.2061  0.1777  0.3119
   18MOL    C8318477   7.820   0.777   7.138  1.1231 -0.6167 -0.0421
   18MOL    C8418478   7.855   0.464   7.280  0.1354  0.2880  0.1523
   18MOL    C8518479   7.922   0.339   7.284 -0.0496  0.4498 -0.3595
   18MOL    C8618480   0.096   0.184   7.511  0.3474 -0.3258 -0.0578
   18MOL    C8718481   0.228   0.221   7.542 -0.2316 -0.3107 -0.5099
   18MOL    H8818482   0.271   0.429   7.262 -0.7216 -1.0633 -2.0958
   18MOL    H8918483   0.050   0.345   7.214  1.8948  0.8801 -0.7400
   18MOL    H9018484   8.151   0.403   7.529  1.3194  1.4638 -0.6808
   18MOL    H9118485   8.041   0.614   7.530  2.2127 -0.5526 -0.6170
   18MOL    H9218486   8.064   0.810   7.380 -0.1733 -0.5781  0.2399
   18MOL    H9318487   8.153   0.968   7.199 -1.0111  0.3583  0.3625
   18MOL    H9418488   7.931   1.180   7.088  1.9352 -1.0658  0.5463
   18MOL    H9518489   7.819   1.128   6.953 -0.4491  2.0566  1.7613
   18MOL    H9618490   7.947   1.245   6.925 -1.1800  0.1892 -0.2324
   18MOL    H9718491   8.161   1.191   7.047 -3.1838 -0.3583 -0.2473
   18MOL    H9818492   8.245   1.049   7.023 -0.5480 -1.3815 -1.2269
   18MOL    H9918493   8.205   1.151   6.883 -1.3647  1.1848 -0.7760
   18MOL   H10018494   7.897   1.133   6.737  2.3967  0.9859 -2.8672
   18MOL   H10118495   7.921   1.068   6.515  1.3318  2.8087  0.8156
   18MOL   H10218496   8.172   0.739   6.631  0.5456 -1.2234  3.5968
   18MOL   H10318497   8.167   0.819   6.867 -2.6047  0.1359  2.6454
   18MOL   H10418498   7.821   0.865   6.949 -0.0704  0.3428  0.2408
   18MOL   H10518499   7.726   0.727   7.122  1.7549 -1.3915 -1.4023
   18MOL   H10618500   7.780   0.487   7.205  0.9493 -0.1753 -0.8105
   18MOL   H10718501   7.906   0.267   7.206 -2.5937 -1.1629  1.5781
   18MOL   H10818502   0.034   0.132   7.583 -0.7063  2.8568  1.4273
   18MOL   H10918503   0.268   0.198   7.640 -1.6411 -3.8482 -0.6950
   18MOL   C11018504   7.934   0.784   6.366 -0.1266 -0.0008 -0.7760
   18MOL   C11118505   7.870   0.849   6.259 -0.4277  0.0631 -0.6112
   18MOL   C11218506   7.777   0.769   6.183  0.1122 -0.1396  0.3258
   18MOL   C11318507   7.762   0.628   6.211  0.1502 -0.2715  0.0732
   18MOL   S11418508   7.643   0.519   6.138  0.1571  0.3084 -0.2454
   18MOL   O11518509   7.678   0.382   6.183  0.1093 -0.5658  0.6760
   18MOL   O11618510   7.622   0.555   5.996  0.2221  0.8721  0.7818
   18MOL   C11718511   7.502   0.572   6.231  0.8254 -0.0657 -0.4648
   18MOL   C11818512   7.484   0.549   6.369 -0.7882  0.0055 -0.2202
   18MOL   C11918513   7.378   0.611   6.438  0.0592  0.5690 -0.4211
   18MOL   C12018514   7.283   0.689   6.365 -0.7165 -0.5229  0.0877
   18MOL   O12118515   7.176   0.737   6.434  0.2953  0.0897  0.2012
   18MOL   C12218516   7.111   0.657   6.528  0.0202 -0.2279  0.9566
   18MOL   C12318517   7.133   0.677   6.659 -0.2415 -0.0235  0.4951
   18MOL   C12418518   7.050   0.615   6.755  0.0844  0.3485 -0.1340
   18MOL   C12518519   6.950   0.524   6.713  0.2266 -0.4808 -0.2617
   18MOL   C12618520   6.840   0.475   6.811  0.8129  0.7315 -0.9884
   18MOL   C12718521   6.730   0.588   6.825  0.3394 -0.4756  0.0777
   18MOL   C12818522   6.771   0.346   6.767  0.3214 -0.3841 -0.8539
   18MOL   C12918523   6.905   0.442   6.947 -0.1398 -0.6044 -0.7987
   18MOL   C13018524   6.875   0.518   7.064  0.2435 -0.0537  0.4270
   18MOL   C13118525   6.951   0.495   7.184 -0.1122  0.3934 -0.1226
   18MOL   C13218526   7.059   0.401   7.182 -0.4614 -0.5831  0.2999
   18MOL   O13318527   7.127   0.371   7.296  0.2226  0.3150 -0.0206
   18MOL   C13418528   7.087   0.331   7.069 -0.1681 -0.5454 -0.2257
   18MOL   C13518529   7.008   0.349   6.952 -0.4310 -0.0407  0.0786
   18MOL   C13618530   6.932   0.499   6.576  0.3062 -0.2405 -0.2492
   18MOL   C13718531   7.011   0.568   6.483 -0.2982 -0.2613 -0.0070
   18MOL   C13818532   7.286   0.699   6.223 -0.2766 -0.0952  0.2932
   18MOL   C13918533   7.401   0.642   6.158 -0.1554 -0.0540 -0.4748
   18MOL   C14018534   7.833   0.570   6.318 -0.0066 -0.3799  0.2049
   18MOL   C14118535   7.916   0.652   6.399  0.2398  0.3053 -0.2378
   18MOL   H14218536   7.890   0.948   6.220 -1.7338  0.9837  1.0051
   18MOL   H14318537   7.727   0.824   6.104  3.1222  2.0945 -0.1166
   18MOL   H14418538   7.552   0.490   6.429  0.7698  1.0750 -0.9001
   18MOL   H14518539   7.371   0.599   6.545 -1.4372 -0.8869 -0.6694
   18MOL   H14618540   7.208   0.750   6.690  1.0077  0.1902 -2.8441
   18MOL   H14718541   7.062   0.643   6.858 -0.7806  0.3824 -0.0395
   18MOL   H14818542   6.767   0.675   6.879 -0.2484 -0.9977  1.3518
   18MOL   H14918543   6.645   0.554   6.884  1.3111  0.0179  1.7797
   18MOL   H15018544   6.697   0.619   6.726 -0.3952  3.0297  1.3427
   18MOL   H15118545   6.703   0.351   6.682 -0.6530  0.7018 -0.0324
   18MOL   H15218546   6.852   0.274   6.750 -0.8693 -1.4836 -2.0129
   18MOL   H15318547   6.710   0.306   6.848 -0.7560  3.4094  0.3035
   18MOL   H15418548   6.797   0.593   7.064 -1.8770 -2.1582 -1.5314
   18MOL   H15518549   6.913   0.548   7.270 -3.9374 -0.9983 -0.8735
   18MOL   H15618550   7.167   0.259   7.075 -1.3189 -1.8127 -0.0892
   18MOL   H15718551   7.041   0.277   6.879 -2.0847 -1.7168  0.9479
   18MOL   H15818552   6.848   0.442   6.540 -0.6269  0.0753  1.3798
   18MOL   H15918553   6.995   0.546   6.379  1.8973 -2.3096  0.0437
   18MOL   H16018554   7.211   0.754   6.168  0.8241  0.6724 -0.4767
   18MOL   H16118555   7.419   0.646   6.052  1.9619  0.4745 -0.1263
   18MOL   H16218556   7.820   0.467   6.349  2.1663 -0.3814  1.2096
   18MOL   H16318557   7.973   0.604   6.477  0.3214  1.1516  0.2278
   18MOL   C16418558   7.053   0.321   7.395  0.0169  0.2629 -0.1149
   18MOL   C16518559   6.989   0.193   7.370  0.3156  0.0847 -0.2589
   18MOL   C16618560   6.921   0.125   7.470 -0.1932 -0.4630 -0.6750
   18MOL   C16718561   6.908   0.185   7.597 -0.3675  0.8471  0.0439
   18MOL   S16818562   6.820   0.103   7.726  0.3524  0.2038 -0.0554
   18MOL   O16918563   6.812   0.205   7.834  0.5899 -0.5405 -0.1723
   18MOL   O17018564   6.889   8.231   7.766  0.0276  0.0738 -0.4178
   18MOL   C17118565   6.654   0.063   7.674 -0.4244  0.0878 -0.0841
   18MOL   C17218566   6.549   0.158   7.691 -0.7725 -0.9239  0.4383
   18MOL   C17318567   6.421   0.132   7.641 -0.1405 -0.0075 -0.1621
   18MOL   C17418568   6.396   0.014   7.576  0.1799 -1.3141 -0.5981
   18MOL   O17518569   6.270   8.238   7.534 -0.3174  0.1622  0.4912
   18MOL   C17618570   6.254   8.166   7.413 -0.4811  0.0781  0.5773
   18MOL   C17718571   6.222   8.029   7.415 -0.4781 -0.1749  0.2228
   18MOL   C17818572   6.217   7.957   7.297  0.0024  0.2774 -0.0605
   18MOL   C17918573   6.236   8.017   7.175 -0.5441 -0.2595  0.2006
   18MOL   C18018574   6.240   7.937   7.046  0.2358  0.4282 -0.9020
   18MOL   C18118575   6.385   7.915   7.008 -0.5722  0.0764 -0.4019
   18MOL   C18218576   6.187   7.788   7.063 -1.0343 -0.0226  0.0652
   18MOL   C18318577   6.148   7.996   6.939 -0.0638 -0.0741  0.2639
   18MOL   C18418578   6.201   8.055   6.823 -0.7166 -0.1389  0.3503
   18MOL   C18518579   6.116   8.094   6.721 -1.0027  0.1827  0.0849
   18MOL   C18618580   5.972   8.090   6.741  0.5801  0.6916 -0.7424
   18MOL   O18718581   5.888   8.141   6.653 -0.5282 -0.6953 -0.2701
   18MOL   C18818582   5.918   8.046   6.863  0.0536 -0.1845  0.8389
   18MOL   C18918583   6.008   8.000   6.959  0.0216 -0.3040 -0.3859
   18MOL   C19018584   6.266   8.158   7.167 -0.2667 -0.4797 -0.5443
   18MOL   C19118585   6.264   8.235   7.287 -0.0994  0.2910  0.2860
   18MOL   C19218586   6.498   8.179   7.554  1.5826  0.0956 -0.6955
   18MOL   C19318587   6.630   8.195   7.610  0.1850 -0.0320 -0.1213
   18MOL   C19418588   6.969   0.309   7.623 -0.1740  0.6063  0.0816
   18MOL   C19518589   7.045   0.379   7.524 -0.1034 -0.4386  0.4403
   18MOL   H19618590   6.990   0.159   7.267  0.6588  1.3325 -0.6823
   18MOL   H19718591   6.871   0.031   7.453 -0.9471  0.2337 -2.4229
   18MOL   H19818592   6.568   0.253   7.740  0.8523  0.2882 -2.4135
   18MOL   H19918593   6.346   0.209   7.653  0.5017  0.5963  0.0062
   18MOL   H20018594   6.221   7.980   7.511  2.9400  1.0920  0.9780
   18MOL   H20118595   6.211   7.850   7.310 -0.1852  0.3562  0.5197
   18MOL   H20218596   6.448   8.001   7.026 -0.5631  0.4864 -2.2598
   18MOL   H20318597   6.410   7.874   6.910 -0.0448  0.8515 -0.5900
   18MOL   H20418598   6.424   7.844   7.081  1.1154  0.2558 -1.1050
   18MOL   H20518599   6.176   7.737   6.967  0.7212 -2.3817  1.0651
   18MOL   H20618600   6.245   7.719   7.124  0.3794 -1.6654 -3.0235
   18MOL   H20718601   6.087   7.786   7.106 -1.7996 -0.9694 -1.6911
   18MOL   H20818602   6.307   8.076   6.818 -1.0832  2.2997  2.2261
   18MOL   H20918603   6.158   8.140   6.633 -1.8412 -3.1802 -2.1479
   18MOL   H21018604   5.810   8.039   6.871  0.0606 -1.0312  0.2400
   18MOL   H21118605   5.969   7.960   7.052 -1.6999  0.3237 -0.8074
   18MOL   H21218606   6.282   8.201   7.070  1.9241 -0.1307 -0.0490
   18MOL   H21318607   6.286   0.088   7.287  2.9683 -0.2753 -1.1896
   18MOL   H21418608   6.486   8.084   7.505 -1.9047  0.1008  0.0105
   18MOL   H21518609   6.701   8.114   7.608 -0.0887 -0.3182  1.2061
   18MOL   H21618610   6.960   0.355   7.721 -0.3184 -1.1372  0.9009
   18MOL   H21718611   7.101   0.470   7.543 -2.1151  0.8280  0.3699
   18MOL   C21818612   5.846   0.020   6.680 -0.0180  0.1573  0.1872
   18MOL   C21918613   5.724   0.044   6.745 -0.4124 -0.3020 -0.1159
   18MOL   C22018614   5.671   0.174   6.758 -0.5151  1.1871  0.7424
   18MOL   C22118615   5.743   0.280   6.706 -0.5977  0.4217  0.4487
   18MOL   S22218616   5.683   0.445   6.716  0.0376 -0.3088 -0.5135
   18MOL   O22318617   5.536   0.433   6.734 -0.1239 -1.0753 -0.1567
   18MOL   O22418618   5.727   0.515   6.592  0.2443  0.0009  0.5133
   18MOL   C22518619   5.760   0.513   6.856  0.6805 -0.0856 -0.2884
   18MOL   C22618620   5.901   0.532   6.850  0.3007  0.3043  0.9400
   18MOL   C22718621   5.961   0.607   6.951  0.2057 -0.5689 -0.6308
   18MOL   C22818622   5.893   0.646   7.068  0.7785  0.0605 -0.3195
   18MOL   O22918623   5.954   0.700   7.171 -0.0210 -0.0178 -0.5833
   18MOL   C23018624   5.930   0.837   7.197 -0.6712  0.2914  0.2481
   18MOL   C23118625   5.842   0.873   7.300  0.3466  0.5449 -1.0775
   18MOL   C23218626   5.828   1.005   7.343  0.3143 -0.2746 -1.0795
   18MOL   C23318627   5.901   1.107   7.274  0.2281  0.3547 -0.4081
   18MOL   C23418628   5.888   1.256   7.316  0.4264 -0.0148 -0.4661
   18MOL   C23518629   5.951   1.344   7.211 -0.1099 -0.0934 -0.4102
   18MOL   C23618630   5.737   1.287   7.311 -0.8396 -0.3266  1.2649
   18MOL   C23718631   5.947   1.288   7.457  0.8683 -0.3227 -0.3831
   18MOL   C23818632   5.914   1.396   7.538  0.3539  0.3322 -0.1531
   18MOL   C23918633   5.962   1.405   7.673  1.3034 -0.7942  0.3927
   18MOL   C24018634   6.047   1.306   7.727  0.4082  0.1180 -0.6180
   18MOL   O24118635   6.091   1.320   7.858 -0.1442  0.2094 -0.5158
   18MOL   C24218636   6.089   1.200   7.643  0.2535 -0.4591 -0.0890
   18MOL   C24318637   6.041   1.195   7.509 -0.5870  0.2710 -0.9577
   18MOL   C24418638   5.989   1.068   7.169 -0.2615 -0.1055 -0.0445
   18MOL   C24518639   5.995   0.936   7.121  0.4640  0.5770  0.1433
   18MOL   C24618640   5.751   0.627   7.071 -0.6938 -0.1772 -0.1581
   18MOL   C24718641   5.685   0.565   6.965 -0.0391  0.6216 -0.2264
   18MOL   C24818642   5.868   0.253   6.645  0.1160 -0.1185 -0.6980
   18MOL   C24918643   5.918   0.125   6.630  0.8046 -0.0195  0.8435
   18MOL   H25018644   5.685   8.209   6.793 -1.0869 -0.9458 -1.8095
   18MOL   H25118645   5.579   0.190   6.811 -0.3296 -0.5831  1.6134
   18MOL   H25218646   5.957   0.508   6.761 -2.2732 -1.4492 -0.2545
   18MOL   H25318647   6.067   0.627   6.950  0.2395 -0.6535  0.5796
   18MOL   H25418648   5.795   0.799   7.363  0.8996  1.5501  0.5333
   18MOL   H25518649   5.768   1.045   7.424  0.9429 -0.2538 -0.6136
   18MOL   H25618650   6.060   1.335   7.207 -0.0695 -0.3623  1.1478
   18MOL   H25718651   5.939   1.452   7.226  1.5167 -0.0506  0.6336
   18MOL   H25818652   5.906   1.334   7.112  0.7893 -0.3559 -0.8026
   18MOL   H25918653   5.697   1.241   7.401 -0.5229 -0.3512  1.3920
   18MOL   H26018654   5.710   1.391   7.333 -0.7405 -0.4249  1.8667
   18MOL   H26118655   5.686   1.242   7.226 -0.2396 -0.9279  1.2251
   18MOL   H26218656   5.849   1.473   7.498 -1.4280 -1.2917 -0.4854
   18MOL   H26318657   5.949   1.501   7.720 -0.1734 -0.7604 -0.0315
   18MOL   H26418658   6.157   1.128   7.686  1.5391  0.8046  0.0589
   18MOL   H26518659   6.081   1.122   7.440 -0.1775  1.5178 -2.0796
   18MOL   H26618660   6.038   1.133   7.098 -2.5542 -1.1927 -2.7211
   18MOL   H26718661   6.060   0.907   7.040 -0.1532 -0.9137  0.1586
   18MOL   H26818662   5.690   0.657   7.154 -2.2042 -1.3500 -0.8144
   18MOL   H26918663   5.578   0.550   6.976  0.3034 -0.9200  1.2539
   18MOL   H27018664   5.919   0.336   6.599 -0.5450  0.1442 -0.9686
   18MOL   H27118665   6.002   0.085   6.574 -0.0587 -2.6096  1.3237
   18MOL   C27218666   6.100   1.207   7.934 -0.7353 -0.1931 -0.2900
   18MOL   C27318667   6.216   1.124   7.940  0.6363 -0.2613  0.2574
   18MOL   C27418668   6.213   1.017   8.032 -0.4969  0.3829  0.0669
   18MOL   C27518669   6.089   0.978   8.091  0.2667 -0.2193 -0.3913
   18MOL   S27618670   6.077   0.830   8.198 -0.3136 -0.3417  0.3084
   18MOL   O27718671   5.957   0.758   8.141  0.1315 -0.2219 -0.3313
   18MOL   O27818672   6.075   0.866   0.088 -0.0153  0.0213 -0.2906
   18MOL   C27918673   6.223   0.734   8.157 -0.4700  0.6869 -0.4883
   18MOL   C28018674   6.324   0.728   8.252  0.4369  0.2878 -0.5486
   18MOL   C28118675   6.440   0.652   8.225  0.2641 -0.2888 -0.1219
   18MOL   C28218676   6.458   0.599   8.099 -0.1147 -0.7230  0.2127
   18MOL   O28318677   6.577   0.524   8.069 -0.3920 -0.0790  0.2159
   18MOL   C28418678   6.567   0.388   8.056 -0.1665 -0.5014  0.2993
   18MOL   C28518679   6.456   0.323   8.009  0.3965 -0.5403 -0.6688
   18MOL   C28618680   6.442   0.181   8.018  1.1091  0.4709 -0.3924
   18MOL   C28718681   6.545   0.110   8.082  0.9801  0.0806 -0.3567
   18MOL   C28818682   6.546   8.206   8.092  0.6094 -0.1972 -0.0419
   18MOL   C28918683   6.661   8.135   8.015  0.6320 -0.5705 -0.2929
   18MOL   C29018684   6.563   8.173   8.242 -0.1641  0.1409  0.1261
   18MOL   C29118685   6.409   8.145   8.039 -0.2273 -0.1630  0.3059
   18MOL   C29218686   6.301   8.080   8.110  0.4825  0.2795 -0.3795
   18MOL   C29318687   6.184   8.035   8.049 -0.2032 -0.2840  0.0102
   18MOL   C29418688   6.172   8.036   7.912  0.5180  0.0134  0.4961
   18MOL   O29518689   6.059   8.001   7.840  0.6317 -0.4412 -0.2024
   18MOL   C29618690   6.278   8.093   7.833 -0.1123 -0.6973 -0.7331
   18MOL   C29718691   6.392   8.147   7.900  0.4344  0.9664  0.1702
   18MOL   C29818692   6.666   0.172   8.116  0.2589 -0.4051 -0.0204
   18MOL   C29918693   6.676   0.314   8.103 -0.2892 -0.6943 -0.0572
   18MOL   C30018694   6.361   0.631   7.997  1.0883  0.8547 -0.1678
   18MOL   C30118695   6.238   0.689   8.029  0.0901 -0.2504 -0.0260
   18MOL   C30218696   5.978   1.060   8.086  0.7797 -0.3639  0.2330
   18MOL   C30318697   5.991   1.179   8.014  0.5103  0.3945 -0.1194
   18MOL   H30418698   6.304   1.156   7.888  0.4774  0.9033  0.7005
   18MOL   H30518699   6.292   0.946   8.049 -1.5347 -1.7736 -3.5101
   18MOL   H30618700   6.313   0.776   0.095 -0.0199 -1.9384  0.5549
   18MOL   H30718701   6.511   0.631   0.051  0.8761  0.5125 -0.4562
   18MOL   H30818702   6.378   0.381   7.965  1.0635  0.0222 -1.1178
   18MOL   H30918703   6.356   0.132   7.974  1.6145 -0.6975 -0.0927
   18MOL   H31018704   6.663   8.026   8.019 -1.1640 -0.6022  0.3288
   18MOL   H31118705   6.760   8.155   8.055 -0.5614  0.2321  2.4139
   18MOL   H31218706   6.659   8.163   7.910 -2.3877 -1.3870 -0.5029
   18MOL   H31318707   6.560   8.065   0.008 -0.3882  0.1085 -0.0909
   18MOL   H31418708   6.655   8.218   0.027  0.8072 -0.9522 -0.8858
   18MOL   H31518709   6.473   8.210   0.036 -0.5368  0.9392 -1.2192
   18MOL   H31618710   6.310   8.054   8.215  0.3299  0.3087 -0.3588
   18MOL   H31718711   6.111   7.993   8.117 -1.7608  1.3254 -0.6572
   18MOL   H31818712   6.268   8.088   7.726  1.5059 -1.6976 -0.8529
   18MOL   H31918713   6.468   8.186   7.833  0.2258  0.0286 -0.6178
   18MOL   H32018714   6.750   0.117   8.154  0.3816  0.1701  0.5549
   18MOL   H32118715   6.766   0.367   8.128  0.6898 -0.7897 -3.0860
   18MOL   H32218716   6.376   0.595   7.896  0.1799 -1.6004  0.5210
   18MOL   H32318717   6.154   0.691   7.961  0.2040 -1.4735 -0.2186
   18MOL   H32418718   5.884   1.026   8.127 -0.2712  0.8252 -1.1158
   18MOL   H32518719   5.906   1.246   8.016 -0.2069 -0.5257  0.6409
   18MOL   C32618720   6.030   7.868   7.814 -0.1901 -0.2068 -1.3482
   18MOL   C32718721   5.899   7.819   7.832 -0.8747  0.1124 -0.6817
   18MOL   C32818722   5.863   7.688   7.796  0.6947  0.7371  0.4425
   18MOL   C32918723   5.970   7.602   7.754  0.5707 -0.4755  0.1185
   18MOL   S33018724   5.933   7.436   7.717 -0.4863  0.1549  0.0664
   18MOL   O33118725   5.823   7.387   7.804  0.3074 -0.3393 -0.9095
   18MOL   O33218726   6.054   7.356   7.716  0.4073  0.3176  0.5020
   18MOL   C33318727   5.865   7.430   7.555 -0.0820  0.4714 -0.2343
   18MOL   C33418728   5.865   7.541   7.467 -0.4178  0.2364 -0.0463
   18MOL   C33518729   5.819   7.520   7.339  0.1463  0.0111 -0.3897
   18MOL   C33618730   5.778   7.396   7.289 -0.2858  0.5517  0.0786
   18MOL   O33718731   5.734   7.385   7.162 -0.4169 -0.2348  0.0407
   18MOL   C33818732   5.827   7.362   7.068  0.0187  0.4635  0.5595
   18MOL   C33918733   5.899   7.467   7.014  0.4589  0.5798 -0.2932
   18MOL   C34018734   5.984   7.446   6.902  0.1221 -0.5276 -0.0093
   18MOL   C34118735   6.000   7.324   6.838 -0.1843 -0.2219  0.6602
   18MOL   C34218736   6.105   7.307   6.719  0.3662 -0.0445 -0.2758
   18MOL   C34318737   6.160   7.160   6.722  0.4183 -0.1116 -0.1345
   18MOL   C34418738   6.026   7.337   6.591  0.0132  0.0711  0.2368
   18MOL   C34518739   6.231   7.404   6.742  0.5416  0.1624 -0.4523
   18MOL   C34618740   6.284   7.401   6.871 -0.6796 -0.4621  0.1695
   18MOL   C34718741   6.397   7.480   6.904  0.6259 -0.6574 -0.2023
   18MOL   C34818742   6.454   7.556   6.803  0.3814 -0.1519 -0.4211
   18MOL   O34918743   6.562   7.640   6.829 -0.3869 -0.1673  0.1957
   18MOL   C35018744   6.404   7.556   6.669 -0.4050  0.6776  0.0652
   18MOL   C35118745   6.290   7.483   6.640 -0.5620  0.5599  0.9761
   18MOL   C35218746   5.937   7.211   6.901 -0.1971 -1.0906  1.1486
   18MOL   C35318747   5.852   7.230   7.017 -0.1695 -0.2430  0.5053
   18MOL   C35418748   5.772   7.287   7.378 -0.3254  0.0721  0.7662
   18MOL   C35518749   5.823   7.303   7.506  0.4176  0.4853 -0.4557
   18MOL   C35618750   6.105   7.642   7.750  0.2745  0.1580 -0.5284
   18MOL   C35718751   6.131   7.780   7.764 -0.2489  0.5474  0.5894
   18MOL   H35818752   5.822   7.884   7.870 -1.4488 -3.0610  4.1155
   18MOL   H35918753   5.763   7.649   7.808  1.0846  0.2191  2.1323
   18MOL   H36018754   5.912   7.636   7.486  0.0232 -0.4813  2.7551
   18MOL   H36118755   5.804   7.598   7.266 -1.1291 -0.3796 -0.5487
   18MOL   H36218756   5.871   7.566   7.049  1.7819  1.5400 -1.8463
   18MOL   H36318757   6.038   7.531   6.862  3.3078 -2.8644 -0.8826
   18MOL   H36418758   6.199   7.124   6.817  1.0331 -1.3927 -0.8435
   18MOL   H36518759   6.239   7.152   6.647 -0.2461 -2.4094 -0.6411
   18MOL   H36618760   6.077   7.097   6.689 -0.9527  0.3543  2.2827
   18MOL   H36718761   6.066   7.324   6.491 -2.8679 -0.2472 -0.9337
   18MOL   H36818762   5.958   7.251   6.590  0.3764 -0.2443  1.3954
   18MOL   H36918763   5.975   7.433   6.590 -0.7145 -0.3240 -1.0172
   18MOL   H37018764   6.247   7.327   6.940 -1.7029 -0.4047 -0.3031
   18MOL   H37118765   6.439   7.476   7.003 -0.0906  0.5401  0.1647
   18MOL   H37218766   6.452   7.617   6.594  0.7581 -0.4130 -0.1107
   18MOL   H37318767   6.260   7.473   6.537 -0.9278  1.8214  0.9511
   18MOL   H37418768   5.974   7.111   6.884  0.4548 -0.5593 -0.6077
   18MOL   H37518769   5.794   7.146   7.051  0.2347 -2.1266 -3.2052
   18MOL   H37618770   5.735   7.193   7.339 -0.9849  0.1900  1.1026
   18MOL   H37718771   5.840   7.221   7.574 -0.2869  0.6014 -0.1430
   18MOL   H37818772   6.191   7.580   7.729  0.0013 -0.6618  0.6971
   18MOL   H37918773   6.236   7.804   7.761 -0.0931 -0.3082 -2.1152
   18MOL   C38018774   6.686   7.590   6.870  0.9446  0.1892  0.1886
   18MOL   C38118775   6.764   7.683   6.939 -0.5280  0.0539 -0.1352
   18MOL   C38218776   6.892   7.650   6.979 -0.1438 -0.0502  0.1120
   18MOL   C38318777   6.947   7.524   6.940  1.0099  0.6506 -0.4655
   18MOL   S38418778   7.109   7.477   6.995  0.1876 -0.0210 -0.0943
   18MOL   O38518779   7.131   7.328   6.987  0.4051 -0.0854  0.2657
   18MOL   O38618780   7.144   7.546   7.119  0.7659  0.6376 -0.2270
   18MOL   C38718781   7.215   7.561   6.863 -0.3302  0.2578  0.0187
   18MOL   C38818782   7.352   7.578   6.895 -0.0427  0.3269 -0.0772
   18MOL   C38918783   7.441   7.650   6.813  0.0351 -0.4738 -0.3772
   18MOL   C39018784   7.390   7.714   6.700  0.0916  0.1437 -0.0761
   18MOL   O39118785   7.471   7.785   6.612  0.0402 -0.1289 -0.3739
   18MOL   C39218786   7.466   7.919   6.620  0.4259  1.2328  0.3721
   18MOL   C39318787   7.427   7.987   6.502 -0.7506  0.1438 -0.7013
   18MOL   C39418788   7.413   8.126   6.502  0.0597 -0.3450  0.2452
   18MOL   C39518789   7.440   8.207   6.615 -0.5938  0.9122 -0.3204
   18MOL   C39618790   7.419   0.103   6.597  0.1885  0.4662  0.0858
   18MOL   C39718791   7.425   0.177   6.731  0.2716 -0.2332 -0.8304
   18MOL   C39818792   7.533   0.162   6.512  0.4519 -0.5770 -0.4529
   18MOL   C39918793   7.281   0.127   6.536  0.3531 -0.6957  0.3698
   18MOL   C40018794   7.268   0.186   6.413  0.3226  0.3333  0.2191
   18MOL   C40118795   7.143   0.202   6.358  0.6576 -0.1675  0.0670
   18MOL   C40218796   7.022   0.154   6.416  0.1363 -0.0731  0.3291
   18MOL   O40318797   6.895   0.165   6.363 -0.7158 -0.2242  0.2963
   18MOL   C40418798   7.044   0.104   6.548  0.5224 -0.4928  0.0793
   18MOL   C40518799   7.168   0.078   6.601  0.1563 -0.2929 -0.5159
   18MOL   C40618800   7.497   8.143   6.727 -0.3857  0.0868  0.4880
   18MOL   C40718801   7.500   8.001   6.730  0.0253 -0.1321 -0.0774
   18MOL   C40818802   7.251   7.707   6.664  0.0446 -0.3717  0.2469
   18MOL   C40918803   7.167   7.631   6.750  0.7310 -0.0497  0.0539
   18MOL   C41018804   6.866   7.429   6.873  0.2771 -0.6666  0.6345
   18MOL   C41118805   6.735   7.459   6.841 -0.2532  0.5127  0.0108
   18MOL   H41218806   6.724   7.782   6.955 -1.4211 -0.3286  0.0347
   18MOL   H41318807   6.955   7.717   7.035 -0.8402  0.7627 -0.0498
   18MOL   H41418808   7.388   7.533   6.986  1.3134  2.0765  0.2740
   18MOL   H41518809   7.544   7.660   6.845 -0.2125 -0.0805  0.3299
   18MOL   H41618810   7.413   7.938   6.407  0.8752 -1.4167 -0.1585
   18MOL   H41718811   7.383   8.173   6.409  0.1303  1.2837  1.0284
   18MOL   H41818812   7.514   0.171   6.793 -0.2155 -1.9614 -0.2632
   18MOL   H41918813   7.353   0.129   6.798 -0.2175 -1.0976 -1.9445
   18MOL   H42018814   7.399   0.281   6.712 -1.3687 -0.0953  1.9242
   18MOL   H42118815   7.524   0.271   6.513 -0.6978 -0.6546  2.3690
   18MOL   H42218816   7.633   0.141   6.549  0.7748  2.8429  0.8061
   18MOL   H42318817   7.546   0.123   6.411  0.5646 -0.0570 -0.6409
   18MOL   H42418818   7.348   0.229   6.353  0.8120 -1.7263 -0.6403
   18MOL   H42518819   7.143   0.246   6.259 -0.6964  1.3035  0.7057
   18MOL   H42618820   6.945   0.089   6.590  0.5387  1.2743  0.7744
   18MOL   H42718821   7.172   0.036   6.701  0.4602  1.8299  0.3994
   18MOL   H42818822   7.543   8.197   6.809  0.3458 -0.6596  0.5773
   18MOL   H42918823   7.541   7.955   6.819  0.9644  0.9513  0.0583
   18MOL   H43018824   7.210   7.759   6.579 -1.3450  0.8355  1.6242
   18MOL   H43118825   7.062   7.636   6.726  0.1938  0.2405  2.4320
   18MOL   H43218826   6.896   7.326   6.859 -0.6243 -0.7242 -1.0170
   18MOL   H43318827   6.674   7.385   6.789  1.8845 -0.6291 -0.9383
   18MOL   C43418828   6.864   0.221   6.238  0.7339 -0.0816  0.7894
   18MOL   C43518829   6.755   0.316   6.236  0.2599 -0.3777 -0.7283
   18MOL   C43618830   6.710   0.376   6.118 -0.8770 -0.4339 -0.1164
   18MOL   C43718831   6.780   0.351   5.998  0.1249  0.1720 -0.7946
   18MOL   S43818832   6.749   0.455   5.855  0.0795  0.2367  0.5314
   18MOL   O43918833   6.862   0.429   5.762  0.2335 -0.1811  0.1105
   18MOL   O44018834   6.726   0.594   5.896  0.2497 -0.5463 -0.2538
   18MOL   C44118835   6.590   0.386   5.784 -0.2665  0.2047 -0.0888
   18MOL   C44218836   6.584   0.291   5.679  0.1704  0.3187  0.6240
   18MOL   C44318837   6.462   0.250   5.619 -0.1436  0.2050  0.1130
   18MOL   C44418838   6.348   0.318   5.662 -0.6893 -0.4832  0.4376
   18MOL   O44518839   6.226   0.292   5.601 -0.1994 -0.0592  0.2923
   18MOL   C44618840   6.138   0.190   5.631  0.7456 -0.1675 -0.4692
   18MOL   C44718841   6.013   0.224   5.688  0.3366 -0.3009 -0.4335
   18MOL   C44818842   5.908   0.133   5.703 -0.4940  0.1284  0.1502
   18MOL   C44918843   5.926   0.002   5.651 -0.5144 -0.1676 -0.7442
   18MOL   C45018844   5.819   8.150   5.657 -0.4508 -0.4433  0.3599
   18MOL   C45118845   5.861   8.036   5.756 -0.1182 -0.4660 -0.8035
   18MOL   C45218846   5.683   8.205   5.709 -0.1168  0.0435 -0.7598
   18MOL   C45318847   5.801   8.092   5.518  0.0394  0.4326 -0.0020
   18MOL   C45418848   5.763   7.954   5.497  0.1629 -0.3214 -0.3265
   18MOL   C45518849   5.739   7.902   5.365  0.0394  0.2316  0.1531
   18MOL   C45618850   5.772   7.980   5.248  0.3069  0.3546 -0.8827
   18MOL   O45718851   5.753   7.935   5.125 -0.4219 -0.7361 -0.3371
   18MOL   C45818852   5.792   8.120   5.270 -0.1453  0.2284  0.5447
   18MOL   C45918853   5.807   8.168   5.399 -0.6392 -0.1422 -0.6617
   18MOL   C46018854   6.053   8.220   5.594 -0.1945 -0.5241 -0.6509
   18MOL   C46118855   6.162   0.057   5.590 -0.4650  0.1587 -0.6610
   18MOL   C46218856   6.345   0.409   5.772 -0.5066  0.3735 -0.0813
   18MOL   C46318857   6.468   0.443   5.837  0.0975  0.4280 -0.3643
   18MOL   C46418858   6.900   0.277   6.007  0.3129 -0.1718 -0.2367
   18MOL   C46518859   6.935   0.204   6.119 -0.3435  0.2749 -0.2863
   18MOL   H46618860   6.700   0.330   6.328 -0.5321 -1.2891 -1.0602
   18MOL   H46718861   6.623   0.440   6.121 -0.1509  0.5027  1.5053
   18MOL   H46818862   6.680   0.246   5.656 -1.0334 -2.7545  1.4301
   18MOL   H46918863   6.453   0.171   5.546 -0.3924  0.8443 -0.5513
   18MOL   H47018864   5.997   0.322   5.731  1.5019 -1.0981  1.9081
   18MOL   H47118865   5.812   0.155   5.746 -0.0474  2.3094  0.0549
   18MOL   H47218866   5.935   7.969   5.712 -0.0708 -1.0954  0.2162
   18MOL   H47318867   5.773   7.983   5.790 -0.1286 -0.1778 -0.3866
   18MOL   H47418868   5.908   8.078   5.845  1.4885  0.9377 -2.2818
   18MOL   H47518869   5.633   0.022   5.642 -0.4063  0.2811 -0.2991
   18MOL   H47618870   5.615   8.120   5.722  1.3878 -1.0018  0.5711
   18MOL   H47718871   5.691   8.246   5.809  0.4864 -1.8081 -0.0253
   18MOL   H47818872   5.745   7.886   5.578 -1.1550 -0.8419 -1.0296
   18MOL   H47918873   5.689   7.808   5.352 -0.5760  0.1303  2.9731
   18MOL   H48018874   5.809   8.179   5.181  0.2903  0.8031  1.0012
   18MOL   H48118875   5.837   0.018   5.404  0.2893 -0.4334 -0.0155
   18MOL   H48218876   6.067   8.123   5.549  0.1669 -0.6138 -0.3426
   18MOL   H48318877   6.259   0.037   5.547 -0.0501 -0.5758  0.6019
   18MOL   H48418878   6.252   0.456   5.801  0.5196  1.5474  1.4022
   18MOL   H48518879   6.457   0.513   5.918  0.5009  1.3151 -1.0705
   18MOL   H48618880   6.962   0.277   5.919 -0.3780 -0.3885 -0.7349
   18MOL   H48718881   7.019   0.136   6.126 -1.6012 -1.2849  0.2133
   18MOL   C48818882   5.791   7.807   5.084  0.3293  0.1690  0.4977
   18MOL   C48918883   5.728   7.746   4.979 -0.3982  0.1272 -0.0620
   18MOL   C49018884   5.749   7.609   4.956 -0.3289  0.4027 -0.3760
   18MOL   C49118885   5.841   7.535   5.023  0.3193 -0.3322 -0.6620
   18MOL   S49218886   5.858   7.355   4.994  0.0510  0.1558 -0.2427
   18MOL   O49318887   5.738   7.296   5.061 -0.8380 -0.7687  0.2105
   18MOL   O49418888   5.993   7.315   5.037  0.5005  0.0353 -0.2166
   18MOL   C49518889   5.849   7.334   4.818 -0.0291 -1.2525 -0.0853
   18MOL   C49618890   5.932   7.419   4.734 -0.4128  0.7058 -0.5637
   18MOL   C49718891   5.940   7.395   4.595 -0.0522 -0.2002 -0.2177
   18MOL   C49818892   5.866   7.288   4.543 -0.4255  0.3675  0.2875
   18MOL   O49918893   5.887   7.245   4.415 -0.7574 -0.1721  0.1506
   18MOL   C50018894   5.801   7.290   4.316  0.9444  0.1024  0.4068
   18MOL   C50118895   5.663   7.304   4.334  0.8688  0.0067 -0.1977
   18MOL   C50218896   5.586   7.354   4.229 -0.2290  0.7368  0.2453
   18MOL   C50318897   5.639   7.388   4.103  0.7419 -0.6101 -0.2370
   18MOL   C50418898   5.550   7.450   3.998  0.5126  0.1582  0.8673
   18MOL   C50518899   5.623   7.508   3.870 -0.2182  0.3391 -0.9499
   18MOL   C50618900   5.459   7.341   3.948 -0.0331  0.8218 -0.2544
   18MOL   C50718901   5.475   7.568   4.060  0.1862 -0.4557 -0.8649
   18MOL   C50818902   5.340   7.583   4.062  0.3905 -0.9415 -0.5409
   18MOL   C50918903   5.275   7.680   4.144  0.1775  0.8832 -0.5240
   18MOL   C51018904   5.347   7.771   4.221  0.2386 -0.2464  0.5846
   18MOL   O51118905   5.290   7.847   4.313 -0.1526 -0.1446 -0.3108
   18MOL   C51218906   5.484   7.777   4.193 -0.8760  0.3463  0.6613
   18MOL   C51318907   5.549   7.668   4.128  0.4424 -0.2185  0.6482
   18MOL   C51418908   5.776   7.367   4.082  0.1073 -0.3839 -0.0716
   18MOL   C51518909   5.854   7.314   4.189 -0.1025 -0.0797  0.3819
   18MOL   C51618910   5.784   7.206   4.619 -0.2476 -0.5801 -0.4243
   18MOL   C51718911   5.777   7.230   4.758  0.2753  0.5812 -0.0689
   18MOL   C51818912   5.924   7.600   5.118 -0.7337 -0.3295 -0.2559
   18MOL   C51918913   5.900   7.737   5.147  0.1403  0.3789  0.5244
   18MOL   H52018914   5.658   7.805   4.922  0.9430  1.1649 -0.6489
   18MOL   H52118915   5.682   7.563   4.884  1.9995 -1.8476 -1.1754
   18MOL   H52218916   5.995   7.498   4.773 -1.4242  0.2756  2.0379
   18MOL   H52318917   6.001   7.461   4.536 -1.3154  0.5682 -0.6744
   18MOL   H52418918   5.616   7.288   4.430 -0.6265 -0.0667 -0.9303
   18MOL   H52518919   5.480   7.372   4.244 -1.1823 -2.4984 -2.0995
   18MOL   H52618920   5.672   7.428   3.815  2.2001  1.7115 -0.8364
   18MOL   H52718921   5.701   7.584   3.880  0.2303 -0.1037 -1.0637
   18MOL   H52818922   5.549   7.550   3.802  0.3862  0.2315 -1.6804
   18MOL   H52918923   5.388   7.379   3.875  1.7803  0.5510 -2.2137
   18MOL   H53018924   5.521   7.261   3.908 -0.5659 -1.5783  3.4182
   18MOL   H53118925   5.403   7.297   4.031  0.7147  0.5481  0.1063
   18MOL   H53218926   5.280   7.510   4.009  1.8318 -1.3436 -1.6216
   18MOL   H53318927   5.168   7.691   4.146  0.1409  0.7364 -1.2819
   18MOL   H53418928   5.542   7.853   4.245 -0.7066 -0.1105  1.1404
   18MOL   H53518929   5.657   7.669   4.125  0.4067  2.1017 -1.0339
   18MOL   H53618930   5.820   7.400   3.989  0.0742  1.9697  0.7380
   18MOL   H53718931   5.961   7.312   4.176 -0.0953 -0.4527  0.4719
   18MOL   H53818932   5.723   7.126   4.581 -2.3899  0.9109 -0.2545
   18MOL   H53918933   5.711   7.172   4.821 -1.5015  1.0977 -1.3938
   18MOL   H54018934   6.010   7.552   5.162  1.4362  2.2790 -1.4874
   18MOL   H54118935   5.968   7.788   5.213 -0.6840  1.0161  0.8845
   18MOL   C54218936   5.199   7.950   4.277  0.0371  0.7601 -1.2468
   18MOL   C54318937   5.249   8.073   4.244 -0.4008  0.3489  0.2295
   18MOL   C54418938   5.163   8.186   4.227 -0.0950  0.0676  0.7575
   18MOL   C54518939   5.026   8.167   4.249  0.1552  0.1525  0.6309
   18MOL   S54618940   4.904   0.048   4.240 -0.4690 -0.3268  0.2759
   18MOL   O54718941   4.923   0.127   4.367 -0.3432  0.4040  0.7707
   18MOL   O54818942   4.772   8.236   4.212  0.0823  0.0100  0.7171
   18MOL   C54918943   4.964   0.141   4.101  0.1876 -0.1275  0.6775
   18MOL   C55018944   5.013   0.274   4.112  0.4423  0.6293 -0.2410
   18MOL   C55118945   5.048   0.347   3.995 -0.1018 -0.0715 -0.4995
   18MOL   C55218946   5.039   0.278   3.871 -0.0727  0.0520 -0.2774
   18MOL   O55318947   5.077   0.333   3.748 -0.5651 -0.7035 -0.1010
   18MOL   C55418948   4.993   0.423   3.690 -0.1454 -0.3766  0.3492
   18MOL   C55518949   4.993   0.561   3.733 -0.4359  0.4255  0.6227
   18MOL   C55618950   4.926   0.656   3.648 -0.2296 -0.0374  0.0705
   18MOL   C55718951   4.863   0.619   3.528  0.6069 -0.1596 -0.1419
   18MOL   C55818952   4.784   0.727   3.448 -0.6289 -0.4061 -0.0156
   18MOL   C55918953   4.728   0.673   3.312 -0.5720  0.3231  0.1758
   18MOL   C56018954   4.654   0.768   3.523  0.6040  0.8423 -0.2840
   18MOL   C56118955   4.880   0.849   3.421  0.0394 -0.4873 -0.3285
   18MOL   C56218956   4.825   0.981   3.442 -0.2432  0.5251  0.6586
   18MOL   C56318957   4.915   1.096   3.436 -0.1287 -0.3128  0.1811
   18MOL   C56418958   5.048   1.075   3.399  0.7389 -0.9022 -0.2629
   18MOL   O56518959   5.144   1.173   3.409  0.2802  0.2614  0.6751
   18MOL   C56618960   5.099   0.941   3.372 -0.4751  0.0016  0.1165
   18MOL   C56718961   5.009   0.834   3.369 -0.5528 -0.1623  0.1103
   18MOL   C56818962   4.859   0.480   3.493  0.0005  0.2840 -0.1566
   18MOL   C56918963   4.919   0.380   3.575 -0.3414  0.3987 -0.0320
   18MOL   C57018964   4.996   0.147   3.860 -0.7022  0.1312 -0.4022
   18MOL   C57118965   4.953   0.084   3.974 -0.3830 -0.3292 -0.0453
   18MOL   C57218966   4.975   8.036   4.270  0.6308  0.2834 -0.1344
   18MOL   C57318967   5.058   7.923   4.291 -0.6906  0.1252  0.3929
   18MOL   H57418968   5.356   8.078   4.237 -0.1812 -1.6943  1.6108
   18MOL   H57518969   5.205   0.031   4.215 -1.0196  0.4824  0.8163
   18MOL   H57618970   5.031   0.315   4.210 -3.7848  0.4298  0.6790
   18MOL   H57718971   5.091   0.446   3.998  0.4281 -0.2819 -0.9100
   18MOL   H57818972   5.036   0.594   3.826 -3.0792  0.4624  1.8724
   18MOL   H57918973   4.917   0.758   3.681 -2.0102 -0.3632  0.6612
   18MOL   H58018974   4.800   0.630   3.243 -1.8720  0.0767 -1.0368
   18MOL   H58118975   4.671   0.748   3.258  0.7336  1.7964  0.8092
   18MOL   H58218976   4.661   0.588   3.323  0.2314 -0.3200  0.2230
   18MOL   H58318977   4.605   0.676   3.555  0.1938  0.4989 -1.8413
   18MOL   H58418978   4.673   0.815   3.619  0.7514 -1.9917  1.1476
   18MOL   H58518979   4.587   0.831   3.464 -1.6540 -0.7126  0.5567
   18MOL   H58618980   4.725   0.999   3.478  0.2866  1.2809  1.7927
   18MOL   H58718981   4.881   1.197   3.450 -0.9571 -0.6517  0.6502
   18MOL   H58818982   5.202   0.938   3.338 -1.4401  0.3139 -3.0651
   18MOL   H58918983   5.043   0.737   3.335  0.5455  0.6570 -1.2061
   18MOL   H59018984   4.811   0.438   3.406  0.8128  0.5684 -0.7514
   18MOL   H59118985   4.909   0.275   3.552  0.4775  0.5691 -1.2267
   18MOL   H59218986   4.979   0.098   3.765 -1.9589  0.6195 -0.4372
   18MOL   H59318987   4.917   8.236   3.962  0.4393 -0.8348  1.6492
   18MOL   H59418988   4.868   8.023   4.271  0.5953  0.4996 -0.7949
   18MOL   H59518989   5.015   7.825   4.303  1.5738 -0.9409  0.0277
   18MOL   C59618990   5.207   1.178   3.529 -0.0613 -0.6499  0.3772
   18MOL   C59718991   5.155   1.253   3.633 -0.2098 -0.6432 -0.4396
   18MOL   C59818992   5.217   1.261   3.758 -0.0204 -0.7494 -0.0456
   18MOL   C59918993   5.330   1.182   3.777 -1.1447 -0.4914  0.1417
   18MOL   S60018994   5.424   1.187   3.933 -0.0209  0.1777 -0.4309
   18MOL   O60118995   5.537   1.094   3.914  0.1503  0.1522 -0.4914
   18MOL   O60218996   5.337   1.164   4.047  0.5775  0.5168  0.7210
   18MOL   C60318997   5.479   1.353   3.954 -0.1783  0.5125 -0.0428
   18MOL   C60418998   5.456   1.430   4.074 -0.1280  0.2181 -0.2442
   18MOL   C60518999   5.503   1.559   4.090  0.0807 -0.0611  0.4471
   18MOL   C60619000   5.544   1.629   3.974  0.2594  0.6520 -0.1287
   18MOL   O60719001   5.577   1.762   3.992 -0.1814 -0.4802  0.0631
   18MOL   C60819002   5.546   1.846   3.893 -0.3681  0.1766 -0.5596
   18MOL   C60919003   5.648   1.940   3.866  0.5424  0.8592 -0.4584
   18MOL   C61019004   5.620   2.035   3.769  0.5185 -0.0543  0.5515
   18MOL   C61119005   5.500   2.041   3.697 -0.5139  0.4552  1.1114
   18MOL   C61219006   5.488   2.150   3.590 -0.8355 -0.9165 -0.0086
   18MOL   C61319007   5.584   2.108   3.470 -0.1278  0.0110  0.2127
   18MOL   C61419008   5.344   2.154   3.529  0.4413 -0.6601  0.3256
   18MOL   C61519009   5.516   2.295   3.646  0.5149  0.4145 -0.1701
   18MOL   C61619010   5.477   2.318   3.780  0.4941 -0.0854 -0.6118
   18MOL   C61719011   5.507   2.443   3.837  0.3475 -0.5898 -0.1011
   18MOL   C61819012   5.558   2.548   3.750 -0.0384 -0.6532  0.3252
   18MOL   O61919013   5.562   2.676   3.800  0.0826  0.4699 -0.0084
   18MOL   C62019014   5.595   2.521   3.618  0.3727 -0.2466 -0.0107
   18MOL   C62119015   5.580   2.392   3.564 -1.3654 -0.0387  0.2209
   18MOL   C62219016   5.405   1.946   3.719  0.1455 -0.4490  0.3468
   18MOL   C62319017   5.427   1.845   3.814 -0.1408  0.2015 -0.8591
   18MOL   C62419018   5.553   1.562   3.854 -0.8558  0.6925  0.0458
   18MOL   C62519019   5.528   1.420   3.836  0.2884  1.3767 -0.1267
   18MOL   C62619020   5.386   1.104   3.672  0.1449 -0.3773 -0.1468
   18MOL   C62719021   5.325   1.106   3.541  0.4030 -0.9493  0.8437
   18MOL   H62819022   5.064   1.309   3.617 -0.9645 -1.7913 -0.2411
   18MOL   H62919023   5.186   1.331   3.834  1.0893  0.4712 -0.6937
   18MOL   H63019024   5.410   1.379   4.157  1.2841  1.8058  1.5302
   18MOL   H63119025   5.485   1.604   4.186  0.1271  2.6035 -0.7230
   18MOL   H63219026   5.741   1.935   3.919 -0.8925 -2.1166  1.9003
   18MOL   H63319027   5.697   2.104   3.737 -0.5431  0.1062 -1.6932
   18MOL   H63419028   5.578   2.008   3.428  1.3332 -0.2490  0.5922
   18MOL   H63519029   5.683   2.116   3.516  0.7129  0.0565 -1.5489
   18MOL   H63619030   5.584   2.172   3.382 -0.0009  0.7138  0.7195
   18MOL   H63719031   5.322   2.061   3.477  0.2282 -0.9766  0.9750
   18MOL   H63819032   5.261   2.174   3.596  1.4365  2.3812  0.7435
   18MOL   H63919033   5.355   2.218   3.441 -2.0479 -1.9846 -0.9892
   18MOL   H64019034   5.432   2.237   3.836  0.1887 -0.3710 -1.2700
   18MOL   H64119035   5.482   2.455   3.941  0.1173  3.0691 -0.5321
   18MOL   H64219036   5.622   2.607   3.557  1.7588 -0.7591 -0.1400
   18MOL   H64319037   5.603   2.375   3.460 -1.7327  2.0797 -0.2330
   18MOL   H64419038   5.320   1.941   3.652 -1.2930 -1.2872  2.2117
   18MOL   H64519039   5.353   1.765   3.818  0.5312 -0.4533 -1.3996
   18MOL   H64619040   5.582   1.616   3.765 -3.4268  1.6056 -0.2880
   18MOL   H64719041   5.549   1.365   3.745 -1.2329 -0.4231  0.5566
   18MOL   H64819042   5.473   1.040   3.684  0.2009  0.1163  2.2272
   18MOL   H64919043   5.358   1.045   3.458 -0.9368 -1.4466  0.6534
   18MOL   C65019044   5.487   2.708   3.917 -0.1492  0.0818 -0.4365
   18MOL   C65119045   5.549   2.698   4.046  0.3902  0.1918  0.0006
   18MOL   C65219046   5.472   2.707   4.163 -0.0909 -0.7215 -0.3322
   18MOL   C65319047   5.333   2.742   4.149  0.5492 -0.3807 -0.8307
   18MOL   S65419048   5.234   2.767   4.296  0.0748 -0.1594  0.0268
   18MOL   O65519049   5.095   2.754   4.257 -0.3928  0.7681 -0.1096
   18MOL   O65619050   5.279   2.894   4.360  0.2702 -0.5052 -0.3405
   18MOL   C65719051   5.281   2.619   4.405 -0.1272  0.2894 -0.1917
   18MOL   C65819052   5.187   2.514   4.415 -0.2048  0.1383 -0.4933
   18MOL   C65919053   5.220   2.407   4.496 -0.4577  0.5210 -0.0670
   18MOL   C66019054   5.336   2.412   4.577  0.8544 -0.1480 -0.5768
   18MOL   O66119055   5.356   2.312   4.669 -0.3816 -0.1519  0.4430
   18MOL   C66219056   5.418   2.203   4.619 -0.5362 -0.5208  0.4993
   18MOL   C66319057   5.424   2.086   4.703  0.3719 -0.1811 -0.0899
   18MOL   C66419058   5.481   1.968   4.653  0.5691 -0.3044 -0.2424
   18MOL   C66519059   5.539   1.966   4.521  0.6960  0.5238 -0.1543
   18MOL   C66619060   5.614   1.844   4.473  0.3165 -0.1272  0.3577
   18MOL   C66719061   5.635   1.838   4.316  0.0506  0.6353 -0.1050
   18MOL   C66819062   5.750   1.850   4.534  0.5391 -0.0367 -0.1497
   18MOL   C66919063   5.538   1.717   4.515  0.3227  0.2064 -0.3024
   18MOL   C67019064   5.603   1.592   4.547 -1.2003 -1.1607  0.3853
   18MOL   C67119065   5.524   1.483   4.574  0.2658  0.5116  0.2530
   18MOL   C67219066   5.385   1.483   4.557  0.7710 -0.4369  0.0716
   18MOL   O67319067   5.311   1.375   4.589  0.1065  1.0201  0.1033
   18MOL   C67419068   5.317   1.607   4.530 -0.3072  0.1465  0.2203
   18MOL   C67519069   5.398   1.719   4.501  0.4678  0.6391  0.1831
   18MOL   C67619070   5.553   2.086   4.451  0.4563 -0.0582 -0.2034
   18MOL   C67719071   5.483   2.197   4.488  0.0851 -0.2661 -0.0854
   18MOL   C67819072   5.432   2.513   4.566 -0.0898  0.3188 -0.2511
   18MOL   C67919073   5.400   2.621   4.478  0.1893  0.0702  0.0015
   18MOL   C68019074   5.277   2.756   4.023 -0.4179  0.2269  0.3407
   18MOL   C68119075   5.351   2.731   3.907  0.1189 -0.6422 -0.3327
   18MOL   H68219076   5.655   2.678   4.056  0.2973 -0.8218 -0.9847
   18MOL   H68319077   5.508   2.697   4.264  1.4315  0.2663 -0.7522
   18MOL   H68419078   5.101   2.510   4.349  0.4097  0.5133 -1.3336
   18MOL   H68519079   5.156   2.321   4.506  0.5179 -0.3618 -1.2508
   18MOL   H68619080   5.375   2.092   4.799 -1.7976  2.1266 -1.2867
   18MOL   H68719081   5.471   1.874   4.705  0.5584 -0.2925 -0.2235
   18MOL   H68819082   5.687   1.743   4.304  0.0597  0.8825 -2.2104
   18MOL   H68919083   5.687   1.922   4.271 -0.7663  1.3951  0.3501
   18MOL   H69019084   5.541   1.817   4.264  0.2464  0.6164 -0.4547
   18MOL   H69119085   5.807   1.762   4.506  0.8363 -0.3841  1.4949
   18MOL   H69219086   5.806   1.939   4.505  1.5490 -0.5503  0.2026
   18MOL   H69319087   5.741   1.859   4.643  0.9232 -1.7741  0.0455
   18MOL   H69419088   5.710   1.584   4.537 -1.1556  1.6640 -1.9891
   18MOL   H69519089   5.581   1.404   4.621 -0.0814  0.3778  0.4481
   18MOL   H69619090   5.210   1.621   4.528 -0.2310  0.6847 -0.5567
   18MOL   H69719091   5.344   1.810   4.478 -3.2742 -0.9733  2.0929
   18MOL   H69819092   5.616   2.090   4.363  0.6276 -1.3148 -0.1482
   18MOL   H69919093   5.490   2.291   4.434  2.2179 -1.3169 -1.7243
   18MOL   H70019094   5.521   2.523   4.627 -1.4783 -2.6351  2.3936
   18MOL   H70119095   5.461   2.710   4.470  0.2540  0.0373  0.1277
   18MOL   H70219096   5.170   2.764   4.011 -0.8283 -1.8506  2.3763
   18MOL   H70319097   5.303   2.713   3.812  0.9306 -0.0475 -0.8677
   18MOL   C70419098   5.328   1.262   4.508 -0.0582  0.2795  0.7384
   18MOL   C70519099   5.424   1.166   4.531  0.4101 -0.3549 -0.2856
   18MOL   C70619100   5.424   1.053   4.441  0.1931  0.3797  0.4917
   18MOL   C70719101   5.330   1.044   4.334 -0.9548  0.5364  0.9132
   18MOL   S70819102   5.337   0.895   4.236 -0.5557  0.3365 -0.2122
   18MOL   O70919103   5.322   0.794   4.346  0.1450 -0.6967  0.8013
   18MOL   O71019104   5.467   0.903   4.164 -0.4151  0.2089 -0.3400
   18MOL   C71119105   5.197   0.891   4.127 -0.9680 -0.4419  0.0219
   18MOL   C71219106   5.214   0.889   3.989 -0.2290  0.8525 -0.4308
   18MOL   C71319107   5.100   0.899   3.906  0.0746 -0.7007  0.0672
   18MOL   C71419108   4.972   0.896   3.960  0.3179 -0.3766  0.1470
   18MOL   O71519109   4.857   0.903   3.883 -0.8851 -0.1306 -0.8774
   18MOL   C71619110   4.793   1.030   3.869  0.2498 -0.8474 -0.6690
   18MOL   C71719111   4.662   1.054   3.920  0.2924  0.4152 -0.1103
   18MOL   C71819112   4.598   1.181   3.885  0.2928 -0.4047 -0.1718
   18MOL   C71919113   4.666   1.285   3.820 -0.4194  0.4459 -0.3916
   18MOL   C72019114   4.615   1.417   3.772  0.1102  0.2798 -0.3157
   18MOL   C72119115   4.521   1.391   3.643  0.0360 -0.1886 -0.5647
   18MOL   C72219116   4.527   1.475   3.885  0.0015 -0.2149  0.8037
   18MOL   C72319117   4.719   1.527   3.744 -0.3360  0.5570  0.5035
   18MOL   C72419118   4.742   1.576   3.616 -0.0808  0.1180  0.4435
   18MOL   C72519119   4.830   1.686   3.596  0.5871 -0.1929 -0.0345
   18MOL   C72619120   4.899   1.741   3.702  0.3975  0.1755 -0.3127
   18MOL   O72719121   4.987   1.842   3.684  0.5758  0.9517  0.1324
   18MOL   C72819122   4.886   1.683   3.826  0.2028 -0.6568 -0.4617
   18MOL   C72919123   4.793   1.579   3.852  0.5648  0.0966  0.5889
   18MOL   C73019124   4.799   1.255   3.780 -0.3007  0.3396  0.1686
   18MOL   C73119125   4.858   1.130   3.797  0.5328 -0.1817  0.3680
   18MOL   C73219126   4.954   0.889   4.101 -0.4972  0.2823  0.0663
   18MOL   C73319127   5.070   0.895   4.180 -1.0795 -0.0378 -0.2793
   18MOL   C73419128   5.226   1.133   4.326 -0.3304 -0.8621 -0.2647
   18MOL   C73519129   5.227   1.244   4.413 -0.0800  0.3221 -0.9666
   18MOL   H73619130   5.497   1.177   4.610  1.0417 -0.9610 -0.7766
   18MOL   H73719131   5.509   0.989   4.453  0.1687  0.0887 -0.8499
   18MOL   H73819132   5.315   0.897   3.950 -0.0976  1.2954 -0.0027
   18MOL   H73919133   5.104   0.918   3.799  2.9148  3.2192  0.7504
   18MOL   H74019134   4.609   0.978   3.977 -0.0031  2.5007  2.4928
   18MOL   H74119135   4.492   1.188   3.906 -0.0292 -0.3838 -1.7597
   18MOL   H74219136   4.441   1.319   3.661  2.2657 -2.7265 -0.4188
   18MOL   H74319137   4.572   1.342   3.560 -1.7071  1.8493 -2.8953
   18MOL   H74419138   4.483   1.487   3.608  0.1857  0.4716  1.0317
   18MOL   H74519139   4.429   1.432   3.904 -0.3362 -0.5771 -1.5096
   18MOL   H74619140   4.572   1.473   3.984  1.8268  1.7677  0.0473
   18MOL   H74719141   4.497   1.576   3.856 -2.3716 -1.1086 -0.0206
   18MOL   H74819142   4.704   1.536   3.524 -1.6668  0.0160  1.1307
   18MOL   H74919143   4.847   1.724   3.496  0.9703  0.8319  0.4171
   18MOL   H75019144   4.950   1.725   3.902  1.6518 -1.0071 -1.4611
   18MOL   H75119145   4.779   1.534   3.949 -1.6766  0.7290  0.5985
   18MOL   H75219146   4.855   1.320   3.715  2.0410  0.0523  1.8444
   18MOL   H75319147   4.952   1.109   3.749  0.4513  0.8105 -0.2516
   18MOL   H75419148   4.855   0.883   4.145  0.6494 -2.6073  2.3736
   18MOL   H75519149   5.059   0.895   4.288  0.1683  0.3944 -0.1439
   18MOL   H75619150   5.144   1.131   4.255 -0.5056  1.7985 -0.1926
   18MOL   H75719151   5.148   1.317   4.417 -0.2642  0.1933 -2.1729
   18MOL   C75819152   4.975   1.932   3.584  0.0975  0.3661 -0.0812
   18MOL   C75919153   4.899   2.050   3.608 -0.0528  0.2509  0.3538
   18MOL   C76019154   4.889   2.149   3.505  0.8603  0.2411  0.0361
   18MOL   C76119155   4.954   2.132   3.381 -0.7136 -1.0605 -0.4227
   18MOL   S76219156   4.927   2.242   3.251  0.3315  0.1294  0.0262
   18MOL   O76319157   4.843   2.352   3.298 -0.0487  0.1712  0.2832
   18MOL   O76419158   4.882   2.162   3.140  0.2358  0.4768  0.1831
   18MOL   C76519159   5.092   2.312   3.214  0.0223 -0.8774 -0.1815
   18MOL   C76619160   5.170   2.367   3.316 -0.4744 -0.0906  0.2065
   18MOL   C76719161   5.297   2.425   3.282 -0.1854 -0.0688 -0.5071
   18MOL   C76819162   5.352   2.408   3.157  0.8398  0.0616 -0.1446
   18MOL   O76919163   5.472   2.463   3.114  0.3622 -0.1873  0.5637
   18MOL   C77019164   5.589   2.446   3.187  0.2281  0.3559 -0.2632
   18MOL   C77119165   5.660   2.324   3.178  0.0912  0.6093  0.2237
   18MOL   C77219166   5.784   2.311   3.246 -0.2424  0.2811 -0.7636
   18MOL   C77319167   5.843   2.419   3.310  0.1859 -0.3202 -0.2978
   18MOL   C77419168   5.974   2.408   3.389  0.3830 -0.2189 -0.6615
   18MOL   C77519169   6.029   2.538   3.465  0.4285 -0.0550 -0.0345
   18MOL   C77619170   5.942   2.296   3.498 -0.1506  0.8669  0.2509
   18MOL   C77719171   6.077   2.362   3.292 -0.5759  0.4625  0.5280
   18MOL   C77819172   6.159   2.243   3.319  0.0368 -0.4750 -0.1364
   18MOL   C77919173   6.263   2.205   3.230  0.1172  0.1137 -0.1334
   18MOL   C78019174   6.283   2.280   3.110  0.1399 -0.3614 -0.5586
   18MOL   O78119175   6.377   2.241   3.018  0.1371  0.1174 -0.6329
   18MOL   C78219176   6.201   2.393   3.092  0.5011 -0.5744  0.8072
   18MOL   C78319177   6.096   2.434   3.172  0.1061  1.0207  0.3200
   18MOL   C78419178   5.783   2.544   3.295 -0.0540 -0.3086 -0.3481
   18MOL   C78519179   5.652   2.558   3.244  0.5319  1.2747 -0.2261
   18MOL   C78619180   5.275   2.343   3.066 -0.3640  0.6406  0.3916
   18MOL   C78719181   5.147   2.293   3.084 -0.1316 -0.4395  0.1521
   18MOL   C78819182   5.032   2.018   3.356  0.0946  0.4121 -0.0357
   18MOL   C78919183   5.038   1.916   3.457  0.2025 -0.6312  0.1897
   18MOL   H79019184   4.858   2.086   3.701 -0.1791  0.8545  0.0646
   18MOL   H79119185   4.838   2.242   3.525 -0.6887 -0.8502  1.2534
   18MOL   H79219186   5.134   2.365   3.418 -0.3636 -1.3973  0.2276
   18MOL   H79319187   5.365   2.468   3.354 -1.8608  2.1977 -0.2322
   18MOL   H79419188   5.622   2.234   3.132  0.5633  1.0409 -1.0383
   18MOL   H79519189   5.837   2.217   3.237 -2.3528 -1.1968  1.7447
   18MOL   H79619190   6.041   2.614   3.388 -1.1095 -1.1215 -1.3655
   18MOL   H79719191   6.129   2.509   3.496  1.3380  3.6188  0.7149
   18MOL   H79819192   5.972   2.556   3.556  2.1311  1.8956  0.6760
   18MOL   H79919193   6.024   2.269   3.565 -0.7419  1.3259  1.1642
   18MOL   H80019194   5.861   2.336   3.559  0.0748  2.1906 -0.2905
   18MOL   H80119195   5.923   2.206   3.439 -1.0124  1.8479 -1.0080
   18MOL   H80219196   6.143   2.183   3.407  2.3092 -1.7771 -0.5535
   18MOL   H80319197   6.317   2.112   3.245 -1.9878 -1.1339 -0.1173
   18MOL   H80419198   6.205   2.444   2.997 -1.7912  0.5820  1.3035
   18MOL   H80519199   6.026   2.511   3.146  0.7825  1.4939 -0.1292
   18MOL   H80619200   5.833   2.632   3.333 -0.6675 -0.4583  0.8121
   18MOL   H80719201   5.604   2.655   3.243 -1.1728  0.4315 -1.5527
   18MOL   H80819202   5.314   2.332   2.966  1.7157 -2.1730  1.4335
   18MOL   H80919203   5.084   2.247   3.010 -0.0794  0.4236 -0.4281
   18MOL   H81019204   5.071   2.000   3.256  2.3576  3.3511  0.2505
   18MOL   H81119205   5.091   1.822   3.446 -0.0341 -0.9546  1.6457
   18MOL   C81219206   6.375   2.124   2.957  0.1761  0.6590 -0.2866
   18MOL   C81319207   6.466   2.019   2.989 -0.8049 -0.2799  0.2435
   18MOL   C81419208   6.447   1.896   2.924  0.5254 -0.1465  0.4415
   18MOL   C81519209   6.349   1.877   2.830  0.1138  0.5451  0.5114
   18MOL   S81619210   6.323   1.713   2.758  0.1278  0.3505  0.4376
   18MOL   O81719211   6.194   1.655   2.798 -0.2031 -0.2297  0.2280
   18MOL   O81819212   6.452   1.646   2.789  0.0405 -0.6200  0.3828
   18MOL   C81919213   6.314   1.746   2.581 -0.6338  0.6272 -0.0863
   18MOL   C82019214   6.425   1.751   2.499  0.3327  0.4051 -0.1398
   18MOL   C82119215   6.416   1.770   2.359  0.3907 -0.3795  0.3913
   18MOL   C82219216   6.292   1.801   2.303  0.3545  0.4728 -0.3891
   18MOL   O82319217   6.282   1.821   2.168  0.2301 -0.4289  0.0802
   18MOL   C82419218   6.262   1.709   2.093 -0.0584  0.9276 -0.5091
   18MOL   C82519219   6.373   1.627   2.070 -0.2783  0.2434 -0.3925
   18MOL   C82619220   6.351   1.510   1.984 -0.1269  0.0117  0.0607
   18MOL   C82719221   6.219   1.467   1.949 -0.5342  0.0475  0.3993
   18MOL   C82819222   6.198   1.346   1.852  0.0411  0.1154  0.5883
   18MOL   C82919223   6.160   1.401   1.717  0.0352 -0.3162 -0.1247
   18MOL   C83019224   6.323   1.262   1.832  0.4207  0.3453  0.1546
   18MOL   C83119225   6.082   1.263   1.918 -0.2522  0.5030 -0.1318
   18MOL   C83219226   6.104   1.204   2.043  0.1561  0.6904 -0.5676
   18MOL   C83319227   6.003   1.127   2.101 -0.0517  0.1721  0.5450
   18MOL   C83419228   5.876   1.111   2.040  0.1418 -0.6639 -0.1449
   18MOL   O83519229   5.786   1.022   2.101 -0.5377  0.1345  0.2007
   18MOL   C83619230   5.854   1.172   1.914  0.3126  0.0648  0.4013
   18MOL   C83719231   5.955   1.244   1.852 -0.8123 -0.8408 -0.8714
   18MOL   C83819232   6.109   1.543   1.991 -0.0221  0.6704 -0.2447
   18MOL   C83919233   6.130   1.663   2.057  0.2305  0.1878 -0.3870
   18MOL   C84019234   6.178   1.809   2.383  0.4742 -0.0570  0.2221
   18MOL   C84119235   6.193   1.779   2.521 -0.0930 -0.1264  0.1099
   18MOL   C84219236   6.267   1.985   2.790  0.7258  0.0227 -0.1565
   18MOL   C84319237   6.277   2.114   2.853  0.2596  0.2347 -0.9210
   18MOL   H84419238   6.539   2.040   3.067  1.0695 -1.6415 -1.0902
   18MOL   H84519239   6.506   1.810   2.951 -0.8289 -1.5074 -0.8124
   18MOL   H84619240   6.520   1.728   2.546  0.6167  0.9140 -0.4591
   18MOL   H84719241   6.501   1.772   2.293  0.4399  2.1436  0.4884
   18MOL   H84819242   6.471   1.664   2.098 -0.4622 -0.2593  0.9464
   18MOL   H84919243   6.441   1.459   1.950 -1.8949 -1.5319 -2.4560
   18MOL   H85019244   6.075   1.468   1.712  0.7587  0.4311 -3.0460
   18MOL   H85119245   6.127   1.329   1.642  1.3725  0.5753 -1.6041
   18MOL   H85219246   6.241   1.457   1.670  0.0448  0.8199  1.2019
   18MOL   H85319247   6.403   1.314   1.780  0.9683 -0.4393  0.2082
   18MOL   H85419248   6.364   1.232   1.928  1.6075  0.2953 -0.3626
   18MOL   H85519249   6.298   1.174   1.773  0.0106  0.7793 -0.3380
   18MOL   H85619250   6.199   1.219   2.092 -0.4471  1.1851  0.4836
   18MOL   H85719251   6.027   1.089   2.199 -1.6068  1.9682  1.6750
   18MOL   H85819252   5.768   1.156   1.850  1.0865 -0.9570 -0.4097
   18MOL   H85919253   5.934   1.274   1.750  0.3619  3.0478 -0.0667
   18MOL   H86019254   6.009   1.508   1.968  0.8816 -1.4487 -1.0837
   18MOL   H86119255   6.046   1.726   2.084  0.0741  0.0907 -0.6442
   18MOL   H86219256   6.082   1.821   2.336  0.2300 -0.6041  0.5780
   18MOL   H86319257   6.101   1.773   2.576 -0.2498  1.8125  0.1002
   18MOL   H86419258   6.187   1.959   2.722  0.4345 -1.8795  0.8957
   18MOL   H86519259   6.212   2.193   2.816 -0.9695 -0.8008 -1.0168
   18MOL   C86619260   5.647   1.037   2.070  0.2193  0.1494 -0.2263
   18MOL   C86719261   5.580   1.158   2.089  0.0765 -0.1413  0.3994
   18MOL   C86819262   5.456   1.169   2.024  0.4686 -0.8824  0.7207
   18MOL   C86919263   5.387   1.064   1.968  0.7499 -0.6621  0.1620
   18MOL   S87019264   5.219   1.084   1.902 -0.0598 -0.0507  0.0437
   18MOL   O87119265   5.171   1.221   1.934 -0.6205 -0.3657  0.0367
   18MOL   O87219266   5.135   0.974   1.951 -0.3455  0.0864 -0.3317
   18MOL   C87319267   5.239   1.072   1.728 -0.0193 -0.0135  0.4519
   18MOL   C87419268   5.213   1.183   1.643 -0.2846  0.1912 -0.0715
   18MOL   C87519269   5.231   1.167   1.503 -0.1834  0.1021  0.4078
   18MOL   C87619270   5.263   1.042   1.452 -0.0954  0.1360 -0.4412
   18MOL   O87719271   5.265   1.035   1.314  0.0019  0.2825 -0.3793
   18MOL   C87819272   5.209   0.919   1.265 -0.0990 -0.3430 -0.3106
   18MOL   C87919273   5.073   0.897   1.274  0.2734 -0.3827  0.2003
   18MOL   C88019274   5.018   0.775   1.228  0.2053 -0.5536 -0.3850
   18MOL   C88119275   5.095   0.676   1.174  0.9565  1.1613 -0.3575
   18MOL   C88219276   5.027   0.545   1.117  0.2296  0.4474 -0.0627
   18MOL   C88319277   4.908   0.497   1.198  0.2955  0.1996  0.1833
   18MOL   C88419278   4.988   0.589   0.973  0.0393 -0.0547  0.2659
   18MOL   C88519279   5.116   0.417   1.118 -0.7834 -0.0385  0.1362
   18MOL   C88619280   5.125   0.328   1.004 -0.6816  0.0382 -0.7019
   18MOL   C88719281   5.191   0.202   1.009 -0.6649 -0.9463 -0.5771
   18MOL   C88819282   5.264   0.177   1.126 -0.1172 -0.4318  0.0355
   18MOL   O88919283   5.341   0.063   1.127 -0.2645 -0.1877 -0.0451
   18MOL   C89019284   5.269   0.272   1.228 -0.4766  0.8093  0.3949
   18MOL   C89119285   5.180   0.383   1.233 -0.2060  0.1172  0.8527
   18MOL   C89219286   5.232   0.704   1.156  0.1142 -0.0761  0.3315
   18MOL   C89319287   5.289   0.820   1.211  0.5631 -0.3446  0.3763
   18MOL   C89419288   5.299   0.931   1.535 -0.4480  0.5534  0.0413
   18MOL   C89519289   5.275   0.947   1.670 -0.2432 -0.5290 -0.0017
   18MOL   C89619290   5.454   0.940   1.955 -0.3562  0.1912  0.2571
   18MOL   C89719291   5.589   0.931   1.999 -0.5340  0.3898 -0.3681
   18MOL   H89819292   5.638   1.243   2.122 -0.8622  2.3712 -4.0723
   18MOL   H89919293   5.410   1.267   2.019 -0.1367 -1.2545 -1.5020
   18MOL   H90019294   5.179   1.274   1.691 -2.6643  0.0880 -1.5152
   18MOL   H90119295   5.206   1.247   1.435 -0.5798  0.3734  0.8690
   18MOL   H90219296   5.014   0.972   1.323  1.8710  0.7611  0.4347
   18MOL   H90319297   4.912   0.767   1.246  0.0207  3.2093  0.6326
   18MOL   H90419298   4.876   0.405   1.149 -0.1007 -1.0835  2.7546
   18MOL   H90519299   4.821   0.562   1.189 -0.0216 -0.4425 -1.5807
   18MOL   H90619300   4.929   0.468   1.301  4.2294 -1.5857 -1.0271
   18MOL   H90719301   4.915   0.670   0.968 -0.5538 -0.6287 -0.3040
   18MOL   H90819302   5.081   0.614   0.922  1.7905 -1.4361  2.7174
   18MOL   H90919303   4.942   0.510   0.914  1.4345 -0.0820 -0.8178
   18MOL   H91019304   5.062   0.337   0.917 -1.6321 -0.4082 -0.0672
   18MOL   H91119305   5.186   0.124   0.935 -0.3634  0.4744 -2.1012
   18MOL   H91219306   5.325   0.244   1.316  1.2076 -2.3296 -1.6136
   18MOL   H91319307   5.183   0.445   1.322 -1.9075  0.5944  0.5950
   18MOL   H91419308   5.295   0.633   1.104 -1.5221  0.2307 -2.1413
   18MOL   H91519309   5.396   0.833   1.200  0.4578  0.5413  0.3326
   18MOL   H91619310   5.336   0.842   1.486  0.1066  0.3233  0.8839
   18MOL   H91719311   5.288   0.866   1.741 -2.4289 -0.1392  0.8880
   18MOL   H91819312   5.420   0.847   1.911 -0.9088 -0.0226  1.1249
   18MOL   H91919313   5.650   0.846   1.973 -1.2099 -0.4256  0.6635
   18MOL   C92019314   5.322   8.213   1.212 -0.6335 -0.4637  0.6546
   18MOL   C92119315   5.395   8.098   1.183 -0.2336  0.0219  0.1029
   18MOL   C92219316   5.378   7.983   1.264  0.1781  0.1102  0.6386
   18MOL   C92319317   5.288   7.987   1.374 -0.1994  0.6580  0.1269
   18MOL   S92419318   5.281   7.851   1.485 -0.0405 -0.0683 -0.1405
   18MOL   O92519319   5.209   7.886   1.605  0.0182 -0.0377 -0.1375
   18MOL   O92619320   5.419   7.800   1.501 -0.2689  0.1615 -0.0009
   18MOL   C92719321   5.190   7.727   1.400  0.3824  0.5482  0.5195
   18MOL   C92819322   5.091   7.774   1.310  0.8090  0.0672  0.3176
   18MOL   C92919323   5.015   7.681   1.242  0.3480  0.0809  0.0495
   18MOL   C93019324   5.057   7.543   1.246 -0.0341  0.2213  0.6274
   18MOL   O93119325   5.004   7.451   1.150  0.1150 -0.2751  0.0176
   18MOL   C93219326   4.910   7.497   1.056  0.4130  0.0949 -0.0382
   18MOL   C93319327   4.774   7.461   1.066  0.2599  0.0685  0.3372
   18MOL   C93419328   4.686   7.491   0.964  0.5153  0.4338 -0.3557
   18MOL   C93519329   4.721   7.569   0.856  0.1405  0.4881 -0.2607
   18MOL   C93619330   4.620   7.611   0.751 -0.3904  0.2317  0.1295
   18MOL   C93719331   4.480   7.631   0.824  1.1370  0.5975  0.7776
   18MOL   C93819332   4.658   7.745   0.675  0.2450 -0.5271  0.3000
   18MOL   C93919333   4.598   7.503   0.641 -0.0273 -1.0951 -0.1742
   18MOL   C94019334   4.480   7.509   0.566 -0.0666 -0.4088  0.1238
   18MOL   C94119335   4.457   7.401   0.476  0.1629  0.3782 -0.6062
   18MOL   C94219336   4.548   7.293   0.461  0.5518  0.0560 -0.7176
   18MOL   O94319337   4.519   7.192   0.370  0.0397  0.4834  0.4434
   18MOL   C94419338   4.664   7.296   0.531 -0.1210  0.8203  0.0926
   18MOL   C94519339   4.689   7.394   0.627 -0.0664  0.5898  0.3758
   18MOL   C94619340   4.861   7.598   0.839 -0.1199  0.1014  0.0507
   18MOL   C94719341   4.955   7.556   0.936  0.4413 -0.8128  0.0201
   18MOL   C94819342   5.155   7.497   1.337  0.4020 -0.6682  0.1900
   18MOL   C94919343   5.224   7.593   1.417  0.1297 -0.7201  0.4671
   18MOL   C95019344   5.222   8.104   1.407  1.3981 -0.4348 -0.0671
   18MOL   C95119345   5.238   8.221   1.327 -0.3294 -0.1123 -0.8111
   18MOL   H95219346   5.458   8.090   1.096  0.1810 -1.0080  0.4888
   18MOL   H95319347   5.425   7.889   1.239  2.2442  0.9643  1.1970
   18MOL   H95419348   5.066   7.879   1.307  0.1229 -0.0354  1.8139
   18MOL   H95519349   4.938   7.712   1.173  0.9878  3.0106  0.5908
   18MOL   H95619350   4.726   7.401   1.142  1.2015 -0.4107  0.5640
   18MOL   H95719351   4.584   7.463   0.985  0.6067  0.3157 -0.0718
   18MOL   H95819352   4.419   7.544   0.850  1.9027 -1.0445 -2.6371
   18MOL   H95919353   4.414   7.695   0.765 -1.0068 -2.1637  0.0543
   18MOL   H96019354   4.492   7.696   0.910  1.0651  0.3368  0.9839
   18MOL   H96119355   4.687   7.824   0.745 -1.1462  0.3681 -0.1164
   18MOL   H96219356   4.751   7.726   0.622  0.7175  0.8433  0.6073
   18MOL   H96319357   4.574   7.788   0.620  0.7416  0.4010  0.2579
   18MOL   H96419358   4.408   7.589   0.562  0.1557 -0.2976 -2.3157
   18MOL   H96519359   4.362   7.396   0.425 -0.3975  3.7524 -0.0315
   18MOL   H96619360   4.738   7.218   0.521 -0.2450  0.7951 -0.6375
   18MOL   H96719361   4.767   7.372   0.698  0.5554  2.9582  0.4803
   18MOL   H96819362   4.894   7.655   0.753  3.1638 -2.3744 -0.4329
   18MOL   H96919363   5.057   7.590   0.921  0.2108 -1.3825 -3.3280
   18MOL   H97019364   5.179   7.392   1.332  0.5779 -0.6901  1.2923
   18MOL   H97119365   5.307   7.561   1.480  0.0527 -0.7704  0.5427
   18MOL   H97219366   5.168   8.107   1.500 -1.1890 -2.7929 -1.4004
   18MOL   H97319367   5.194   0.062   1.356 -2.7407 -0.9979 -1.4770
   18MOL   C97419368   4.469   7.072   0.417 -0.2507 -0.3647 -0.3170
   18MOL   C97519369   4.339   7.034   0.387 -0.5106 -0.8182 -0.3794
   18MOL   C97619370   4.285   6.919   0.448 -0.6024  0.5966 -0.6475
   18MOL   C97719371   4.361   6.841   0.540  0.7247  0.0880  0.2297
   18MOL   S97819372   4.288   6.694   0.619  0.7144 -0.2971  0.0044
   18MOL   O97919373   4.176   6.643   0.536 -0.2597 -0.6285  0.1944
   18MOL   O98019374   4.265   6.728   0.759 -0.1760 -0.0306  0.1044
   18MOL   C98119375   4.415   6.571   0.614 -0.1463 -0.5605  0.2563
   18MOL   C98219376   4.450   6.537   0.482  0.3992  0.0287 -0.4447
   18MOL   C98319377   4.545   6.437   0.453  0.2652 -0.3034 -0.0083
   18MOL   C98419378   4.595   6.375   0.571 -1.4200 -0.0445 -0.5123
   18MOL   O98519379   4.674   6.263   0.560 -0.5920 -0.3993 -0.2956
   18MOL   C98619380   4.709   6.209   0.440 -0.6365 -0.2167  0.9253
   18MOL   C98719381   4.802   6.283   0.364  0.0166 -0.4636 -0.3330
   18MOL   C98819382   4.835   6.235   0.235  0.5614 -0.3621  0.1731
   18MOL   C98919383   4.777   6.115   0.181  0.4681 -0.0795  1.1955
   18MOL   C99019384   4.797   6.072   0.033 -0.1098  0.0998 -0.1905
   18MOL   C99119385   4.902   6.160   8.203  0.2465  0.1910 -0.8505
   18MOL   C99219386   4.846   5.922   0.029  0.9681 -0.2890  0.3465
   18MOL   C99319387   4.662   6.083   8.214 -0.3655  0.0678 -0.0835
   18MOL   C99419388   4.599   6.210   8.207 -0.3196 -0.1085  0.4164
   18MOL   C99519389   4.468   6.225   8.150  0.1470  0.4302 -0.6912
   18MOL   C99619390   4.398   6.111   8.098 -0.3349 -0.1182 -0.3637
   18MOL   O99719391   4.267   6.115   8.050 -0.4183  0.0976 -0.4118
   18MOL   C99819392   4.460   5.984   8.110 -0.0764 -0.3600  0.2744
   18MOL   C99919393   4.590   5.971   8.158  0.5024  1.0808 -0.4907
   18MOL     C119394   4.684   6.051   0.259  0.0388  0.2539  0.6790
   18MOL     C219395   4.654   6.089   0.391 -0.2902 -0.4288 -0.2465
   18MOL     C319396   4.565   6.418   0.706  0.4257  0.2913 -0.0722
   18MOL     C419397   4.478   6.518   0.724  0.6247 -0.1640  0.0797
   18MOL     C519398   4.501   6.877   0.561  0.2777  0.5462 -0.6099
   18MOL     C619399   4.555   6.990   0.498  0.0328  0.1180 -0.4710
   18MOL     H719400   4.288   7.090   0.310  0.8039 -3.1415 -3.0348
   18MOL     H819401   4.183   6.886   0.437 -0.2375 -0.8531  0.1566
   18MOL     H919402   4.392   6.583   0.404  1.0072  2.4425  0.4686
   18MOL    H1019403   4.559   6.398   0.353 -2.0348 -1.2245  0.0139
   18MOL    H1119404   4.837   6.377   0.403  2.2504 -1.1100 -0.7378
   18MOL    H1219405   4.909   6.299   0.191 -1.5431  1.5684 -0.6478
   18MOL    H1319406   4.875   6.264   8.224  1.7067 -0.1613  3.3261
   18MOL    H1419407   4.909   6.150   8.095  3.5725  1.1136 -0.7950
   18MOL    H1519408   5.000   6.134   8.242 -0.6189  0.8217  1.8993
   18MOL    H1619409   4.774   5.854   0.074  0.8288 -0.3525  0.0298
   18MOL    H1719410   4.863   5.903   8.176  0.0852 -0.2039  0.1842
   18MOL    H1819411   4.937   5.939   0.088 -0.2217  1.1469  1.8074
   18MOL    H1919412   4.651   6.295   8.250 -1.4997  0.7382  0.2139
   18MOL    H2019413   4.418   6.320   8.162 -1.0620  0.0040 -2.1720
   18MOL    H2119414   4.416   5.890   8.078 -0.1106 -0.0945 -0.4590
   18MOL    H2219415   4.623   5.869   8.171  0.3140  1.0753 -0.0604
   18MOL    H2319416   4.640   5.960   0.219  0.1332  0.3709  0.3053
   18MOL    H2419417   4.580   6.037   0.450 -0.4732  2.1340  1.8369
   18MOL    H2519418   4.605   6.363   0.791 -1.0226  0.8467  0.9748
   18MOL    H2619419   4.444   6.541   0.824  1.5561  0.2308  0.3088
   18MOL    H2719420   4.563   6.812   0.621 -0.3186 -0.6215 -1.2525
   18MOL    H2819421   4.658   7.019   0.513  0.0340  0.5220 -1.2226
   18MOL    C2919422   4.163   6.109   8.140  0.2736  0.3576 -0.6214
   18MOL    C3019423   4.105   5.987   8.168  0.3998  0.1954 -0.7745
   18MOL    C3119424   4.002   5.969   0.012  0.2603 -0.3611  0.4156
   18MOL    C3219425   3.951   6.089   0.069 -0.6863  0.5807 -0.4105
   18MOL    S3319426   3.810   6.076   0.180 -0.0609  0.2313 -0.1320
   18MOL    O3419427   3.762   6.208   0.225  0.0835 -0.1271 -0.5557
   18MOL    O3519428   3.852   5.978   0.282 -0.6783  0.3754  0.1364
   18MOL    C3619429   3.683   6.003   0.076 -0.2726 -0.8132  0.0371
   18MOL    C3719430   3.564   5.951   0.135 -0.0765 -0.9379  0.1543
   18MOL    C3819431   3.461   5.902   0.063  0.2426  0.4995 -0.1377
   18MOL    C3919432   3.472   5.888   8.175  0.1504 -0.0115 -0.4459
   18MOL    O4019433   3.367   5.840   8.104 -0.7168  0.3885  0.3616
   18MOL    C4119434   3.345   5.703   8.092 -0.1442 -0.4171  0.3047
   18MOL    C4219435   3.452   5.614   8.091 -0.4129  0.3722  0.6003
   18MOL    C4319436   3.430   5.473   8.075  0.2991  0.4277 -0.3544
   18MOL    C4419437   3.297   5.426   8.056 -0.5154  0.3316 -0.1688
   18MOL    C4519438   3.269   5.278   8.020  0.0509  0.6524  0.3139
   18MOL    C4619439   3.206   5.283   7.884 -0.3655  0.2191 -0.1108
   18MOL    C4719440   3.395   5.195   7.998 -0.2665 -0.1484 -0.3619
   18MOL    C4819441   3.172   5.213   8.123  0.0785 -0.4661 -0.0809
   18MOL    C4919442   3.220   5.135   8.228  0.4219  0.1126 -0.8851
   18MOL    C5019443   3.135   5.075   0.069  0.0885  0.1364 -0.5324
   18MOL    C5119444   2.996   5.102   0.059  0.4368  0.1899 -0.3994
   18MOL    O5219445   2.910   5.047   0.147 -0.0028  0.7305 -0.1215
   18MOL    C5319446   2.944   5.180   8.208  0.0580  0.5378 -0.2219
   18MOL    C5419447   3.029   5.231   8.110  0.0546  0.2854  0.3057
   18MOL    C5519448   3.188   5.514   8.059 -0.2074 -0.3322 -0.3288
   18MOL    C5619449   3.212   5.657   8.073  0.1730 -0.0645 -0.1874
   18MOL    C5719450   3.592   5.928   8.114  0.1297 -0.7973 -0.1778
   18MOL    C5819451   3.689   5.999   8.190 -0.3657  0.3127 -0.0408
   18MOL    C5919452   4.000   6.214   0.030 -0.2022  0.2517  0.5348
   18MOL    C6019453   4.107   6.228   8.191 -0.1773 -0.3696 -0.1783
   18MOL    H6119454   4.136   5.896   8.118 -1.1650 -1.3641  1.0356
   18MOL    H6219455   3.971   5.868   0.029  1.3459 -0.6409  0.8141
   18MOL    H6319456   3.555   5.936   0.242 -1.8670  0.4095  0.2076
   18MOL    H6419457   3.378   5.856   0.114 -0.6228  2.3815  0.2200
   18MOL    H6519458   3.555   5.644   8.101 -0.0787  0.2445 -2.1163
   18MOL    H6619459   3.519   5.413   8.061 -1.1772 -1.7772 -0.5512
   18MOL    H6719460   3.274   5.339   7.820 -0.2654 -0.3740 -0.5251
   18MOL    H6819461   3.113   5.339   7.880 -1.4607 -1.5867 -0.3417
   18MOL    H6919462   3.171   5.190   7.840 -2.1097  0.2947  1.0449
   18MOL    H7019463   3.457   5.231   7.916  0.9156 -0.5614  0.3343
   18MOL    H7119464   3.463   5.183   8.082 -0.0571 -0.8597 -0.6272
   18MOL    H7219465   3.380   5.089   7.978  2.4010 -0.8665  1.1690
   18MOL    H7319466   3.326   5.123   8.242  0.5866  0.3643 -1.9033
   18MOL    H7419467   3.176   5.026   0.155 -2.1638 -2.3343 -0.7969
   18MOL    H7519468   2.838   5.197   8.198 -0.4243 -1.7039  0.7632
   18MOL    H7619469   2.983   5.296   8.037  0.5914  1.1279  0.7007
   18MOL    H7719470   3.089   5.487   8.027 -0.4794  1.7029 -1.3098
   18MOL    H7819471   3.127   5.721   8.060 -0.3650 -0.4778  1.1635
   18MOL    H7919472   3.613   5.920   8.008 -0.6300 -0.9573 -0.3224
   18MOL    H8019473   3.778   6.034   8.140 -0.5554 -0.3845 -0.8866
   18MOL    H8119474   3.953   6.292   0.089 -1.1153 -0.7819  1.1957
   18MOL    H8219475   4.153   6.323   8.166 -0.2553 -0.1250  0.5839
   18MOL    H8319476   2.965   5.005   0.211 -0.4654 -0.7821 -0.6817
   19MOL     C119477   0.318   6.211   0.607 -0.5984 -0.6164 -0.5227
   19MOL     C219478   0.431   6.220   0.691  0.0768  0.5835  0.4408
   19MOL     C319479   0.546   6.274   0.623 -0.0759  0.3874  0.2143
   19MOL     C419480   0.554   6.294   0.484 -0.4238 -0.4161 -0.0770
   19MOL     S519481   0.700   6.344   0.396  0.1370  0.1440  0.2595
   19MOL     O619482   0.714   6.489   0.430  0.4415 -0.1694  0.7285
   19MOL     O719483   0.689   6.287   0.262 -0.1730 -0.0724  0.4965
   19MOL     C819484   0.839   6.259   0.464 -0.1777 -0.0255 -0.5108
   19MOL     C919485   0.846   6.117   0.468  1.1444 -0.2939 -0.5063
   19MOL    C1019486   0.959   6.045   0.521  0.2005 -0.2331  1.1362
   19MOL    C1119487   1.062   6.124   0.579  0.0738  0.2934 -0.3214
   19MOL    O1219488   1.167   6.068   0.637 -0.1616 -0.4786 -0.1052
   19MOL    C1319489   1.167   5.943   0.687 -1.0844  0.2777 -0.2714
   19MOL    C1419490   1.268   5.856   0.651 -0.0478  0.1248 -0.2676
   19MOL    C1519491   1.281   5.726   0.710 -0.4361  0.1327 -0.0980
   19MOL    C1619492   1.176   5.678   0.793  1.2160 -0.3099 -0.6247
   19MOL    C1719493   1.174   5.531   0.853  1.1136 -0.8960 -0.9185
   19MOL    C1819494   1.204   5.544   1.010  0.3919  0.9278  0.2972
   19MOL    C1919495   1.037   5.465   0.842 -0.9297 -0.1165  1.0356
   19MOL    C2019496   1.270   5.442   0.775  0.1186 -0.2749 -0.5188
   19MOL    C2119497   1.252   5.396   0.643  0.6364  0.2027  0.1547
   19MOL    C2219498   1.347   5.319   0.570 -0.2119  0.3153 -0.9467
   19MOL    C2319499   1.468   5.283   0.633 -0.1240 -0.1307 -0.4084
   19MOL    O2419500   1.558   5.207   0.560 -0.1433  0.1778 -0.3447
   19MOL    C2519501   1.484   5.323   0.766 -0.0581  0.1746  0.3946
   19MOL    C2619502   1.391   5.406   0.834 -0.5011  0.0313 -0.0717
   19MOL    C2719503   1.069   5.768   0.824  0.0324  0.1946 -0.1151
   19MOL    C2819504   1.070   5.900   0.773 -0.2655 -0.7722  0.4844
   19MOL    C2919505   1.054   6.270   0.585  0.1686  0.6529 -0.3990
   19MOL    C3019506   0.940   6.336   0.529 -0.2893  0.0026 -0.3037
   19MOL    C3119507   0.432   6.297   0.410  0.2419  0.1616 -0.2066
   19MOL    C3219508   0.315   6.249   0.473  0.3881  0.4603 -0.4056
   19MOL    H3319509   0.417   6.179   0.790 -0.9577  1.2366  0.5700
   19MOL    H3419510   0.634   6.287   0.685  0.2809  0.5018 -0.3129
   19MOL    H3519511   0.765   6.067   0.416  0.4927 -0.5119  0.6877
   19MOL    H3619512   0.964   5.937   0.518 -3.0354 -0.3861 -0.3781
   19MOL    H3719513   1.335   5.877   0.569 -0.4528 -0.3149 -0.7137
   19MOL    H3819514   1.366   5.667   0.678  0.6281  1.2506  0.6412
   19MOL    H3919515   1.212   5.448   1.060  1.9370  0.0570 -1.5386
   19MOL    H4019516   1.122   5.600   1.055 -0.8010  0.4606 -1.2246
   19MOL    H4119517   1.296   5.602   1.018  1.6128 -0.5888 -2.1006
   19MOL    H4219518   1.017   5.458   0.735  1.0161 -1.8143  0.7442
   19MOL    H4319519   1.053   5.359   0.865 -0.2180 -0.8640 -2.5632
   19MOL    H4419520   0.960   5.514   0.901 -0.2073  0.7861  1.2359
   19MOL    H4519521   1.162   5.417   0.587  1.3749  0.4548 -0.9403
   19MOL    H4619522   1.341   5.291   0.466  0.3309 -0.7192 -0.7041
   19MOL    H4719523   1.575   5.298   0.818  0.1405  0.3738  0.1496
   19MOL    H4819524   1.425   5.443   0.930 -3.1074  0.7900  0.6104
   19MOL    H4919525   0.995   5.747   0.900  0.5872  1.1912  0.7150
   19MOL    H5019526   0.998   5.977   0.798  2.7680  1.9452  1.1237
   19MOL    H5119527   1.121   6.328   0.647  0.7050 -1.3856  0.9519
   19MOL    H5219528   0.925   6.442   0.539 -0.6489 -0.1171  0.4521
   19MOL    H5319529   0.427   6.325   0.305  2.2051 -0.9912 -0.6456
   19MOL    H5419530   0.220   6.235   0.423 -0.6180 -2.4619  2.1262
   19MOL    H5519531   0.234   6.158   0.648 -0.3252 -2.0102 -1.7234
   19MOL    C5619532   1.641   5.121   0.636  0.1381  0.1814 -1.4563
   19MOL    C5719533   1.777   5.140   0.621 -0.2019 -0.4035  0.2608
   19MOL    C5819534   1.873   5.064   0.693  0.2680  0.0513  0.1109
   19MOL    C5919535   1.828   4.953   0.768  0.2259 -0.7454 -0.0280
   19MOL    S6019536   1.947   4.849   0.847  0.4002 -0.1818  0.2011
   19MOL    O6119537   2.012   4.767   0.744 -0.1200  0.2988  0.2961
   19MOL    O6219538   1.883   4.783   0.963  0.0224 -0.7399 -0.1372
   19MOL    C6319539   2.073   4.953   0.924 -0.6591  0.2134 -0.1975
   19MOL    C6419540   2.187   4.990   0.848  0.1138  1.1092 -0.2860
   19MOL    C6519541   2.294   5.074   0.898 -0.0296 -0.3992  0.8940
   19MOL    C6619542   2.280   5.113   1.031  0.3472 -0.0217  0.3365
   19MOL    O6719543   2.383   5.192   1.088 -0.0402 -0.3305  0.0002
   19MOL    C6819544   2.401   5.318   1.041 -0.6032  0.9231  0.1512
   19MOL    C6919545   2.500   5.336   0.953 -0.2512 -0.6740  0.5406
   19MOL    C7019546   2.540   5.460   0.907  0.7160 -0.2574  0.6831
   19MOL    C7119547   2.476   5.575   0.951  0.2651 -0.2769 -0.1313
   19MOL    C7219548   2.512   5.712   0.897  0.0607 -0.2561  0.0366
   19MOL    C7319549   2.411   5.822   0.934 -0.5428 -0.7837 -0.6079
   19MOL    C7419550   2.642   5.740   0.960  0.8878 -0.2750 -0.3955
   19MOL    C7519551   2.518   5.722   0.745 -0.4338 -0.5087  0.4643
   19MOL    C7619552   2.413   5.665   0.666  0.3953  0.9159 -0.4779
   19MOL    C7719553   2.418   5.671   0.527  0.4765 -0.0813  0.0136
   19MOL    C7819554   2.531   5.720   0.457 -0.0492  0.2900 -0.2635
   19MOL    O7919555   2.548   5.730   0.320  0.1129  0.6410 -0.1332
   19MOL    C8019556   2.637   5.767   0.537 -0.5053 -0.7393  0.3928
   19MOL    C8119557   2.627   5.783   0.677  0.3011  0.7702 -0.3558
   19MOL    C8219558   2.368   5.560   1.042 -0.3176 -0.1254 -0.2353
   19MOL    C8319559   2.324   5.429   1.088  0.5632  0.6499 -0.3049
   19MOL    C8419560   2.170   5.075   1.106 -0.0233 -0.1025  0.3018
   19MOL    C8519561   2.062   4.997   1.054 -0.1338 -0.1703 -0.5479
   19MOL    C8619562   1.688   4.923   0.780 -0.2366  0.2119  0.4386
   19MOL    C8719563   1.595   5.009   0.714 -0.4400 -0.1156  0.3305
   19MOL    H8819564   1.808   5.224   0.561 -2.5290  1.2794  1.3285
   19MOL    H8919565   1.981   5.076   0.690  0.5297 -2.1018 -0.0334
   19MOL    H9019566   2.192   4.947   0.749  1.8214 -0.9229  0.6588
   19MOL    H9119567   2.367   5.103   0.824 -2.5120 -2.0570 -2.3313
   19MOL    H9219568   2.552   5.251   0.910  0.2306 -0.1347  0.0459
   19MOL    H9319569   2.622   5.463   0.838  0.8866  1.4421  0.9523
   19MOL    H9419570   2.401   5.830   1.043 -1.9726 -1.5222 -0.6796
   19MOL    H9519571   2.311   5.806   0.894 -0.2768 -1.0936 -1.1501
   19MOL    H9619572   2.458   5.912   0.895  1.8151 -1.9991 -0.7318
   19MOL    H9719573   2.715   5.661   0.939  0.0694 -1.4569  1.1015
   19MOL    H9819574   2.688   5.837   0.938 -2.9716  1.7136 -0.0037
   19MOL    H9919575   2.645   5.733   1.069  0.7410  2.6592 -0.1496
   19MOL   H10019576   2.327   5.640   0.726  0.6615  2.2407  0.4823
   19MOL   H10119577   2.326   5.646   0.476 -0.8024  0.9773  1.7583
   19MOL   H10219578   2.724   5.814   0.494 -0.7252  0.7882  1.5633
   19MOL   H10319579   2.715   5.825   0.723  1.4093 -0.6795 -1.1323
   19MOL   H10419580   2.317   5.644   1.086  0.1576  0.0123  0.0531
   19MOL   H10519581   2.242   5.404   1.153  2.3318 -0.4669  1.5905
   19MOL   H10619582   2.164   5.097   1.211  1.3131 -0.8313  0.5385
   19MOL   H10719583   1.975   4.976   1.114  2.2075 -0.2150  3.0101
   19MOL   H10819584   1.652   4.837   0.835 -0.8515  0.4643  0.4389
   19MOL   H10919585   1.490   4.985   0.725 -0.7792  1.3146  0.2396
   19MOL   C11019586   2.513   5.847   0.255 -0.6114 -0.1973  0.4457
   19MOL   C11119587   2.587   5.898   0.150 -0.0785  0.1621 -0.1388
   19MOL   C11219588   2.573   6.031   0.104 -0.3386 -0.4628 -0.6284
   19MOL   C11319589   2.466   6.106   0.150 -0.4809  0.2365 -0.2490
   19MOL   S11419590   2.430   6.268   0.089  0.6068 -0.2261  0.4759
   19MOL   O11519591   2.295   6.310   0.121 -0.3750  0.1023 -0.1777
   19MOL   O11619592   2.476   6.274   8.203 -0.2233 -0.4743  0.3448
   19MOL   C11719593   2.541   6.373   0.185  0.5421 -0.0550  0.1680
   19MOL   C11819594   2.583   6.332   0.316  0.3535 -0.5359  0.9891
   19MOL   C11919595   2.659   6.424   0.389 -0.0327 -0.4986  0.5172
   19MOL   C12019596   2.693   6.552   0.337  0.6410  0.0400 -0.0052
   19MOL   O12119597   2.766   6.637   0.414  0.9221 -0.0293 -0.5981
   19MOL   C12219598   2.895   6.596   0.427 -0.4872  0.4659  0.0606
   19MOL   C12319599   2.977   6.564   0.313 -0.4190 -0.2009 -0.4745
   19MOL   C12419600   3.117   6.538   0.334 -0.3333 -0.1519  1.0469
   19MOL   C12519601   3.180   6.553   0.463 -0.4380  0.6710  0.1703
   19MOL   C12619602   3.330   6.559   0.483 -0.0976 -0.0555 -0.3819
   19MOL   C12719603   3.371   6.447   0.588  0.2855 -0.3002  0.2338
   19MOL   C12819604   3.402   6.531   0.355  0.4695  0.1329 -0.8515
   19MOL   C12919605   3.371   6.705   0.524  0.3787 -0.0289  0.1468
   19MOL   C13019606   3.445   6.739   0.638  0.5479 -0.5474 -0.1768
   19MOL   C13119607   3.468   6.869   0.683 -0.0924 -1.0077 -0.1630
   19MOL   C13219608   3.418   6.976   0.601  0.2326 -0.2366  0.3104
   19MOL   O13319609   3.424   7.106   0.652 -0.9215 -0.0436  0.3793
   19MOL   C13419610   3.345   6.948   0.485 -0.1777 -0.6204 -0.4141
   19MOL   C13519611   3.324   6.814   0.442  0.5969  0.2102 -0.2607
   19MOL   C13619612   3.098   6.586   0.577 -0.1086  0.6323 -0.0653
   19MOL   C13719613   2.956   6.606   0.555  0.3116 -0.0171  0.2906
   19MOL   C13819614   2.651   6.589   0.209  0.0434 -0.4384  0.2496
   19MOL   C13919615   2.568   6.501   0.134 -0.4234  0.3860  0.1882
   19MOL   C14019616   2.374   6.053   0.243 -0.3600  0.2817 -0.3403
   19MOL   C14119617   2.402   5.923   0.295  0.0993  0.0917 -0.8754
   19MOL   H14219618   2.665   5.836   0.109 -1.0264 -0.5512 -0.8993
   19MOL   H14319619   2.636   6.074   0.027 -0.8261  0.0134 -0.7608
   19MOL   H14419620   2.553   6.239   0.361 -0.2473 -0.4180  0.8348
   19MOL   H14519621   2.690   6.398   0.489 -1.5615  1.1925  1.4459
   19MOL   H14619622   2.935   6.552   0.214 -0.4395  2.0814 -0.7660
   19MOL   H14719623   3.173   6.516   0.244 -0.7041  2.1821  0.1935
   19MOL   H14819624   3.479   6.449   0.599  0.2244  1.6551  0.7717
   19MOL   H14919625   3.338   6.353   0.545 -0.1720  0.1789 -0.4803
   19MOL   H15019626   3.327   6.448   0.688 -0.1715 -0.1103  0.0350
   19MOL   H15119627   3.368   6.599   0.278  0.1246  0.7511 -0.1641
   19MOL   H15219628   3.511   6.542   0.363  0.5870 -0.1253 -2.1226
   19MOL   H15319629   3.382   6.434   0.311  0.0758 -0.2587  0.1660
   19MOL   H15419630   3.488   6.662   0.701  0.9106 -0.5460 -0.4213
   19MOL   H15519631   3.525   6.883   0.773 -1.5715  0.7102  0.5282
   19MOL   H15619632   3.321   7.031   0.420  1.5712  0.9855  0.9079
   19MOL   H15719633   3.282   6.808   0.343 -0.8057  0.2252  0.3203
   19MOL   H15819634   3.138   6.595   0.677  0.6077  0.4262 -0.3349
   19MOL   H15919635   2.902   6.629   0.645 -1.5505  1.3808 -1.1461
   19MOL   H16019636   2.661   6.690   0.172  1.2498 -0.6753 -0.0916
   19MOL   H16119637   2.526   6.520   0.037  0.6699  1.4792 -0.0865
   19MOL   H16219638   2.308   6.126   0.288  0.8112  1.4854 -0.5419
   19MOL   H16319639   2.335   5.895   0.375  0.2363  2.5011  0.1181
   19MOL   C16419640   3.439   7.209   0.562 -0.0250  0.1001  0.1202
   19MOL   C16519641   3.562   7.266   0.536  0.0659  0.3866  0.4283
   19MOL   C16619642   3.580   7.394   0.476 -0.1435  0.8048 -0.1137
   19MOL   C16719643   3.461   7.455   0.421 -0.2778 -0.5228 -1.1315
   19MOL   S16819644   3.467   7.612   0.341 -0.0527 -0.0306 -0.0999
   19MOL   O16919645   3.577   7.685   0.406  0.3849  0.2076 -0.8948
   19MOL   O17019646   3.332   7.671   0.356 -0.8461 -0.4769  0.5709
   19MOL   C17119647   3.501   7.577   0.169 -0.2305 -0.4876 -0.4324
   19MOL   C17219648   3.461   7.679   0.077 -0.4761  0.5076 -1.0282
   19MOL   C17319649   3.468   7.649   8.193  0.1370  0.3897  0.4014
   19MOL   C17419650   3.515   7.524   8.155 -0.8584 -0.0027  0.4690
   19MOL   O17519651   3.505   7.489   8.019 -0.4080 -0.5186 -0.0532
   19MOL   C17619652   3.597   7.548   7.931 -0.3616  0.1007  0.0330
   19MOL   C17719653   3.549   7.602   7.810 -1.1198 -0.0796  0.2003
   19MOL   C17819654   3.641   7.671   7.726 -0.2018  0.1394  1.0334
   19MOL   C17919655   3.781   7.674   7.752  0.0107  0.5216 -0.7284
   19MOL   C18019656   3.885   7.756   7.670  0.4269  0.8033 -0.2010
   19MOL   C18119657   3.822   7.800   7.537  0.2480  0.0240 -0.3193
   19MOL   C18219658   3.916   7.885   7.748  0.5363  0.4210  0.4330
   19MOL   C18319659   4.004   7.663   7.643 -0.2797 -0.0677  0.0418
   19MOL   C18419660   3.984   7.540   7.575  0.2966 -0.5137  0.4599
   19MOL   C18519661   4.086   7.443   7.567 -0.4869  0.6314 -0.8420
   19MOL   C18619662   4.218   7.472   7.602 -0.0932 -0.1316  0.0217
   19MOL   O18719663   4.324   7.382   7.597  0.2159 -0.0455 -0.1179
   19MOL   C18819664   4.243   7.604   7.654  0.0987  0.2856  0.3539
   19MOL   C18919665   4.138   7.696   7.674 -0.4587 -0.5020  0.4275
   19MOL   C19019666   3.821   7.615   7.873  0.5885  0.1699  0.1508
   19MOL   C19119667   3.731   7.556   7.962 -0.0566 -0.3482  0.5416
   19MOL   C19219668   3.559   7.425   8.239  0.6250  0.1197  0.9651
   19MOL   C19319669   3.555   7.449   0.123  0.3283  0.1626 -0.3835
   19MOL   C19419670   3.337   7.396   0.448 -0.2427  0.0057  1.1916
   19MOL   C19519671   3.327   7.279   0.518  0.0881 -1.0306  0.4128
   19MOL   H19619672   3.643   7.211   0.580 -0.5939  0.1438  1.3649
   19MOL   H19719673   3.679   7.437   0.468  1.0199 -1.7855 -0.2449
   19MOL   H19819674   3.420   7.774   0.107 -1.4436 -0.0306 -0.6358
   19MOL   H19919675   3.438   7.715   8.113 -1.8804 -0.5480  0.3497
   19MOL   H20019676   3.446   7.592   7.780 -1.1032 -1.6127  0.5869
   19MOL   H20119677   3.610   7.704   7.628  1.4427  0.6646  0.6780
   19MOL   H20219678   3.802   7.712   7.475  1.2128 -1.5954  1.6264
   19MOL   H20319679   3.898   7.857   7.483  0.4027  0.1809  0.0629
   19MOL   H20419680   3.729   7.856   7.545 -1.6252 -3.0040 -0.0016
   19MOL   H20519681   3.968   7.864   7.841  0.4424 -1.4268  0.0871
   19MOL   H20619682   3.977   7.963   7.702 -0.7405  1.4668  0.4528
   19MOL   H20719683   3.818   7.928   7.769  0.0155 -0.9458  0.8161
   19MOL   H20819684   3.889   7.509   7.536 -0.5168  1.4617  0.8095
   19MOL   H20919685   4.065   7.346   7.524  1.4571 -0.5301  0.6842
   19MOL   H21019686   4.338   7.639   7.691  0.4993  0.7957 -1.1214
   19MOL   H21119687   4.172   7.792   7.711  4.9551 -1.4736 -1.5681
   19MOL   H21219688   3.925   7.613   7.903 -0.1470 -0.6405  2.7708
   19MOL   H21319689   3.771   7.511   8.051  0.7094  0.9841  0.8898
   19MOL   H21419690   3.579   7.325   8.203 -0.7195 -0.4640  1.8042
   19MOL   H21519691   3.583   7.380   0.201  0.4244  0.3285 -0.2687
   19MOL   H21619692   3.248   7.443   0.409 -1.3178  0.0239  3.5778
   19MOL   H21719693   3.225   7.245   0.528  0.2633 -1.7806 -0.3739
   19MOL   C21819694   4.334   7.294   7.492  0.2368 -0.6640  0.2132
   19MOL   C21919695   4.351   7.342   7.359  0.4099 -0.3101  0.4412
   19MOL   C22019696   4.360   7.255   7.252  0.6609  0.3247 -0.2983
   19MOL   C22119697   4.350   7.115   7.274 -0.0218  0.3150  0.5800
   19MOL   S22219698   4.373   7.006   7.132  0.1063  0.5973 -0.3602
   19MOL   O22319699   4.343   7.086   7.012 -0.6814 -0.0655  0.0419
   19MOL   O22419700   4.309   6.876   7.158 -0.2432 -0.0402 -0.3517
   19MOL   C22519701   4.551   6.979   7.134  0.2094  0.2771 -0.7546
   19MOL   C22619702   4.640   7.082   7.113  0.6770  0.2146  0.4506
   19MOL   C22719703   4.781   7.058   7.109 -0.1731 -0.5227  0.3167
   19MOL   C22819704   4.828   6.931   7.122 -0.3210 -0.0091  0.4491
   19MOL   O22919705   4.965   6.913   7.120 -0.0291 -0.3227  0.0069
   19MOL   C23019706   5.023   6.803   7.186  0.2345 -0.8248  0.6870
   19MOL   C23119707   5.100   6.708   7.113 -0.3607  0.0379  0.4358
   19MOL   C23219708   5.171   6.607   7.177  1.1261 -0.0819 -0.3794
   19MOL   C23319709   5.172   6.604   7.321  0.2481 -0.3047  0.8898
   19MOL   C23419710   5.238   6.491   7.402  0.4501  0.6373 -0.5181
   19MOL   C23519711   5.273   6.372   7.313  0.3647 -0.3848  0.5201
   19MOL   C23619712   5.370   6.546   7.457 -0.3924 -0.0889  0.1354
   19MOL   C23719713   5.149   6.443   7.515 -0.1500 -0.4240 -0.5467
   19MOL   C23819714   5.009   6.405   7.486 -0.7460 -0.0713 -0.7548
   19MOL   C23919715   4.927   6.364   7.592 -0.7811  0.4645 -0.6857
   19MOL   C24019716   4.979   6.348   7.725 -0.3253  0.1612 -0.1215
   19MOL   O24119717   4.901   6.299   7.820 -0.1383 -0.3933  0.1545
   19MOL   C24219718   5.112   6.377   7.746 -0.1410 -0.2463  0.2219
   19MOL   C24319719   5.195   6.434   7.649  0.5377  0.7468 -0.5200
   19MOL   C24419720   5.098   6.699   7.395  1.1814 -0.3447  0.1999
   19MOL   C24519721   5.018   6.800   7.328  0.0241  0.3333  0.2959
   19MOL   C24619722   4.738   6.823   7.140 -0.1528 -0.1874 -0.2769
   19MOL   C24719723   4.600   6.846   7.148  0.5071 -0.5789  0.0288
   19MOL   C24819724   4.331   7.061   7.405  0.1383 -0.4465 -0.4612
   19MOL   C24919725   4.319   7.154   7.514  0.4606 -0.0335 -0.3679
   19MOL   H25019726   4.350   7.450   7.352  2.3843 -0.3097 -0.1528
   19MOL   H25119727   4.358   7.302   7.155 -2.0765 -1.3675 -1.1274
   19MOL   H25219728   4.602   7.184   7.111 -0.0777 -0.0621  0.5131
   19MOL   H25319729   4.847   7.142   7.094 -0.2755 -0.2943  1.1270
   19MOL   H25419730   5.092   6.720   7.006  0.2610 -0.7333  0.2927
   19MOL   H25519731   5.210   6.527   7.116 -0.2050  0.7682 -2.3835
   19MOL   H25619732   5.342   6.401   7.233 -0.2856 -0.1728  0.0278
   19MOL   H25719733   5.183   6.342   7.259 -0.5563 -0.2484  1.9578
   19MOL   H25819734   5.316   6.290   7.370 -1.0748 -1.3357  0.2584
   19MOL   H25919735   5.439   6.471   7.497 -0.7250  0.6717  2.1843
   19MOL   H26019736   5.427   6.604   7.384  0.3305 -0.6954  0.2080
   19MOL   H26119737   5.346   6.619   7.534  0.5101  2.7598 -2.1718
   19MOL   H26219738   4.985   6.414   7.381 -0.1874  1.9687 -0.7419
   19MOL   H26319739   4.822   6.349   7.570 -0.9342  1.7346 -0.8354
   19MOL   H26419740   5.149   6.354   7.844  1.1892 -0.1486 -0.2395
   19MOL   H26519741   5.297   6.463   7.667  0.7143  1.4764 -2.5571
   19MOL   H26619742   5.107   6.685   7.502 -1.3424 -0.7577  0.3739
   19MOL   H26719743   4.965   6.877   7.382 -0.4597  1.5627 -1.8780
   19MOL   H26819744   4.771   6.720   7.133 -2.0855 -0.8899  0.5593
   19MOL   H26919745   4.529   6.767   7.165  1.4223 -1.1509  1.2179
   19MOL   H27019746   4.317   6.956   7.426 -0.8063 -0.3459 -0.5648
   19MOL   H27119747   4.299   7.122   7.615 -0.3390 -2.6469 -1.3117
   19MOL   C27219748   4.877   6.166   7.831 -0.2923  0.7847 -0.7769
   19MOL   C27319749   4.748   6.119   7.864  0.1245  0.0071 -0.9486
   19MOL   C27419750   4.719   5.979   7.873 -0.0816 -0.5096 -0.8917
   19MOL   C27519751   4.826   5.894   7.886 -0.5602  0.1668 -0.5747
   19MOL   S27619752   4.803   5.721   7.910 -0.7590  0.0850  0.1451
   19MOL   O27719753   4.676   5.709   7.983  0.1043 -0.4314  0.2537
   19MOL   O27819754   4.926   5.655   7.964  0.1017 -0.5599 -0.1347
   19MOL   C27919755   4.779   5.654   7.746  0.0929  0.1728 -1.0693
   19MOL   C28019756   4.888   5.619   7.665 -0.2146 -0.1962 -0.2018
   19MOL   C28119757   4.856   5.563   7.543  0.1346 -0.3692 -0.3280
   19MOL   C28219758   4.721   5.550   7.501  0.3453 -0.0419 -0.5994
   19MOL   O28319759   4.698   5.510   7.373  0.6405  0.7361 -0.0913
   19MOL   C28419760   4.665   5.382   7.350  0.3354  0.0716 -0.2081
   19MOL   C28519761   4.573   5.317   7.435  0.1762  1.0313 -0.4251
   19MOL   C28619762   4.553   5.180   7.420  0.6472  0.3155  0.5404
   19MOL   C28719763   4.618   5.107   7.321  0.5008 -0.3652  0.5581
   19MOL   C28819764   4.591   4.960   7.312  0.0342 -0.3911  0.3359
   19MOL   C28919765   4.658   4.884   7.192 -0.2030  0.2983 -0.0785
   19MOL   C29019766   4.655   4.901   7.443 -0.2978  1.0480 -0.1596
   19MOL   C29119767   4.433   4.924   7.305  0.2536 -0.0677  0.0789
   19MOL   C29219768   4.386   4.808   7.373 -0.4368  0.2861  0.6217
   19MOL   C29319769   4.250   4.786   7.396  0.0755 -0.8909  0.5561
   19MOL   C29419770   4.157   4.878   7.340  0.1656  0.8171 -0.1784
   19MOL   O29519771   4.020   4.865   7.373  0.1251  0.1469  0.0873
   19MOL   C29619772   4.203   4.991   7.268  0.0558 -0.7607 -0.1599
   19MOL   C29719773   4.341   5.010   7.245 -0.3878 -0.7138  0.1490
   19MOL   C29819774   4.714   5.172   7.239  0.3322  0.3266 -1.0018
   19MOL   C29919775   4.730   5.308   7.254 -0.3443  0.0543  0.1690
   19MOL   C30019776   4.617   5.589   7.577  0.5745 -0.7558  0.1325
   19MOL   C30119777   4.643   5.640   7.704  0.3926  0.0447  0.0727
   19MOL   C30219778   4.959   5.941   7.868 -0.9253  0.0326  0.6515
   19MOL   C30319779   4.976   6.074   7.834  0.1685 -0.4045 -0.0373
   19MOL   H30419780   4.669   6.190   7.880  1.1090  0.9948 -0.4518
   19MOL   H30519781   4.617   5.944   7.869 -0.6618  0.6157  2.6522
   19MOL   H30619782   4.989   5.615   7.702  0.0269 -0.5432 -0.8951
   19MOL   H30719783   4.934   5.533   7.475 -0.0970 -0.3764 -0.5942
   19MOL   H30819784   4.513   5.373   7.505  2.3907  1.4580  1.1672
   19MOL   H30919785   4.479   5.133   7.484 -1.2735  2.2314 -0.2021
   19MOL   H31019786   4.633   4.779   7.202  2.7539 -0.2941  1.4946
   19MOL   H31119787   4.767   4.891   7.196 -0.1594  1.3918 -2.2667
   19MOL   H31219788   4.608   4.922   7.103 -1.0955  0.0650  0.3203
   19MOL   H31319789   4.598   4.926   7.533 -0.1315 -0.5688  0.4101
   19MOL   H31419790   4.658   4.793   7.435  0.3230  1.1106 -0.7683
   19MOL   H31519791   4.759   4.932   7.455 -0.1911  1.0433 -1.0515
   19MOL   H31619792   4.457   4.745   7.425 -0.5811 -1.0174 -0.7121
   19MOL   H31719793   4.218   4.707   7.462 -1.7979 -0.4587  0.2068
   19MOL   H31819794   4.128   5.061   7.233  1.1680 -0.0508 -1.1773
   19MOL   H31919795   4.371   5.101   7.195  0.7209 -0.5890  1.0211
   19MOL   H32019796   4.761   5.109   7.165 -0.3648  0.9656 -2.0025
   19MOL   H32119797   4.803   5.362   7.196  0.5166 -1.7732 -0.4821
   19MOL   H32219798   4.516   5.596   7.538 -0.2104  3.8370  2.5217
   19MOL   H32319799   4.563   5.673   7.769 -0.5460 -1.3187 -0.3848
   19MOL   H32419800   5.043   5.874   7.871 -0.6390  0.3964  0.8088
   19MOL   H32519801   5.076   6.112   7.821  0.1732 -0.7156 -0.9174
   19MOL   C32619802   3.979   4.957   7.469  0.0094  0.2056 -0.4674
   19MOL   C32719803   4.047   4.973   7.592 -0.3864 -0.0453  0.5458
   19MOL   C32819804   4.001   5.069   7.687  0.0009  0.3400  0.3722
   19MOL   C32919805   3.883   5.142   7.657 -0.2400 -0.2797 -0.6281
   19MOL   S33019806   3.809   5.234   7.794  0.2131 -0.2293 -0.1303
   19MOL   O33119807   3.704   5.320   7.737 -0.2113 -0.2548 -0.1769
   19MOL   O33219808   3.918   5.300   7.869 -0.2140 -0.6344  0.1832
   19MOL   C33319809   3.730   5.104   7.893  0.4864  0.7862 -0.4913
   19MOL   C33419810   3.774   5.081   8.019  0.3074 -0.1886 -0.0225
   19MOL   C33519811   3.722   4.968   8.087 -0.0512  0.1135 -0.0793
   19MOL   C33619812   3.620   4.889   8.036 -0.5953 -0.9268  0.2353
   19MOL   O33719813   3.566   4.791   8.121 -0.0687  0.3024  0.1739
   19MOL   C33819814   3.602   4.660   8.104  0.3832  0.5016 -0.0200
   19MOL   C33919815   3.688   4.619   8.002 -0.1951 -0.3009  0.3361
   19MOL   C34019816   3.701   4.480   7.974  0.2297  0.7281  0.3219
   19MOL   C34119817   3.623   4.391   8.048  0.2246 -0.7626 -0.5072
   19MOL   C34219818   3.634   4.244   8.000  0.1176  0.1136  0.2560
   19MOL   C34319819   3.761   4.209   7.923 -0.3267 -0.0994 -0.7684
   19MOL   C34419820   3.634   4.143   8.119  0.5562  0.0796 -0.3924
   19MOL   C34519821   3.500   4.219   7.922 -0.1083  0.3780 -0.1274
   19MOL   C34619822   3.373   4.203   7.986  0.6490 -0.0390 -0.0463
   19MOL   C34719823   3.259   4.200   7.906  0.5051  0.2009 -0.2475
   19MOL   C34819824   3.263   4.199   7.762 -0.1833 -0.1351  0.4868
   19MOL   O34919825   3.157   4.177   7.679 -0.5896  0.2322  0.4129
   19MOL   C35019826   3.392   4.209   7.702  0.5024  0.1491 -0.9148
   19MOL   C35119827   3.510   4.216   7.780  0.0310 -0.2916 -0.2006
   19MOL   C35219828   3.555   4.429   8.161 -0.0718  0.0591 -0.8143
   19MOL   C35319829   3.542   4.564   8.188 -0.1301 -0.0853 -0.5059
   19MOL   C35419830   3.577   4.911   7.907 -0.7475 -0.2099 -0.3818
   19MOL   C35519831   3.637   5.018   7.832 -0.4508  1.0954 -0.1291
   19MOL   C35619832   3.820   5.138   7.531  0.5476  0.6434 -0.3926
   19MOL   C35719833   3.872   5.046   7.437 -0.0584 -0.9905  0.2173
   19MOL   H35819834   4.135   4.915   7.614 -0.4047 -0.2476  0.0821
   19MOL   H35919835   4.047   5.068   7.785 -0.9820  0.3898  0.8465
   19MOL   H36019836   3.844   5.150   8.062 -0.6022  1.0138 -0.4487
   19MOL   H36119837   3.756   4.951   8.188  3.8895  2.1026 -0.9675
   19MOL   H36219838   3.744   4.689   7.943  1.6927  0.1089  2.5359
   19MOL   H36319839   3.771   4.461   7.894  0.4777  2.3651  0.1348
   19MOL   H36419840   3.765   4.265   7.829 -2.9992  0.4005 -0.6236
   19MOL   H36519841   3.752   4.103   7.901  0.6824 -0.1909 -0.7535
   19MOL   H36619842   3.843   4.227   7.992 -0.7140  1.9749 -0.8131
   19MOL   H36719843   3.711   4.161   8.193  0.6355 -0.7204 -0.2759
   19MOL   H36819844   3.545   4.142   8.182  1.3765  1.3359  0.8023
   19MOL   H36919845   3.648   4.039   8.088 -1.6597  0.0982 -1.5837
   19MOL   H37019846   3.352   4.201   8.092 -0.6161  2.6548 -0.2006
   19MOL   H37119847   3.164   4.196   7.957  0.3308 -1.7425 -0.6953
   19MOL   H37219848   3.391   4.204   7.594 -2.3180  0.7324 -0.9517
   19MOL   H37319849   3.600   4.209   7.721  1.8494  1.7460  2.1972
   19MOL   H37419850   3.502   4.354   8.220  1.9716 -1.9959 -1.5144
   19MOL   H37519851   3.475   4.595   0.013  0.9040  1.7699 -0.3169
   19MOL   H37619852   3.504   4.853   7.852 -0.4452 -1.7826  0.8522
   19MOL   H37719853   3.611   5.037   7.729 -1.3355  3.8700  0.5651
   19MOL   H37819854   3.731   5.197   7.517 -0.5768 -0.9848 -0.1387
   19MOL   H37919855   3.821   5.035   7.343 -2.0429  0.3272  1.1216
   19MOL   C38019856   3.081   4.063   7.696  0.1273  0.0691  0.2974
   19MOL   C38119857   3.140   3.936   7.723  0.7433 -0.3066 -0.5749
   19MOL   C38219858   3.058   3.830   7.758 -0.2779 -0.1585  0.3353
   19MOL   C38319859   2.922   3.850   7.775 -0.1442  0.6273  0.3676
   19MOL   S38419860   2.820   3.716   7.820 -0.0926 -0.2337 -0.2196
   19MOL   O38519861   2.900   3.614   7.884  0.0429 -0.7960  0.6841
   19MOL   O38619862   2.732   3.684   7.714  0.3323 -0.0868  0.3154
   19MOL   C38719863   2.727   3.801   7.946 -0.0754 -0.2567  0.7309
   19MOL   C38819864   2.791   3.827   8.057 -0.0380  0.3763 -0.1659
   19MOL   C38919865   2.716   3.897   8.161 -0.0559 -0.0173  0.0486
   19MOL   C39019866   2.591   3.946   8.142  0.0413  0.4868  0.7355
   19MOL   O39119867   2.524   4.012   8.242 -0.4802  0.1006 -0.1628
   19MOL   C39219868   2.599   4.102   0.068 -0.1440  0.5037 -0.5031
   19MOL   C39319869   2.625   4.227   0.011  0.0254 -0.0267 -0.0702
   19MOL   C39419870   2.702   4.325   0.081 -0.0617  0.1793  0.0036
   19MOL   C39519871   2.744   4.296   0.217 -0.0308  0.1132  0.3039
   19MOL   C39619872   2.815   4.410   0.302  0.0343  0.2852  0.0364
   19MOL   C39719873   2.710   4.510   0.333  0.8090 -0.7643  0.5676
   19MOL   C39819874   2.872   4.361   0.439 -0.6585 -0.0024 -1.0863
   19MOL   C39919875   2.927   4.472   0.223 -0.3753 -0.2580 -0.0009
   19MOL   C40019876   2.952   4.608   0.227  1.3529 -0.3020  0.2144
   19MOL   C40119877   3.054   4.661   0.140 -0.5276  0.2929 -0.7888
   19MOL   C40219878   3.140   4.577   0.061  0.0424 -0.4587 -0.2636
   19MOL   O40319879   3.230   4.635   8.230 -0.7592  0.0928 -0.1874
   19MOL   C40419880   3.121   4.439   0.066 -0.5185 -0.4591 -0.1657
   19MOL   C40519881   3.015   4.392   0.148 -0.5736 -0.3890  0.0081
   19MOL   C40619882   2.705   4.168   0.273  0.0969 -1.0578 -0.3453
   19MOL   C40719883   2.639   4.072   0.201  0.0808  0.3811 -0.1482
   19MOL   C40819884   2.522   3.907   8.024  0.0546 -0.2261 -0.1895
   19MOL   C40919885   2.592   3.826   7.926 -0.2071 -0.3388 -0.0674
   19MOL   C41019886   2.864   3.974   7.752  0.4250  0.6337 -0.3841
   19MOL   C41119887   2.943   4.087   7.716 -0.3264 -0.1939  0.0058
   19MOL   H41219888   3.248   3.934   7.718  1.0229  3.2330  2.1732
   19MOL   H41319889   3.101   3.732   7.768  0.7598  0.2597  0.1160
   19MOL   H41419890   2.895   3.799   8.066 -0.3735 -0.8179  0.1060
   19MOL   H41519891   2.781   3.923   8.242  2.4403 -1.0006 -1.5886
   19MOL   H41619892   2.599   4.237   8.159 -0.8660  0.4611  0.1891
   19MOL   H41719893   2.715   4.421   0.033  2.1310 -0.5495 -0.9598
   19MOL   H41819894   2.736   4.587   0.406 -0.5548  1.0621 -0.8102
   19MOL   H41919895   2.619   4.457   0.359  1.5994 -1.4574  1.9311
   19MOL   H42019896   2.681   4.567   0.244  0.6339 -0.6504  0.6991
   19MOL   H42119897   2.928   4.429   0.503  0.3059 -1.2465 -0.5724
   19MOL   H42219898   2.784   4.336   0.497 -0.5437 -0.7193 -1.2069
   19MOL   H42319899   2.934   4.272   0.425 -1.1262 -0.1360 -2.4348
   19MOL   H42419900   2.894   4.682   0.281  2.2397  0.7520 -0.2638
   19MOL   H42519901   3.075   4.767   0.133 -2.3975  0.8193  1.0671
   19MOL   H42619902   3.181   4.373   0.004 -0.9904 -0.6469 -0.4235
   19MOL   H42719903   3.004   4.285   0.138  2.0577 -0.6821 -0.0264
   19MOL   H42819904   2.726   4.157   0.379 -0.6271  4.1917  0.4671
   19MOL   H42919905   2.618   3.977   0.250 -0.3678  0.6672  0.2174
   19MOL   H43019906   2.426   3.947   7.995  0.3930  1.0539  0.4523
   19MOL   H43119907   2.539   3.799   7.836 -0.3745  1.8996 -0.6483
   19MOL   H43219908   2.759   3.982   7.773  0.7541 -0.0970  1.7352
   19MOL   H43319909   2.903   4.186   7.701 -0.4476 -0.3367 -0.6326
   19MOL   C43419910   3.203   4.666   8.100  0.3293 -0.2096  0.7671
   19MOL   C43519911   3.140   4.788   8.070 -0.2329 -0.0756 -0.9540
   19MOL   C43619912   3.108   4.814   7.936  0.0380  0.3274 -0.0038
   19MOL   C43719913   3.124   4.721   7.829  0.0213 -0.1579  0.5571
   19MOL   S43819914   3.068   4.763   7.665  0.3059 -0.0847  0.2264
   19MOL   O43919915   3.004   4.642   7.607 -0.1779 -0.1577 -0.0819
   19MOL   O44019916   3.184   4.819   7.597  0.2253 -0.1464  0.0596
   19MOL   C44119917   2.938   4.896   7.681  0.1200 -0.4495  0.2812
   19MOL   C44219918   2.801   4.866   7.701 -0.2637  0.4961 -0.2005
   19MOL   C44319919   2.714   4.978   7.720  0.7801  1.0434  0.1714
   19MOL   C44419920   2.763   5.104   7.744 -0.2393  0.1228 -0.3778
   19MOL   O44519921   2.676   5.203   7.780  0.3209 -0.3676 -0.5070
   19MOL   C44619922   2.661   5.250   7.905 -0.6102 -0.7123  0.2713
   19MOL   C44719923   2.569   5.193   7.996 -0.2618 -0.7260  1.1784
   19MOL   C44819924   2.557   5.242   8.127 -0.3431 -0.9086  0.2009
   19MOL   C44919925   2.630   5.354   8.171  0.7193 -0.3002 -0.4195
   19MOL   C45019926   2.617   5.410   0.061 -0.5532 -0.0893  0.1224
   19MOL   C45119927   2.614   5.289   0.157  0.1340 -0.3775 -0.2346
   19MOL   C45219928   2.733   5.498   0.093 -0.5068  0.0435 -0.5100
   19MOL   C45319929   2.488   5.496   0.068 -0.6671 -0.4025  0.4867
   19MOL   C45419930   2.402   5.478   0.172  0.1326  0.1989 -0.3910
   19MOL   C45519931   2.289   5.558   0.182 -0.4890  0.5066 -0.3824
   19MOL   C45619932   2.267   5.665   0.094 -0.0320 -0.2392  0.0394
   19MOL   O45719933   2.153   5.740   0.104  0.0710  0.1704 -0.2085
   19MOL   C45819934   2.359   5.693   8.245 -0.4789  0.3689  0.1331
   19MOL   C45919935   2.471   5.613   8.235  0.2549  0.4087 -0.3582
   19MOL   C46019936   2.725   5.411   8.080  0.4483  0.2321  0.2370
   19MOL   C46119937   2.735   5.360   7.945  0.5352  0.0863  0.4729
   19MOL   C46219938   2.897   5.131   7.736 -0.4923  0.5536  0.1528
   19MOL   C46319939   2.989   5.026   7.706 -0.1136  0.3353 -0.0611
   19MOL   C46419940   3.187   4.598   7.854 -0.4346 -0.3040 -0.1284
   19MOL   C46519941   3.226   4.579   7.992 -0.8204 -0.9952  0.0465
   19MOL   H46619942   3.103   4.856   8.145 -2.7565 -1.7348 -0.6286
   19MOL   H46719943   3.053   4.906   7.920 -1.7771 -0.6971  0.2280
   19MOL   H46819944   2.754   4.769   7.687  1.6062 -0.4609 -0.0579
   19MOL   H46919945   2.608   4.960   7.719  1.2082 -1.7267 -0.1102
   19MOL   H47019946   2.515   5.105   7.966  0.0137  0.1338 -2.0834
   19MOL   H47119947   2.489   5.193   8.196 -2.2502 -0.8134 -1.5756
   19MOL   H47219948   2.634   5.318   0.260 -0.7042 -1.4728  0.2536
   19MOL   H47319949   2.693   5.220   0.127  0.6838  0.3939 -0.5813
   19MOL   H47419950   2.520   5.234   0.148 -1.1943  1.7922 -0.0042
   19MOL   H47519951   2.730   5.527   0.198  1.5189 -0.0605 -0.4072
   19MOL   H47619952   2.824   5.444   0.071  0.8820  1.7301  0.9477
   19MOL   H47719953   2.738   5.601   0.058  1.6387  0.7555  1.7850
   19MOL   H47819954   2.398   5.397   0.244 -0.6712  1.5945  1.1653
   19MOL   H47919955   2.231   5.544   0.272  0.0870  0.1718 -0.0621
   19MOL   H48019956   2.337   5.764   8.166 -0.0711  0.4248  0.0705
   19MOL   H48119957   2.553   5.634   8.169  0.8688 -0.6966  0.0527
   19MOL   H48219958   2.792   5.488   8.115  0.5444 -1.4786  4.0258
   19MOL   H48319959   2.805   5.417   7.886  1.3859  0.4221  1.7791
   19MOL   H48419960   2.919   5.237   7.747  0.2398  0.3799  0.4180
   19MOL   H48519961   3.093   5.053   7.696 -0.2378  1.3028  1.0931
   19MOL   H48619962   3.188   4.519   7.781  1.2937  1.2519 -1.8274
   19MOL   H48719963   3.278   4.488   8.019 -0.0098 -1.0426 -1.6236
   19MOL   C48819964   2.046   5.688   0.034 -0.2843 -0.7001 -0.9124
   19MOL   C48919965   2.058   5.668   8.153  0.7609  0.3636  0.1393
   19MOL   C49019966   1.956   5.617   8.074 -0.2583  0.4798  0.0057
   19MOL   C49119967   1.836   5.587   8.142 -0.6829 -0.4372 -0.0363
   19MOL   S49219968   1.694   5.522   8.049  0.4767  0.4828  0.0031
   19MOL   O49319969   1.607   5.451   8.145 -0.7957 -0.1322  0.6379
   19MOL   O49419970   1.747   5.454   7.934 -0.3618 -0.4707  0.3616
   19MOL   C49519971   1.600   5.663   7.979  0.2072 -1.0291 -0.2184
   19MOL   C49619972   1.659   5.787   7.983  0.7190  1.3469 -0.4398
   19MOL   C49719973   1.589   5.891   7.933  0.5661  0.6771  0.9582
   19MOL   C49819974   1.471   5.870   7.861 -0.2177  0.2920  0.3167
   19MOL   O49919975   1.419   5.973   7.785 -0.0451 -0.3362 -0.6852
   19MOL   C50019976   1.285   6.005   7.806  0.0256  0.2474  0.7396
   19MOL   C50119977   1.232   6.045   7.928 -0.0402 -0.1216  0.4748
   19MOL   C50219978   1.101   6.096   7.935  0.9482  0.2022 -0.9211
   19MOL   C50319979   1.023   6.115   7.818  0.2646 -0.0469  0.2812
   19MOL   C50419980   0.889   6.190   7.826 -0.3134  0.2482  0.3773
   19MOL   C50519981   0.791   6.109   7.911  0.1120 -0.3952 -0.1385
   19MOL   C50619982   0.913   6.323   7.912 -0.2956 -0.0617 -0.3680
   19MOL   C50719983   0.828   6.223   7.686  0.7749 -0.1098 -0.3664
   19MOL   C50819984   0.823   6.358   7.634 -0.2029  0.7120 -0.1489
   19MOL   C50919985   0.758   6.390   7.512 -0.2745  0.7344 -0.1414
   19MOL   C51019986   0.722   6.283   7.433 -0.3790  0.0103  0.3355
   19MOL   O51119987   0.659   6.320   7.317 -0.1752  0.7017  0.1113
   19MOL   C51219988   0.729   6.150   7.476 -0.1428 -0.5973 -0.7389
   19MOL   C51319989   0.770   6.116   7.610 -0.0493  0.0149  0.9531
   19MOL   C51419990   1.073   6.075   7.691  0.2800  0.3142 -0.0753
   19MOL   C51519991   1.201   6.012   7.692  0.6474  0.1816  0.0365
   19MOL   C51619992   1.405   5.749   7.867  0.7903 -0.1565  0.2605
   19MOL   C51719993   1.473   5.641   7.922  0.1031  0.2190 -0.3813
   19MOL   C51819994   1.813   5.620   0.028 -0.5583  0.9073 -0.3322
   19MOL   C51919995   1.925   5.677   0.096  1.0176  0.1959 -0.0528
   19MOL   H52019996   2.155   5.691   8.110  1.3759 -0.0027  1.3079
   19MOL   H52119997   1.964   5.600   7.968  2.6717  1.3733  0.0398
   19MOL   H52219998   1.753   5.801   8.035  0.6134 -1.3386  0.5176
   19MOL   H52319999   1.624   5.993   7.942 -1.7996  1.3985  2.3321
   19MOL   H52420000   1.288   6.048   8.020 -1.4312 -2.5238  1.4532
   19MOL   H52520001   1.065   6.136   8.029  1.1404  0.8673 -1.1252
   19MOL   H52620002   0.820   6.094   8.015 -1.8505  0.8124  0.5941
   19MOL   H52720003   0.786   6.006   7.875  0.9424  0.2389 -2.1497
   19MOL   H52820004   0.688   6.144   7.904  0.9600  2.7419  1.9486
   19MOL   H52920005   0.967   6.309   8.006  0.4640 -0.9772 -0.9393
   19MOL   H53020006   0.987   6.384   7.860 -0.9725  0.2841 -0.9359
   19MOL   H53120007   0.821   6.381   7.923  0.4234  0.8141  1.2776
   19MOL   H53220008   0.850   6.447   7.687  1.9587  1.8728 -3.0994
   19MOL   H53320009   0.752   6.491   7.473 -0.0681  0.5128 -0.7590
   19MOL   H53420010   0.692   6.069   7.414 -1.7253 -1.2797  1.0626
   19MOL   H53520011   0.758   6.015   7.646  1.7215  0.3300  2.5091
   19MOL   H53620012   1.015   6.070   7.600 -0.1919  1.5066  0.1588
   19MOL   H53720013   1.235   5.970   7.599 -1.0354 -1.5379  0.1678
   19MOL   H53820014   1.316   5.738   7.807  1.1938 -0.6256 -0.2555
   19MOL   H53920015   1.429   5.543   7.916  0.8136 -0.0555 -1.2020
   19MOL   H54020016   1.718   5.606   0.079  0.9061 -1.9256  1.7352
   19MOL   H54120017   1.910   5.693   0.202 -2.2614  2.6589 -0.7876
   19MOL   C54220018   0.553   6.245   7.275  0.4369  0.7540  0.5028
   19MOL   C54320019   0.540   6.200   7.135 -0.9270 -0.6387 -0.7191
   19MOL   C54420020   0.425   6.129   7.099 -0.8970  0.4988  0.1406
   19MOL   C54520021   0.328   6.106   7.195 -0.2668  0.1015 -1.0029
   19MOL   S54620022   0.197   5.990   7.166 -0.1240 -0.2387  0.2458
   19MOL   O54720023   0.263   5.871   7.110  0.0843 -0.5944 -0.0009
   19MOL   O54820024   0.094   6.057   7.086  0.5599  0.3054 -0.2839
   19MOL   C54920025   0.093   5.931   7.307 -0.1155  0.1638  0.6690
   19MOL   C55020026   0.019   6.025   7.381  0.0475  0.2241 -0.1763
   19MOL   C55120027   8.182   5.995   7.489  0.4068 -0.2119 -0.1741
   19MOL   C55220028   8.164   5.860   7.520 -0.0820  0.0877 -0.0198
   19MOL   O55320029   8.058   5.816   7.607  0.0903  0.1290  0.4582
   19MOL   C55420030   7.950   5.744   7.554  0.5730  0.1335  0.7808
   19MOL   C55520031   7.892   5.763   7.426  0.1196  0.4114 -0.4918
   19MOL   C55620032   7.768   5.700   7.397  0.0301  0.1425 -0.0576
   19MOL   C55720033   7.699   5.616   7.486  0.9510 -0.2365  0.1530
   19MOL   C55820034   7.569   5.546   7.441  0.3975 -0.6466  0.2275
   19MOL   C55920035   7.597   5.475   7.309 -0.7505 -0.1324 -0.0002
   19MOL   C56020036   7.521   5.439   7.534  0.6344 -0.2582  0.1689
   19MOL   C56120037   7.469   5.657   7.433 -0.8315 -0.0754 -0.2831
   19MOL   C56220038   7.418   5.718   7.550 -0.1892 -0.1159  0.7614
   19MOL   C56320039   7.328   5.829   7.541  0.1055  0.1694  0.1865
   19MOL   C56420040   7.281   5.874   7.418 -0.4685 -0.7340 -0.3996
   19MOL   O56520041   7.194   5.980   7.421  0.2553  0.2537 -0.3713
   19MOL   C56620042   7.331   5.820   7.296 -0.5089  0.8931 -0.2100
   19MOL   C56720043   7.430   5.717   7.309  0.8694  0.3832  0.2661
   19MOL   C56820044   7.758   5.594   7.609 -0.5099  0.3872  0.2347
   19MOL   C56920045   7.880   5.658   7.646  0.8751  0.7040  0.3029
   19MOL   C57020046   8.231   5.760   7.442  0.5952 -0.2862 -0.2101
   19MOL   C57120047   0.071   5.792   7.340 -0.4521 -0.1516 -0.8545
   19MOL   C57220048   0.342   6.148   7.329  0.1002  0.1366  0.5180
   19MOL   C57320049   0.449   6.228   7.364 -0.3400  0.2338 -0.1150
   19MOL   H57420050   0.619   6.211   7.063  2.1258  0.0339  2.5854
   19MOL   H57520051   0.405   6.089   7.000  0.2090  1.1460 -0.3488
   19MOL   H57620052   0.031   6.128   7.349  0.1986 -0.2405 -1.6751
   19MOL   H57720053   8.128   6.070   7.546 -1.2642 -0.2818 -1.5809
   19MOL   H57820054   7.926   5.842   7.361  0.6151 -1.1882 -2.2385
   19MOL   H57920055   7.718   5.715   7.303 -0.2999 -3.1581 -0.4911
   19MOL   H58020056   7.504   5.431   7.274  0.5104 -1.8629 -1.2570
   19MOL   H58120057   7.673   5.398   7.319  0.4813  1.3317  2.7420
   19MOL   H58220058   7.636   5.540   7.230  0.8561 -1.3144 -0.2099
   19MOL   H58320059   7.595   5.359   7.537  0.4297 -0.3882  2.3047
   19MOL   H58420060   7.494   5.478   7.632 -2.4402 -0.5941 -0.4972
   19MOL   H58520061   7.423   5.400   7.506 -0.1709 -0.2093  2.7651
   19MOL   H58620062   7.459   5.690   7.646 -0.8602  1.3176  1.4860
   19MOL   H58720063   7.299   5.877   7.633  1.3422  0.1468  0.5946
   19MOL   H58820064   7.290   5.863   7.205 -0.3077  2.5305  0.4491
   19MOL   H58920065   7.468   5.686   7.213  0.7619  0.2551  0.2641
   19MOL   H59020066   7.710   5.521   7.673 -2.1612  0.7971 -0.5229
   19MOL   H59120067   7.919   5.638   7.745  2.3537  0.7699 -0.2555
   19MOL   H59220068   8.205   5.660   7.472  0.6640 -0.5609 -1.0615
   19MOL   H59320069   0.112   5.713   7.279  0.9819  1.7260 -2.3991
   19MOL   H59420070   0.263   6.127   7.399  0.5065  1.9733  1.5753
   19MOL   H59520071   0.453   6.257   7.468 -0.4673  0.9839 -0.3145
   19MOL   C59620072   7.240   6.107   7.439 -0.4940  1.6119 -0.6469
   19MOL   C59720073   7.361   6.152   7.377  0.8868 -0.3889 -0.2710
   19MOL   C59820074   7.406   6.280   7.389 -0.1658  0.2267  0.4315
   19MOL   C59920075   7.334   6.374   7.468 -1.2045  0.6575 -0.7272
   19MOL   S60020076   7.391   6.539   7.485  0.2012 -0.0547 -0.0481
   19MOL   O60120077   7.538   6.536   7.494  0.2076 -0.0439  0.0040
   19MOL   O60220078   7.324   6.602   7.599  0.1346  0.2123  0.1158
   19MOL   C60320079   7.342   6.634   7.337  0.7350 -0.2124 -0.0934
   19MOL   C60420080   7.352   6.570   7.214  0.1011  0.4495  0.6362
   19MOL   C60520081   7.350   6.647   7.095  0.0927  0.3106  0.4050
   19MOL   C60620082   7.329   6.784   7.094  0.4463 -0.3079 -0.2883
   19MOL   O60720083   7.321   6.845   6.972  1.0459 -0.7875  0.0593
   19MOL   C60820084   7.421   6.937   6.953 -0.1045  0.2666  0.4297
   19MOL   C60920085   7.394   7.067   6.989 -0.1478 -0.0389 -0.0234
   19MOL   C61020086   7.487   7.169   6.961 -0.0584  0.9280  0.9467
   19MOL   C61120087   7.607   7.134   6.905 -0.1278 -0.3558  0.6104
   19MOL   C61220088   7.731   7.229   6.875 -1.0454  0.0172 -0.0087
   19MOL   C61320089   7.746   7.251   6.723 -0.1520 -0.2146 -0.1107
   19MOL   C61420090   7.716   7.375   6.925 -0.5077  0.5765 -0.3300
   19MOL   C61520091   7.849   7.161   6.950  0.4393 -0.0581  0.7798
   19MOL   C61620092   7.969   7.119   6.881 -0.0167 -0.5469 -0.3445
   19MOL   C61720093   8.084   7.067   6.947  0.1151 -0.0352 -0.5073
   19MOL   C61820094   8.080   7.054   7.090  0.1061 -0.3685 -0.7749
   19MOL   O61920095   8.179   6.994   7.162 -0.6026 -0.4484  0.2726
   19MOL   C62020096   7.962   7.082   7.160 -1.0163  0.1958  0.4783
   19MOL   C62120097   7.850   7.143   7.092  0.4893 -0.2156 -0.0069
   19MOL   C62220098   7.628   7.001   6.862 -0.4536 -0.4354  0.3004
   19MOL   C62320099   7.539   6.904   6.890  0.0877 -0.0736  0.5259
   19MOL   C62420100   7.306   6.845   7.224 -0.3654 -0.7278  0.0774
   19MOL   C62520101   7.305   6.767   7.346  0.4838 -0.1596 -0.4593
   19MOL   C62620102   7.215   6.332   7.528 -0.1912 -0.0535 -0.6590
   19MOL   C62720103   7.167   6.197   7.518  0.3564  0.5934  0.7657
   19MOL   H62820104   7.430   6.095   7.316  1.9746  0.9744 -0.3341
   19MOL   H62920105   7.496   6.308   7.336 -0.4151 -1.9616 -1.2365
   19MOL   H63020106   7.386   6.468   7.212 -1.8939 -0.3405  3.4100
   19MOL   H63120107   7.362   6.588   7.005  1.7583  0.0587  0.7722
   19MOL   H63220108   7.296   7.095   7.024  0.7486 -1.6755  3.9834
   19MOL   H63320109   7.470   7.273   6.986 -0.1982  2.0269 -3.3789
   19MOL   H63420110   7.648   7.277   6.684  0.3184  1.4791 -0.2029
   19MOL   H63520111   7.778   7.160   6.672 -0.3026  0.4841 -1.4792
   19MOL   H63620112   7.822   7.327   6.702 -0.9350 -0.5298 -4.5591
   19MOL   H63720113   7.690   7.382   7.031  1.1969  3.0093 -0.0251
   19MOL   H63820114   7.802   7.442   6.932 -1.0306  1.2682 -0.4968
   19MOL   H63920115   7.625   7.414   6.880 -2.4613 -1.2082  1.9173
   19MOL   H64020116   7.986   7.138   6.776  1.7487  0.5579  0.1145
   19MOL   H64120117   8.175   7.035   6.897  1.3098  1.1928  0.8214
   19MOL   H64220118   7.960   7.074   7.268  0.3563 -0.5385  0.4656
   19MOL   H64320119   7.762   7.177   7.144  0.0350 -1.2325 -0.0884
   19MOL   H64420120   7.717   6.966   6.811 -0.1749 -2.3632  2.0314
   19MOL   H64520121   7.563   6.802   6.863 -0.6379  0.8814 -4.2967
   19MOL   H64620122   7.271   6.946   7.213 -0.9129 -0.8610  0.5257
   19MOL   H64720123   7.299   6.814   7.444 -0.5951 -1.6647  0.2120
   19MOL   H64820124   7.169   6.399   7.599  1.7419 -0.3193  0.8919
   19MOL   H64920125   7.081   6.157   7.570 -1.4537  1.2861 -1.5776
   19MOL   C65020126   8.200   6.860   7.159  0.5334  0.4822  0.1104
   19MOL   C65120127   8.141   6.775   7.062 -0.3642 -0.4736 -0.6676
   19MOL   C65220128   8.175   6.640   7.055  0.5465 -0.1312 -0.3403
   19MOL   C65320129   0.015   6.580   7.143  0.1155  0.1723  0.2014
   19MOL   S65420130   0.059   6.401   7.153  0.0842 -0.3737  0.2781
   19MOL   O65520131   0.071   6.365   7.292  0.3317 -0.2624  0.1403
   19MOL   O65620132   0.163   6.377   7.055  0.0209 -0.2219 -0.0749
   19MOL   C65720133   8.175   6.303   7.091 -0.3284  0.7739  0.3836
   19MOL   C65820134   8.086   6.235   7.173 -0.0657 -0.5368  0.4831
   19MOL   C65920135   7.996   6.143   7.117  0.0657 -0.2180 -0.2851
   19MOL   C66020136   7.978   6.133   6.979 -1.0892  1.1599  0.0264
   19MOL   O66120137   7.880   6.057   6.930 -0.1645  0.3698  0.1567
   19MOL   C66220138   7.761   6.122   6.894  0.0424  0.7672 -0.6229
   19MOL   C66320139   7.683   6.067   6.785 -0.9729  0.0576 -0.6585
   19MOL   C66420140   7.565   6.122   6.742 -0.0536  0.5765  0.1621
   19MOL   C66520141   7.502   6.213   6.822  0.4825  0.3926 -0.1578
   19MOL   C66620142   7.356   6.252   6.790  0.6515 -0.3294  0.6752
   19MOL   C66720143   7.359   6.389   6.724  0.4075 -0.1255  0.4076
   19MOL   C66820144   7.290   6.168   6.688  0.3320 -0.5077  0.1385
   19MOL   C66920145   7.271   6.252   6.918  0.3544  0.2773 -0.1463
   19MOL   C67020146   7.259   6.128   6.981 -0.1810  0.7916  0.4227
   19MOL   C67120147   7.175   6.118   7.093 -0.0156  0.2804  0.4073
   19MOL   C67220148   7.091   6.225   7.132 -0.0972 -0.5659  0.3721
   19MOL   O67320149   6.999   6.202   7.231  0.3306 -0.3203  0.0331
   19MOL   C67420150   7.113   6.349   7.071  0.0947 -0.8360  0.7500
   19MOL   C67520151   7.199   6.367   6.967 -0.8109  0.1778 -0.0495
   19MOL   C67620152   7.566   6.267   6.932  0.5560  0.1649 -0.1863
   19MOL   C67720153   7.690   6.218   6.972 -0.1088  0.1663 -0.4797
   19MOL   C67820154   8.057   6.215   6.894 -0.2520 -0.0974 -0.4455
   19MOL   C67920155   8.160   6.296   6.957  0.5945 -0.7810  0.9581
   19MOL   C68020156   0.077   6.667   7.241 -0.1102  0.6498  0.4238
   19MOL   C68120157   0.043   6.808   7.246  0.2561 -0.2697 -0.3145
   19MOL   H68220158   8.075   6.811   6.984 -2.2721 -3.2862 -0.4470
   19MOL   H68320159   8.129   6.576   6.980  0.3159 -1.6454  1.0564
   19MOL   H68420160   8.092   6.248   7.280  0.7285  0.8608  0.2867
   19MOL   H68520161   7.932   6.087   7.183 -0.8372  0.8764 -0.2177
   19MOL   H68620162   7.722   5.978   6.737  0.9069  0.3386  0.2805
   19MOL   H68720163   7.518   6.079   6.655  2.5188  0.5288 -1.2473
   19MOL   H68820164   7.259   6.423   6.694  0.6957  2.3022  1.9994
   19MOL   H68920165   7.418   6.400   6.633 -0.7593  1.4320 -0.1880
   19MOL   H69020166   7.402   6.458   6.797  1.3261 -1.7129  1.3771
   19MOL   H69120167   7.331   6.170   6.587 -0.6002  1.7823 -0.2322
   19MOL   H69220168   7.270   6.067   6.724 -1.0859 -0.1908  0.2618
   19MOL   H69320169   7.187   6.198   6.672 -0.3559 -2.0909  1.4884
   19MOL   H69420170   7.310   6.037   6.952 -1.5904 -0.1354  0.8352
   19MOL   H69520171   7.159   6.021   7.138  0.5420 -0.4577 -0.9559
   19MOL   H69620172   7.065   6.439   7.106  1.2671 -0.1377  0.5959
   19MOL   H69720173   7.205   6.462   6.916 -0.4608 -0.6575 -1.5882
   19MOL   H69820174   7.511   6.341   6.989 -0.2955 -1.8008  1.5918
   19MOL   H69920175   7.740   6.252   7.062 -0.9936 -0.6612  0.3422
   19MOL   H70020176   8.039   6.215   6.788 -1.4721 -0.6390 -0.2464
   19MOL   H70120177   8.226   6.340   6.884 -0.8486 -1.8278 -1.0238
   19MOL   H70220178   0.145   6.632   7.318  0.2489  2.4975  0.9745
   19MOL   H70320179   0.083   6.871   7.324 -1.9501  0.3679  0.3297
   19MOL   C70420180   6.877   6.157   7.189 -0.0192  0.4546 -0.1981
   19MOL   C70520181   6.852   6.020   7.173 -0.0428 -0.2738 -0.8079
   19MOL   C70620182   6.726   5.976   7.134  0.4069  0.0431 -0.1723
   19MOL   C70720183   6.621   6.068   7.107 -0.3565 -0.5211 -0.0323
   19MOL   S70820184   6.453   6.019   7.082  0.2672  0.2206 -0.0053
   19MOL   O70920185   6.443   5.957   6.947  0.2310 -0.0083  0.2293
   19MOL   O71020186   6.371   6.139   7.118 -0.0029  0.9719 -0.2709
   19MOL   C71120187   6.424   5.896   7.203  0.1369 -0.1102 -0.1772
   19MOL   C71220188   6.375   5.772   7.157 -0.6329 -0.3199 -0.0789
   19MOL   C71320189   6.350   5.668   7.249 -0.0461  0.6968 -0.7419
   19MOL   C71420190   6.367   5.688   7.387 -0.1732  1.0914 -0.4010
   19MOL   O71520191   6.345   5.590   7.477  0.2588 -0.0416  0.0639
   19MOL   C71620192   6.229   5.602   7.548 -0.0804 -0.3210  0.1328
   19MOL   C71720193   6.114   5.522   7.515  0.5855 -0.0918 -0.1461
   19MOL   C71820194   5.992   5.552   7.587 -0.1652 -0.0363 -0.5157
   19MOL   C71920195   5.988   5.635   7.702  0.4339 -0.3468 -0.2313
   19MOL   C72020196   5.859   5.658   7.784  0.2944  0.8200  0.5150
   19MOL   C72120197   5.806   5.798   7.773  0.2169  0.0823 -0.6678
   19MOL   C72220198   5.745   5.565   7.744 -0.0611 -0.4214  0.3132
   19MOL   C72320199   5.888   5.608   7.924 -0.9019 -0.3633 -0.1626
   19MOL   C72420200   5.964   5.490   7.944 -0.4605  0.5809  0.7802
   19MOL   C72520201   5.978   5.431   8.072  0.1183  0.5062  0.1652
   19MOL   C72620202   5.923   5.500   8.185  0.0134 -0.7394  0.1155
   19MOL   O72720203   5.947   5.457   0.057 -0.2071  0.1191  0.0501
   19MOL   C72820204   5.850   5.616   8.166  1.2716 -0.1318 -0.1232
   19MOL   C72920205   5.834   5.675   8.039  0.1279  0.4976 -0.1384
   19MOL   C73020206   6.108   5.705   7.734 -0.1456 -0.1543  0.2312
   19MOL   C73120207   6.229   5.678   7.663 -0.1833 -0.0818 -0.1220
   19MOL   C73220208   6.396   5.822   7.434 -0.1967  0.2479  0.0874
   19MOL   C73320209   6.429   5.924   7.341  0.1022  0.5436  0.3721
   19MOL   C73420210   6.651   6.202   7.120  0.0560 -0.2852  0.1339
   19MOL   C73520211   6.779   6.245   7.157 -0.3627 -0.7903  0.5187
   19MOL   H73620212   6.928   5.945   7.191 -1.0410 -0.7980  1.3413
   19MOL   H73720213   6.706   5.870   7.122  0.0186  0.2518 -1.3890
   19MOL   H73820214   6.341   5.755   7.055 -2.1741 -1.0952  0.5481
   19MOL   H73920215   6.295   5.579   7.222 -0.9471  0.2078  2.4879
   19MOL   H74020216   6.113   5.465   7.423  1.4687  2.6566 -1.9313
   19MOL   H74120217   5.906   5.500   7.546  0.5746 -1.3612 -0.4053
   19MOL   H74220218   5.806   5.832   7.669  0.1563  0.6361 -0.4875
   19MOL   H74320219   5.865   5.876   7.820  0.8548 -1.5914  1.4058
   19MOL   H74420220   5.706   5.803   7.815  0.1751 -2.3751 -0.4078
   19MOL   H74520221   5.780   5.462   7.737 -0.9580 -0.6742 -0.5643
   19MOL   H74620222   5.664   5.565   7.818 -0.2717 -1.1466  0.0821
   19MOL   H74720223   5.711   5.604   7.648  0.1193  0.0434  0.4387
   19MOL   H74820224   5.984   5.433   7.855 -1.6597  2.1845 -0.5462
   19MOL   H74920225   6.025   5.336   8.091 -1.7480 -0.5442 -0.3139
   19MOL   H75020226   5.800   5.665   8.248  2.3160  1.3074 -0.3216
   19MOL   H75120227   5.773   5.764   8.035 -0.2089  0.4200  2.4556
   19MOL   H75220228   6.109   5.770   7.820  1.4319  0.1057  0.0278
   19MOL   H75320229   6.322   5.715   7.703  0.4999 -0.5543 -1.2412
   19MOL   H75420230   6.411   5.855   7.536 -0.5275 -0.2815  0.3070
   19MOL   H75520231   6.452   6.027   7.363  0.6132  0.6766 -0.7608
   19MOL   H75620232   6.575   6.275   7.095  0.6388  0.9206  1.7536
   19MOL   H75720233   6.808   6.349   7.167  2.1708 -1.4686  0.3128
   19MOL   C75820234   5.877   5.344   0.094 -0.7452 -0.2224  0.5656
   19MOL   C75920235   5.957   5.233   0.121  0.2916  0.4368  0.5425
   19MOL   C76020236   5.891   5.110   0.154 -0.0120 -0.0557 -0.0397
   19MOL   C76120237   5.751   5.098   0.153 -0.1804 -0.1519 -0.0529
   19MOL   S76220238   5.678   4.943   0.199  0.3087  0.0285 -0.5621
   19MOL   O76320239   5.636   4.953   0.340  0.4766  0.1793 -0.0006
   19MOL   O76420240   5.769   4.835   0.157  0.4570 -0.1572  0.0810
   19MOL   C76520241   5.523   4.929   0.111  0.1138  0.3695  0.1452
   19MOL   C76620242   5.511   4.958   8.230 -0.3091 -0.1824 -0.7125
   19MOL   C76720243   5.387   4.937   8.163  0.5339  0.0791  0.6851
   19MOL   C76820244   5.273   4.890   8.236 -0.0413 -0.5112  0.1922
   19MOL   O76920245   5.157   4.857   8.177 -0.7866  0.0484 -0.1961
   19MOL   C77020246   5.109   4.945   8.084 -0.3432 -0.4865 -0.1930
   19MOL   C77120247   5.039   5.061   8.123 -0.5179  0.3231 -0.3069
   19MOL   C77220248   4.986   5.154   8.032 -0.1440  0.3100  0.3172
   19MOL   C77320249   4.995   5.126   7.891 -0.0461 -0.8722  0.4895
   19MOL   C77420250   4.921   5.206   7.789  0.3905  0.1359  0.2325
   19MOL   C77520251   4.794   5.122   7.754  0.3146 -0.1973 -0.3796
   19MOL   C77620252   4.858   5.339   7.849  0.5314 -0.3561  0.3201
   19MOL   C77720253   5.001   5.252   7.670 -0.4767 -0.0869  0.0679
   19MOL   C77820254   5.115   5.336   7.688  0.0767 -0.1913 -0.4225
   19MOL   C77920255   5.204   5.371   7.587  0.0348  0.3570 -0.4962
   19MOL   C78020256   5.179   5.313   7.460 -0.0330 -0.2784 -0.0411
   19MOL   O78120257   5.265   5.344   7.348  0.0938  0.8841  0.2819
   19MOL   C78220258   5.060   5.244   7.433  0.1841 -0.0207  0.3580
   19MOL   C78320259   4.977   5.213   7.541 -0.1875  0.4724 -0.0555
   19MOL   C78420260   5.072   5.014   7.847  0.9082 -0.0650 -0.5366
   19MOL   C78520261   5.134   4.933   7.946 -0.1677  0.1372  0.6014
   19MOL   C78620262   5.285   4.867   0.124  0.2761 -0.7604  0.1039
   19MOL   C78720263   5.413   4.877   0.185  0.1470 -0.3052 -0.6361
   19MOL   C78820264   5.672   5.214   0.129  0.3778 -0.1430 -0.0641
   19MOL   C78920265   5.735   5.335   0.101 -0.1921  0.1859  0.0516
   19MOL   H79020266   6.064   5.236   0.103 -0.0299  2.1142 -1.3023
   19MOL   H79120267   5.944   5.021   0.185 -0.0701 -0.4219 -0.9887
   19MOL   H79220268   5.594   4.993   8.171 -0.3843  1.8869  0.3758
   19MOL   H79320269   5.366   4.970   8.062  1.8120 -2.5960 -0.4970
   19MOL   H79420270   5.032   5.080   8.229 -2.4216 -1.0151 -0.1803
   19MOL   H79520271   4.929   5.238   8.070 -0.3734  0.7724 -1.0309
   19MOL   H79620272   4.731   5.163   7.676  0.7158 -1.7973 -1.5772
   19MOL   H79720273   4.726   5.100   7.837  0.0903  2.1476  0.0784
   19MOL   H79820274   4.826   5.025   7.716  0.3631 -0.9654  1.5655
   19MOL   H79920275   4.788   5.381   7.776  0.2570  1.8363  1.7798
   19MOL   H80020276   4.807   5.322   7.944 -0.0372 -0.2422  0.0428
   19MOL   H80120277   4.924   5.418   7.883 -1.6239  0.4840  2.6960
   19MOL   H80220278   5.133   5.356   7.793 -0.9159 -2.5483  0.2279
   19MOL   H80320279   5.294   5.430   7.594  0.1742  0.0890  0.0181
   19MOL   H80420280   5.030   5.215   7.333  0.9245 -0.6086  0.3032
   19MOL   H80520281   4.887   5.156   7.522 -0.5124  0.4380  1.5574
   19MOL   H80620282   5.084   4.980   7.745  0.8857  1.8359 -1.2017
   19MOL   H80720283   5.192   4.852   7.906 -0.3522 -1.2097  3.0023
   19MOL   H80820284   5.205   4.823   0.181  0.5815 -0.4384  0.7752
   19MOL   H80920285   5.423   4.835   0.284  1.5228 -3.7033 -2.1364
   19MOL   H81020286   5.564   5.209   0.129  0.3889 -0.6925 -1.6705
   19MOL   H81120287   5.679   5.422   0.072 -0.6315  0.5185  1.8542
   19MOL   C81220288   5.327   5.231   7.293 -0.4522 -0.4587  0.4224
   19MOL   C81320289   5.314   5.208   7.156 -0.7545  0.4513 -0.0169
   19MOL   C81420290   5.348   5.081   7.100 -0.5171  0.3937 -0.2586
   19MOL   C81520291   5.408   4.984   7.186 -0.3907  0.2594 -0.0561
   19MOL   S81620292   5.429   4.811   7.127 -0.6564  0.6658 -0.2473
   19MOL   O81720293   5.544   4.748   7.200 -0.0012  0.0808  0.8561
   19MOL   O81820294   5.427   4.814   6.979 -0.2555 -0.6044  0.1683
   19MOL   C81920295   5.279   4.732   7.170  0.1146  0.3020  0.2721
   19MOL   C82020296   5.286   4.597   7.191  0.4477 -0.2020 -0.5534
   19MOL   C82120297   5.170   4.532   7.237 -0.3235  0.1081 -0.3675
   19MOL   C82220298   5.045   4.588   7.245 -0.0284  0.0311 -0.9020
   19MOL   O82320299   4.940   4.514   7.286 -0.5102 -0.3527 -0.6930
   19MOL   C82420300   4.824   4.523   7.215 -0.9826 -0.4861  0.3592
   19MOL   C82520301   4.823   4.548   7.076  1.0141  0.6816 -0.2199
   19MOL   C82620302   4.700   4.539   7.005 -0.3198 -0.1691  0.0814
   19MOL   C82720303   4.575   4.513   7.069 -0.7288  0.6221  0.1941
   19MOL   C82820304   4.449   4.520   6.991 -0.3863  0.3961 -0.2281
   19MOL   C82920305   4.336   4.455   7.072 -0.1991  0.3296 -0.3831
   19MOL   C83020306   4.424   4.671   6.962 -0.5281  0.3153  0.2482
   19MOL   C83120307   4.461   4.424   6.869  0.8274  0.0972  0.0652
   19MOL   C83220308   4.388   4.441   6.748 -0.2880 -0.5042 -0.2135
   19MOL   C83320309   4.408   4.363   6.637  0.1630  0.0790  0.6008
   19MOL   C83420310   4.502   4.256   6.634  0.0374 -0.3333 -0.5803
   19MOL   O83520311   4.518   4.182   6.523 -0.0841  0.5341 -0.1282
   19MOL   C83620312   4.566   4.225   6.759  0.4359 -0.6421 -0.0651
   19MOL   C83720313   4.543   4.311   6.875 -0.6628 -0.2306  0.2214
   19MOL   C83820314   4.583   4.488   7.209  1.1927 -0.2851  0.0086
   19MOL   C83920315   4.703   4.490   7.278  0.5479  0.0158 -0.7639
   19MOL   C84020316   5.036   4.730   7.233  0.2111  0.5515 -0.1740
   19MOL   C84120317   5.154   4.800   7.185 -0.6005 -0.0692  0.4263
   19MOL   C84220318   5.437   5.013   7.317  0.8448 -0.5178 -0.0603
   19MOL   C84320319   5.394   5.138   7.372 -0.4820  0.4730 -0.1000
   19MOL   H84420320   5.274   5.282   7.088 -1.4467  1.8707  1.8509
   19MOL   H84520321   5.327   5.053   6.998 -0.7592  1.0924 -0.4064
   19MOL   H84620322   5.384   4.550   7.186  0.9152  0.4484  1.8400
   19MOL   H84720323   5.186   4.426   7.249  2.7436  0.5185 -0.4558
   19MOL   H84820324   4.909   4.574   7.016  1.9524 -1.8602 -0.0626
   19MOL   H84920325   4.704   4.546   6.898  1.0182  0.7118  0.1726
   19MOL   H85020326   4.362   4.359   7.116 -0.5393  0.5355  0.2792
   19MOL   H85120327   4.243   4.436   7.018 -1.5298  4.0391  0.4036
   19MOL   H85220328   4.324   4.525   7.155  1.1898  0.2838 -0.1403
   19MOL   H85320329   4.513   4.717   6.921  0.0179 -0.3671  0.6520
   19MOL   H85420330   4.343   4.686   6.891  0.8928  0.6625 -1.3259
   19MOL   H85520331   4.419   4.732   7.053 -0.4450  0.4820  0.1415
   19MOL   H85620332   4.328   4.529   6.733  0.9262  0.5708  1.1297
   19MOL   H85720333   4.338   4.378   6.556 -0.3343 -2.6071  0.4901
   19MOL   H85820334   4.625   4.134   6.767  0.6509 -0.4594  0.4590
   19MOL   H85920335   4.602   4.288   6.963 -2.4930 -0.0557  1.5397
   19MOL   H86020336   4.494   4.452   7.257  1.4474  1.3005  1.7311
   19MOL   H86120337   4.706   4.454   7.380 -1.9074 -1.5496 -1.2124
   19MOL   H86220338   4.940   4.778   7.249  0.0096 -0.7223  2.8922
   19MOL   H86320339   5.140   4.906   7.175 -1.8493 -0.3444 -0.8346
   19MOL   H86420340   5.484   4.941   7.382  0.4303  0.2486  1.1130
   19MOL   H86520341   5.416   5.152   7.477 -2.2766  0.2497  0.3112
   19MOL   C86620342   4.614   4.215   6.437 -0.1716 -0.3459  0.2396
   19MOL   C86720343   4.731   4.135   6.434 -0.5296  0.2963  0.2608
   19MOL   C86820344   4.834   4.158   6.338  0.8991  0.3130  0.2256
   19MOL   C86920345   4.819   4.268   6.249  0.1248 -0.0005  0.1840
   19MOL   S87020346   4.935   4.291   6.113 -0.0957  0.4018 -0.2240
   19MOL   O87120347   5.072   4.271   6.170 -0.1947  0.6564  0.0559
   19MOL   O87220348   4.894   4.418   6.055  0.5154  0.6664 -0.1173
   19MOL   C87320349   4.892   4.163   5.997 -0.4627  0.2331 -0.3747
   19MOL   C87420350   4.762   4.160   5.949 -0.0772  0.1367  0.0020
   19MOL   C87520351   4.728   4.064   5.852  0.0682  0.0916 -0.5844
   19MOL   C87620352   4.825   3.978   5.801  0.3620 -0.2081  0.0852
   19MOL   O87720353   4.774   3.881   5.714 -0.0507  0.1356 -0.1544
   19MOL   C87820354   4.776   3.748   5.749 -0.5107  0.0149 -0.8206
   19MOL   C87920355   4.753   3.715   5.883  0.9016  0.4901  0.2075
   19MOL   C88020356   4.738   3.578   5.921  0.5650  0.7234 -0.0172
   19MOL   C88120357   4.768   3.474   5.832  0.7140 -0.7937  0.3378
   19MOL   C88220358   4.768   3.333   5.881  0.0621  0.4486 -0.1391
   19MOL   C88320359   4.728   3.312   6.034  0.0292 -0.3387  0.8668
   19MOL   C88420360   4.667   3.256   5.793  0.6839 -0.1031 -0.0826
   19MOL   C88520361   4.907   3.268   5.860  0.6729 -0.4187 -0.6779
   19MOL   C88620362   4.923   3.130   5.835  0.0879  0.6585 -1.3051
   19MOL   C88720363   5.054   3.076   5.821 -0.7062 -0.0954 -0.3889
   19MOL   C88820364   5.175   3.152   5.836  0.3771  0.0957  0.2993
   19MOL   O88920365   5.302   3.103   5.811  0.2735 -0.6129 -0.3709
   19MOL   C89020366   5.155   3.287   5.865  0.2838  0.0256  0.7701
   19MOL   C89120367   5.027   3.342   5.866 -0.5167  0.2702 -0.5654
   19MOL   C89220368   4.795   3.508   5.698 -0.2334 -0.6961  0.8736
   19MOL   C89320369   4.801   3.644   5.654 -0.4842 -0.4855 -0.6899
   19MOL   C89420370   4.958   3.985   5.843 -0.1589 -0.2848 -0.0275
   19MOL   C89520371   4.990   4.080   5.941 -0.4523 -0.0998  0.6710
   19MOL   C89620372   4.704   4.351   6.259  0.6471  0.6296  0.0282
   19MOL   C89720373   4.604   4.324   6.351  0.4882 -0.5204 -0.1724
   19MOL   H89820374   4.728   4.049   6.499 -2.2973  0.4764  0.4423
   19MOL   H89920375   4.906   4.078   6.336 -1.9067 -2.3775  1.2121
   19MOL   H90020376   4.687   4.218   6.002  0.4051  0.1560  0.6672
   19MOL   H90120377   4.625   4.050   5.823 -0.3609 -0.8636  1.2659
   19MOL   H90220378   4.722   3.794   5.950  0.2583  0.9045 -0.5815
   19MOL   H90320379   4.715   3.564   6.026 -2.2046  1.0387 -0.5341
   19MOL   H90420380   4.735   3.207   6.064  2.0611 -1.0608 -1.9096
   19MOL   H90520381   4.629   3.346   6.065 -1.1332 -1.9783 -0.9248
   19MOL   H90620382   4.801   3.367   6.093 -0.0577  0.9374 -0.1986
   19MOL   H90720383   4.584   3.326   5.783  1.4180  0.8645  0.6352
   19MOL   H90820384   4.713   3.254   5.694 -1.0631 -1.0551 -0.9054
   19MOL   H90920385   4.636   3.156   5.826 -0.6693  0.7305  1.2399
   19MOL   H91020386   4.834   3.070   5.843 -0.8158  2.2173  1.3036
   19MOL   H91120387   5.060   2.969   5.815  0.6053  0.0559 -2.2410
   19MOL   H91220388   5.244   3.347   5.852  0.6823 -1.2431 -2.9401
   19MOL   H91320389   5.018   3.449   5.877 -1.1497  0.0415  1.4241
   19MOL   H91420390   4.789   3.433   5.621 -1.0449 -0.3309  0.5782
   19MOL   H91520391   4.803   3.659   5.547 -0.5956  0.4037 -0.5743
   19MOL   H91620392   5.032   3.917   5.804 -0.2967 -0.6425  0.3208
   19MOL   H91720393   5.092   4.088   5.976 -0.3358  1.7916 -0.0536
   19MOL   H91820394   4.692   4.436   6.194 -1.0418 -1.2616 -2.2562
   19MOL   H91920395   4.517   4.389   6.354  0.6954 -0.2467 -0.1367
   19MOL   C92020396   5.318   3.044   5.687  0.0279 -0.0782 -0.4120
   19MOL   C92120397   5.399   2.928   5.685  0.0520 -0.0781  0.4896
   19MOL   C92220398   5.436   2.869   5.561 -0.0782 -0.2315 -0.1233
   19MOL   C92320399   5.378   2.920   5.447 -0.4263  0.1617 -0.4619
   19MOL   S92420400   5.396   2.837   5.281 -0.0719  0.0897 -0.3108
   19MOL   O92520401   5.276   2.860   5.195 -0.3486  0.7838 -0.3339
   19MOL   O92620402   5.447   2.698   5.292 -0.3431  0.2203  0.0264
   19MOL   C92720403   5.523   2.949   5.223 -0.2351  0.5737 -0.7079
   19MOL   C92820404   5.656   2.909   5.232  0.0498  0.1511 -0.4004
   19MOL   C92920405   5.756   3.008   5.206  0.4549 -0.0119  0.4286
   19MOL   C93020406   5.717   3.135   5.176  0.0193 -0.2837 -0.3742
   19MOL   O93120407   5.814   3.236   5.175 -0.0633  0.6721  0.3086
   19MOL   C93220408   5.779   3.352   5.239  0.1357 -0.0502 -0.0376
   19MOL   C93320409   5.777   3.476   5.169  0.2023  0.1366  0.3027
   19MOL   C93420410   5.764   3.597   5.240  0.3601  0.1858 -0.5013
   19MOL   C93520411   5.761   3.592   5.381 -0.0731 -0.6903 -0.3520
   19MOL   C93620412   5.775   3.721   5.473  0.2760  0.2139 -0.1633
   19MOL   C93720413   5.864   3.825   5.400  0.5741  0.4414 -0.3096
   19MOL   C93820414   5.631   3.774   5.506 -0.2062  0.0125 -0.3576
   19MOL   C93920415   5.851   3.686   5.609  0.0029 -0.2248 -0.3557
   19MOL   C94020416   5.971   3.619   5.604 -0.1686  0.1041 -0.1305
   19MOL   C94120417   6.048   3.594   5.722 -0.1690 -0.2714 -0.8625
   19MOL   C94220418   6.004   3.634   5.845 -0.3094  0.2144  0.2254
   19MOL   O94320419   6.064   3.603   5.971 -0.1707 -0.5923 -0.2272
   19MOL   C94420420   5.880   3.707   5.859 -0.7538 -0.1232 -0.5644
   19MOL   C94520421   5.809   3.725   5.740  0.1523 -1.1190 -0.5219
   19MOL   C94620422   5.753   3.468   5.445  0.4746 -0.1194 -0.4529
   19MOL   C94720423   5.760   3.347   5.379  0.4086 -0.0252  0.7212
   19MOL   C94820424   5.579   3.171   5.149  0.0908  0.9490 -0.5544
   19MOL   C94920425   5.487   3.073   5.183 -0.0437 -0.3558 -0.8750
   19MOL   C95020426   5.295   3.030   5.450 -0.0385 -0.6808  0.2704
   19MOL   C95120427   5.267   3.094   5.570  1.0782 -0.1225  0.1401
   19MOL   H95220428   5.452   2.891   5.771  0.9019 -1.5756 -0.6363
   19MOL   H95320429   5.507   2.788   5.554  0.8628  0.5996 -0.2193
   19MOL   H95420430   5.684   2.810   5.266  0.8657 -0.0715 -1.6572
   19MOL   H95520431   5.858   2.982   5.228  0.5567  1.8209  2.2504
   19MOL   H95620432   5.801   3.473   5.064  2.1963  0.3983  0.7372
   19MOL   H95720433   5.773   3.685   5.178  0.8787  0.2521 -0.3386
   19MOL   H95820434   5.964   3.786   5.384  1.2961  0.8036  2.9244
   19MOL   H95920435   5.876   3.915   5.460 -0.9190  0.0486  0.6181
   19MOL   H96020436   5.821   3.856   5.305  1.0007 -2.0609 -1.3755
   19MOL   H96120437   5.581   3.687   5.548  1.4792 -1.3613 -1.1808
   19MOL   H96220438   5.620   3.862   5.570 -1.6785 -1.8052  1.9499
   19MOL   H96320439   5.592   3.793   5.406 -0.5601  1.1286 -0.0217
   19MOL   H96420440   6.012   3.585   5.510  1.3141  0.1909  0.4576
   19MOL   H96520441   6.145   3.548   5.726 -0.2599 -0.3906  0.1687
   19MOL   H96620442   5.838   3.733   5.955  1.1231  1.2445 -0.0832
   19MOL   H96720443   5.714   3.776   5.750  0.1138 -1.0418 -1.2686
   19MOL   H96820444   5.747   3.461   5.553 -0.5536 -4.3194 -0.7173
   19MOL   H96920445   5.775   3.258   5.438  3.0465 -0.2847 -0.2772
   19MOL   H97020446   5.552   3.271   5.119 -1.2886  1.5453  2.4235
   19MOL   H97120447   5.386   3.108   5.182 -0.2241 -0.8846 -1.5563
   19MOL   H97220448   5.239   3.060   5.362  0.3726  3.5767  1.3672
   19MOL   H97320449   5.201   3.179   5.571  1.6515  0.3234  1.5817
   19MOL   C97420450   6.172   3.682   6.005  0.5672 -0.8088  0.5271
   19MOL   C97520451   6.159   3.814   6.043 -0.0080  0.3275 -0.3006
   19MOL   C97620452   6.265   3.878   6.103  0.3954 -0.4379 -0.4943
   19MOL   C97720453   6.387   3.813   6.120 -0.2272 -0.1057  0.2426
   19MOL   S97820454   6.517   3.895   6.208 -0.1141 -0.0127  0.1076
   19MOL   O97920455   6.471   4.028   6.257  0.1598  0.7442 -0.2862
   19MOL   O98020456   6.633   3.885   6.111  0.0614  0.5312 -0.7922
   19MOL   C98120457   6.551   3.785   6.340 -0.0158 -0.1916  0.6739
   19MOL   C98220458   6.475   3.793   6.456 -0.3992 -0.5378  0.5172
   19MOL   C98320459   6.502   3.708   6.565 -0.4224 -0.8299  0.0562
   19MOL   C98420460   6.620   3.630   6.558  0.2732 -0.3714 -0.1770
   19MOL   O98520461   6.666   3.563   6.668  0.1252  0.2850  0.8535
   19MOL   C98620462   6.741   3.634   6.755 -0.4562 -0.0553 -0.9375
   19MOL   C98720463   6.858   3.705   6.724 -0.1433 -0.3163 -0.0782
   19MOL   C98820464   6.921   3.796   6.815 -0.0561  0.3250 -0.2546
   19MOL   C98920465   6.867   3.810   6.947  0.3018 -0.6549  0.9956
   19MOL   C99020466   6.927   3.904   7.049  0.2058  0.5308 -0.0667
   19MOL   C99120467   6.949   3.827   7.179  0.3451 -0.4247  0.2481
   19MOL   C99220468   7.070   3.946   7.009  0.2343  0.6971 -0.1179
   19MOL   C99320469   6.842   4.034   7.058  0.2935  0.0592 -0.0411
   19MOL   C99420470   6.814   4.111   6.945 -0.5100  0.8226  0.7144
   19MOL   C99520471   6.767   4.242   6.962 -0.0684  0.5464  0.2940
   19MOL   C99620472   6.737   4.295   7.092  0.8919  0.1091 -0.1042
   19MOL   O99720473   6.688   4.420   7.111  0.2600 -0.0648  1.0659
   19MOL   C99820474   6.768   4.223   7.202  0.0280 -0.3738  0.2415
   19MOL   C99920475   6.823   4.097   7.182  0.3287  0.1933 -0.2916
   19MOL     C120476   6.751   3.733   6.984 -0.1753  0.4028 -0.2422
   19MOL     C220477   6.694   3.643   6.889  0.1646 -0.3156  0.1489
   19MOL     C320478   6.698   3.622   6.436  0.3108 -0.3781 -0.8758
   19MOL     C420479   6.666   3.703   6.326 -0.1614  0.0237 -0.1527
   19MOL     C520480   6.407   3.681   6.064 -0.2561  0.8128 -0.8127
   19MOL     C620481   6.294   3.613   6.009 -0.7023 -0.7329 -0.5544
   19MOL     H720482   6.064   3.855   6.014 -0.3675 -0.0692  0.3284
   19MOL     H820483   6.256   3.978   6.144  0.6158  0.4138 -2.4343
   19MOL     H920484   6.404   3.875   6.450  2.0752  1.5032 -1.8972
   19MOL    H1020485   6.448   3.698   6.658 -0.7744 -0.1892 -0.0811
   19MOL    H1120486   6.898   3.699   6.624  1.7762 -0.9106  0.6840
   19MOL    H1220487   7.004   3.854   6.777  1.6550 -1.5865  0.4769
   19MOL    H1320488   6.858   3.771   7.202 -0.6169  0.7350 -0.6951
   19MOL    H1420489   6.984   3.890   7.261 -0.3291 -1.2485  1.1924
   19MOL    H1520490   7.028   3.752   7.179 -0.2390 -1.0423 -0.9663
   19MOL    H1620491   7.061   4.020   6.930 -2.3113  0.3812 -0.1740
   19MOL    H1720492   7.110   3.997   7.097  0.7809 -2.1283  1.3295
   19MOL    H1820493   7.133   3.861   6.985 -1.0747 -0.0893 -0.8154
   19MOL    H1920494   6.833   4.081   6.843 -1.2370  0.2467  0.7436
   19MOL    H2020495   6.742   4.308   6.880 -1.9342 -1.1803 -0.5605
   19MOL    H2120496   6.735   4.260   7.298 -0.0581  0.5067 -0.1228
   19MOL    H2220497   6.837   4.042   7.274 -0.4151  1.3476  0.5300
   19MOL    H2320498   6.693   3.747   7.075 -1.2865 -0.0171 -0.8739
   19MOL    H2420499   6.610   3.584   6.922  0.0027 -0.4808 -0.5571
   19MOL    H2520500   6.789   3.564   6.432  1.0520  0.8208 -1.4357
   19MOL    H2620501   6.727   3.705   6.238  2.2236 -1.0407  1.4351
   19MOL    H2720502   6.505   3.636   6.061 -0.6758 -0.0979 -1.2706
   19MOL    H2820503   6.286   3.514   5.968 -1.6718 -0.3205 -1.3666
   19MOL    C2920504   6.552   4.433   7.124  0.1351 -0.8653 -0.1617
   19MOL    C3020505   6.502   4.508   7.232 -0.4500 -0.4870  0.6077
   19MOL    C3120506   6.374   4.554   7.226 -0.1988 -0.0935 -0.2638
   19MOL    C3220507   6.293   4.513   7.114  0.1866 -0.5456  0.2074
   19MOL    S3320508   6.129   4.581   7.089  0.4122  0.0405  0.3705
   19MOL    O3420509   6.109   4.696   7.182  0.3414  0.4064 -0.0427
   19MOL    O3520510   6.036   4.473   7.093  0.0106 -0.0829 -0.1771
   19MOL    C3620511   6.148   4.649   6.922  0.3031 -0.0460  0.3350
   19MOL    C3720512   6.075   4.582   6.817 -0.1821 -0.6989  0.5796
   19MOL    C3820513   6.085   4.632   6.689  0.6371  0.1755  0.4203
   19MOL    C3920514   6.164   4.748   6.662 -0.0697  0.3951 -0.1107
   19MOL    O4020515   6.184   4.790   6.532 -0.1932  0.5157 -0.5719
   19MOL    C4120516   6.261   4.711   6.449 -0.0072  0.4460 -0.7170
   19MOL    C4220517   6.202   4.665   6.334 -0.2284 -0.5281  0.3833
   19MOL    C4320518   6.275   4.581   6.251 -0.4568 -0.2226 -0.1169
   19MOL    C4420519   6.413   4.554   6.273  0.9364 -0.7038  0.2235
   19MOL    C4520520   6.500   4.475   6.175 -0.1845 -0.3149  0.0796
   19MOL    C4620521   6.549   4.342   6.248  0.1484 -0.1821  0.5329
   19MOL    C4720522   6.426   4.434   6.050  0.2947 -0.3233 -0.1609
   19MOL    C4820523   6.619   4.556   6.127  0.4347  0.1661  0.2065
   19MOL    C4920524   6.740   4.496   6.097 -0.0026  0.0917  0.1579
   19MOL    C5020525   6.846   4.573   6.042 -0.5918 -0.9668  0.3386
   19MOL    C5120526   6.826   4.706   6.016  0.5014 -1.2534  0.3160
   19MOL    O5220527   6.930   4.794   5.981 -0.1380  0.0889 -0.5281
   19MOL    C5320528   6.702   4.767   6.044  0.1688  0.6557  0.2431
   19MOL    C5420529   6.597   4.696   6.098  0.1773  0.5177 -0.2082
   19MOL    C5520530   6.473   4.607   6.388 -0.6141  0.4833  0.1141
   19MOL    C5620531   6.394   4.685   6.481 -0.7431 -0.6354  0.3099
   19MOL    C5720532   6.224   4.818   6.766  0.1419 -0.9155 -0.0760
   19MOL    C5820533   6.215   4.770   6.902  1.3150  0.6761  1.0205
   19MOL    C5920534   6.346   4.439   7.007  1.0684 -0.3118  0.3910
   19MOL    C6020535   6.474   4.394   7.015  0.3868  0.2214  0.3521
   19MOL    H6120536   6.576   4.548   7.300 -0.3665  0.8625 -0.2722
   19MOL    H6220537   6.342   4.624   7.301 -1.6941 -1.7510  0.6626
   19MOL    H6320538   6.014   4.497   6.842 -0.4011 -0.5305  0.6160
   19MOL    H6420539   6.035   4.578   6.611  2.9283  1.0778 -1.7395
   19MOL    H6520540   6.096   4.685   6.325  0.0824  1.0491  0.0652
   19MOL    H6620541   6.227   4.536   6.165 -0.5200  0.7186 -0.5820
   19MOL    H6720542   6.459   4.296   6.291  0.6220 -1.5267  0.1117
   19MOL    H6820543   6.606   4.365   6.338  0.9567  1.2799 -0.3348
   19MOL    H6920544   6.594   4.274   6.176 -1.5464  0.0783 -0.8105
   19MOL    H7020545   6.481   4.369   5.982  2.7028  0.2454  1.1697
   19MOL    H7120546   6.332   4.384   6.074  0.3913 -0.0524  0.8232
   19MOL    H7220547   6.396   4.522   5.994 -0.0452  0.5786  1.4057
   19MOL    H7320548   6.752   4.388   6.106  1.5955  0.1277 -1.3044
   19MOL    H7420549   6.931   4.519   6.003  0.3505  0.5772  0.2194
   19MOL    H7520550   6.683   4.872   6.028  0.7152  0.8381  0.7735
   19MOL    H7620551   6.501   4.743   6.108 -0.3011 -0.9823  2.7639
   19MOL    H7720552   6.577   4.585   6.404 -0.7037  0.4007  0.6184
   19MOL    H7820553   6.438   4.706   6.578 -0.3080 -1.6661  0.3438
   19MOL    H7920554   6.292   4.901   6.751  0.1154 -0.9032 -0.1287
   19MOL    H8020555   6.251   4.830   6.984  2.3162  0.7039  0.5739
   19MOL    H8120556   6.283   4.400   6.928  1.6372 -0.7545  0.1528
   19MOL    H8220557   6.514   4.339   6.931  0.1670  0.8213 -0.1516
   19MOL    H8320558   7.019   4.762   5.975  0.6216  1.6911  1.6237
   20MOL     C120559   5.420   7.003   1.131 -0.8208  0.4944 -0.4193
   20MOL     C220560   5.502   6.894   1.106  0.1082  0.1337 -0.3907
   20MOL     C320561   5.559   6.808   1.200 -1.0941 -0.1874 -0.5926
   20MOL     C420562   5.527   6.837   1.335 -1.1013  0.6298 -0.6370
   20MOL     S520563   5.589   6.751   1.473  0.0358  0.3844 -0.3700
   20MOL     O620564   5.589   6.827   1.594 -0.0595 -0.0340  0.0577
   20MOL     O720565   5.722   6.698   1.440  0.2881 -0.0257  0.0579
   20MOL     C820566   5.475   6.616   1.494  1.1889 -0.1402  1.1330
   20MOL     C920567   5.502   6.507   1.410 -0.3670  0.3023 -0.3260
   20MOL    C1020568   5.434   6.387   1.437 -0.6339 -0.6548  0.3180
   20MOL    C1120569   5.333   6.375   1.532  0.0451 -0.6458  0.0992
   20MOL    O1220570   5.262   6.264   1.559  0.2956  0.0750  0.4557
   20MOL    C1320571   5.271   6.154   1.479  0.5352  0.1827  0.6425
   20MOL    C1420572   5.293   6.025   1.537  0.3019 -0.1209  0.2982
   20MOL    C1520573   5.289   5.913   1.451 -0.4493 -0.2345  0.1879
   20MOL    C1620574   5.266   5.921   1.310 -1.0884 -0.1980  0.0213
   20MOL    C1720575   5.263   5.798   1.226  0.3429 -0.4079 -0.3467
   20MOL    C1820576   5.237   5.828   1.078  0.4901 -0.7215  0.6253
   20MOL    C1920577   5.399   5.715   1.235  0.4773 -0.3970  0.2683
   20MOL    C2020578   5.150   5.709   1.278 -0.6966 -0.5610  0.9162
   20MOL    C2120579   5.169   5.595   1.358 -0.6183 -0.2588 -0.2566
   20MOL    C2220580   5.054   5.516   1.396 -0.0676 -0.2950 -0.1396
   20MOL    C2320581   4.923   5.569   1.380  0.4958 -0.1335 -0.3116
   20MOL    O2420582   4.823   5.483   1.411 -0.6082 -0.0396  0.6415
   20MOL    C2520583   4.907   5.695   1.321  0.1065 -0.2103 -0.8645
   20MOL    C2620584   5.019   5.754   1.261  0.8768  0.2391 -1.0196
   20MOL    C2720585   5.231   6.046   1.260  0.6057 -0.2611 -0.3867
   20MOL    C2820586   5.238   6.164   1.348  0.1127  0.1607 -0.7632
   20MOL    C2920587   5.290   6.493   1.599 -0.3000 -0.2063 -0.2622
   20MOL    C3020588   5.365   6.613   1.583  0.1724 -0.7496  0.0712
   20MOL    C3120589   5.447   6.947   1.366 -0.0147  0.3133 -0.1865
   20MOL    C3220590   5.392   7.031   1.266  0.1377 -0.1355 -0.6805
   20MOL    H3320591   5.523   6.881   1.001  0.6010 -2.4935 -0.0103
   20MOL    H3420592   5.630   6.730   1.177 -0.2660  0.7981 -1.4268
   20MOL    H3520593   5.587   6.499   1.345  1.2093  0.7321  1.6208
   20MOL    H3620594   5.470   6.299   1.384  0.0730 -0.2099  0.0538
   20MOL    H3720595   5.312   6.012   1.642 -0.4941  0.3966  0.5154
   20MOL    H3820596   5.305   5.814   1.490  2.3508 -0.4197 -1.3546
   20MOL    H3920597   5.205   5.743   1.018 -0.1136  0.6481 -1.0669
   20MOL    H4020598   5.321   5.870   1.022 -0.3985  0.0226 -0.1766
   20MOL    H4120599   5.156   5.900   1.061 -0.3269 -1.5503  0.9855
   20MOL    H4220600   5.421   5.695   1.340  0.2069  0.1814  0.4363
   20MOL    H4320601   5.410   5.625   1.174  1.7853 -0.7699  1.0303
   20MOL    H4420602   5.485   5.774   1.203  0.7294 -1.5713 -1.2407
   20MOL    H4520603   5.268   5.552   1.367 -0.4310  0.3030  0.3468
   20MOL    H4620604   5.072   5.424   1.449 -1.4500 -0.7525 -0.4453
   20MOL    H4720605   4.805   5.722   1.300 -0.0236 -1.9811 -2.6982
   20MOL    H4820606   5.001   5.843   1.203  1.0368  0.6568 -0.4295
   20MOL    H4920607   5.209   6.075   1.158 -0.9872  1.2780  0.3609
   20MOL    H5020608   5.215   6.258   1.301 -1.0895  0.0428 -0.4200
   20MOL    H5120609   5.211   6.488   1.673  1.2509  1.5802  1.5966
   20MOL    H5220610   5.332   6.702   1.633 -0.3902 -0.9673  0.0872
   20MOL    H5320611   5.415   6.954   1.469  2.2557 -0.4864  0.5996
   20MOL    H5420612   5.329   7.115   1.293  1.4238  0.6486 -0.0718
   20MOL    H5520613   5.376   7.066   1.055 -1.4951  1.3212  0.6532
   20MOL    C5620614   4.734   5.508   1.507  0.2817  0.3320  0.0245
   20MOL    C5720615   4.597   5.509   1.473 -0.0894 -0.4457  0.7789
   20MOL    C5820616   4.500   5.522   1.576  0.2929  0.2096  0.5476
   20MOL    C5920617   4.542   5.533   1.709  0.3436 -0.6109 -0.1572
   20MOL    S6020618   4.421   5.538   1.837  0.1476  0.1249  0.3993
   20MOL    O6120619   4.476   5.504   1.967  0.1069 -0.1439 -0.3309
   20MOL    O6220620   4.295   5.470   1.796 -1.0197 -0.2744  0.0629
   20MOL    C6320621   4.368   5.714   1.840 -0.2703 -0.1613 -0.2888
   20MOL    C6420622   4.234   5.740   1.870  0.4593 -0.7734  0.2714
   20MOL    C6520623   4.188   5.872   1.877  0.0479 -0.8975  0.4638
   20MOL    C6620624   4.274   5.975   1.843  0.0141 -0.5583  0.6592
   20MOL    O6720625   4.219   6.101   1.836  0.1111  0.0952  0.0056
   20MOL    C6820626   4.249   6.193   1.936  0.1942  0.4509  0.2751
   20MOL    C6920627   4.348   6.291   1.918 -0.6746  0.3589  0.3182
   20MOL    C7020628   4.395   6.368   2.026  0.2338 -0.3580 -0.1233
   20MOL    C7120629   4.314   6.377   2.142  0.6432  0.0457 -0.0783
   20MOL    C7220630   4.353   6.471   2.253  0.5646 -0.2506 -0.3217
   20MOL    C7320631   4.232   6.527   2.328  0.8546 -1.5526  0.4299
   20MOL    C7420632   4.432   6.381   2.357 -0.0273 -0.2107 -0.5681
   20MOL    C7520633   4.434   6.591   2.196 -0.4290 -0.2969  0.3765
   20MOL    C7620634   4.563   6.627   2.253 -0.1068 -0.9488 -0.1518
   20MOL    C7720635   4.631   6.740   2.206  0.7229  0.3618  0.0729
   20MOL    C7820636   4.578   6.817   2.096 -0.0855  0.5635 -0.0088
   20MOL    O7920637   4.653   6.902   2.026 -0.7214  0.0839  0.1958
   20MOL    C8020638   4.452   6.791   2.042 -0.1391  0.6179  0.0419
   20MOL    C8120639   4.372   6.684   2.098  0.6698 -0.2495  0.0007
   20MOL    C8220640   4.215   6.280   2.155  0.5028  0.5802  0.1542
   20MOL    C8320641   4.181   6.183   2.059 -0.6218 -0.7043 -0.2981
   20MOL    C8420642   4.407   5.948   1.809  0.1760 -0.0766  0.4065
   20MOL    C8520643   4.455   5.820   1.810 -0.0971 -0.0321 -0.1665
   20MOL    C8620644   4.683   5.533   1.744 -0.1648  0.0914 -0.0101
   20MOL    C8720645   4.776   5.516   1.640 -0.6080 -0.0592  0.4205
   20MOL    H8820646   4.562   5.496   1.372 -2.1339 -0.5863  1.4915
   20MOL    H8920647   4.393   5.529   1.557  0.2297 -3.1767 -0.7351
   20MOL    H9020648   4.167   5.657   1.886 -0.1981 -0.2168  0.4419
   20MOL    H9120649   4.083   5.883   1.899 -0.9879 -1.9605 -3.4881
   20MOL    H9220650   4.407   6.285   1.827 -2.5147 -0.7707 -0.8502
   20MOL    H9320651   4.468   6.446   2.013  0.6673 -0.7918 -0.3059
   20MOL    H9420652   4.266   6.589   2.411  1.8998 -0.9733 -0.4198
   20MOL    H9520653   4.195   6.434   2.372 -1.9995  0.0535  1.5751
   20MOL    H9620654   4.153   6.569   2.266  2.6565  0.3677 -0.6003
   20MOL    H9720655   4.369   6.308   2.407 -2.0190  1.6850 -0.2133
   20MOL    H9820656   4.515   6.335   2.304  1.3992  1.0493  0.5523
   20MOL    H9920657   4.474   6.450   2.429 -0.6798  0.9734 -1.3024
   20MOL   H10020658   4.612   6.580   2.338 -2.3388 -2.4214  0.3739
   20MOL   H10120659   4.729   6.759   2.247 -1.5964  2.9777  4.7507
   20MOL   H10220660   4.410   6.853   1.965 -0.1250  0.0458 -0.4265
   20MOL   H10320661   4.273   6.658   2.064  0.8276 -1.2997  0.3159
   20MOL   H10420662   4.159   6.279   2.248  0.8593  0.4382  0.3689
   20MOL   H10520663   4.095   6.118   2.071 -1.3555  0.4072  0.5388
   20MOL   H10620664   4.463   6.030   1.765  2.1333 -1.9661 -0.7107
   20MOL   H10720665   4.556   5.811   1.772 -0.0660  1.4475 -0.4687
   20MOL   H10820666   4.717   5.549   1.845  0.2518 -0.1630 -0.1053
   20MOL   H10920667   4.881   5.509   1.661 -0.4345  1.6137  0.1716
   20MOL   C11020668   4.728   6.998   2.102 -0.2824  0.4935  1.1027
   20MOL   C11120669   4.677   7.125   2.128  0.1240  0.0575  0.2860
   20MOL   C11220670   4.757   7.234   2.166 -0.5351  0.2239 -0.3408
   20MOL   C11320671   4.889   7.204   2.203  0.3819  0.2116 -0.3144
   20MOL   S11420672   5.012   7.333   2.259 -0.1772  0.1710 -0.4155
   20MOL   O11520673   4.979   7.453   2.181  0.3774 -0.0613  0.0200
   20MOL   O11620674   5.152   7.284   2.245 -0.5689 -0.1148 -0.4806
   20MOL   C11720675   4.970   7.364   2.424 -0.2563 -0.2029  0.3526
   20MOL   C11820676   5.051   7.305   2.524 -0.2917  0.6368  0.0836
   20MOL   C11920677   5.019   7.325   2.663  0.7112  0.0280 -0.3126
   20MOL   C12020678   4.903   7.391   2.705  0.0746  0.2751  0.2544
   20MOL   O12120679   4.870   7.408   2.838  0.3000  0.0480 -0.1806
   20MOL   C12220680   4.764   7.328   2.888 -0.7713  0.1320 -0.4303
   20MOL   C12320681   4.778   7.191   2.892 -0.4347  0.6053 -0.5376
   20MOL   C12420682   4.677   7.109   2.943 -0.3941 -0.0435  0.5670
   20MOL   C12520683   4.561   7.167   3.003 -0.5621  0.1798 -1.6979
   20MOL   C12620684   4.447   7.081   3.061  0.3785 -0.1156  1.1582
   20MOL   C12720685   4.319   7.116   2.976 -0.2433  0.1169  0.0044
   20MOL   C12820686   4.464   6.933   3.051 -0.0549 -0.1112 -0.4270
   20MOL   C12920687   4.435   7.130   3.209 -0.4003 -0.2459 -0.0045
   20MOL   C13020688   4.537   7.112   3.295  0.5088 -0.4745 -1.1268
   20MOL   C13120689   4.540   7.150   3.432 -0.4333  0.3966  0.6254
   20MOL   C13220690   4.421   7.203   3.489 -0.5205  0.2349 -0.3197
   20MOL   O13320691   4.417   7.227   3.624 -0.4831 -0.2653  0.1839
   20MOL   C13420692   4.311   7.229   3.403 -0.6276  0.2226 -0.2922
   20MOL   C13520693   4.321   7.184   3.268  1.0938  0.3396  0.0212
   20MOL   C13620694   4.546   7.309   3.000 -0.3780 -0.4574  0.3850
   20MOL   C13720695   4.648   7.391   2.941  0.0138  0.2774  0.5464
   20MOL   C13820696   4.826   7.445   2.599  0.3501 -0.4132  0.0996
   20MOL   C13920697   4.856   7.432   2.459  0.6750  0.5693  0.5783
   20MOL   C14020698   4.942   7.078   2.189  1.1668 -0.4947 -0.3127
   20MOL   C14120699   4.865   6.972   2.131  0.0821  0.1294 -0.3051
   20MOL   H14220700   4.573   7.138   2.100  0.4526  1.3349 -0.3636
   20MOL   H14320701   4.721   7.335   2.155 -0.7533  0.2286  0.4167
   20MOL   H14420702   5.133   7.242   2.491 -1.0994  0.2867 -1.3197
   20MOL   H14520703   5.082   7.289   2.743 -0.0669 -0.6922 -0.0204
   20MOL   H14620704   4.862   7.143   2.844 -0.1757 -0.6793  1.1660
   20MOL   H14720705   4.696   7.003   2.942  2.2370  0.4001 -1.2967
   20MOL   H14820706   4.345   7.081   2.876 -0.0752 -2.4243  0.9194
   20MOL   H14920707   4.301   7.223   2.959 -1.5187 -0.4071 -2.2022
   20MOL   H15020708   4.231   7.060   3.008 -0.0468 -0.6653 -0.7927
   20MOL   H15120709   4.540   6.907   3.125 -1.7571 -2.1861  0.6553
   20MOL   H15220710   4.372   6.883   3.082 -0.0835 -0.8194 -1.6300
   20MOL   H15320711   4.502   6.895   2.956  1.8951  0.3945  0.1172
   20MOL   H15420712   4.628   7.065   3.261  1.5255  1.6494 -1.4210
   20MOL   H15520713   4.626   7.123   3.492 -0.7763 -1.2457  0.4031
   20MOL   H15620714   4.216   7.267   3.437 -0.2982  3.4645 -2.7048
   20MOL   H15720715   4.232   7.197   3.209  0.4367  0.1606  0.9609
   20MOL   H15820716   4.451   7.353   3.025 -0.2798  0.5512 -0.9592
   20MOL   H15920717   4.654   7.499   2.938  0.5270  0.1903 -3.1332
   20MOL   H16020718   4.725   7.476   2.623 -0.0228 -1.3930 -0.1741
   20MOL   H16120719   4.781   7.465   2.389 -0.4581 -1.6807  0.6828
   20MOL   H16220720   5.049   7.070   2.204  2.0906  4.8407 -2.8524
   20MOL   H16320721   4.905   6.877   2.099  2.4803  0.8928  0.2970
   20MOL   C16420722   4.522   7.299   3.674  0.1556  0.0253  0.0684
   20MOL   C16520723   4.633   7.230   3.733  0.2314  0.0330 -1.0631
   20MOL   C16620724   4.729   7.303   3.805  0.1316  0.1450 -0.1092
   20MOL   C16720725   4.718   7.442   3.811  0.3976  0.4219 -0.5787
   20MOL   S16820726   4.821   7.533   3.923  0.2524  0.1134  0.2381
   20MOL   O16920727   4.956   7.476   3.916  0.4893  0.3684 -0.3732
   20MOL   O17020728   4.755   7.539   4.054  0.4591 -0.6361  0.4961
   20MOL   C17120729   4.833   7.706   3.864  0.1015  0.6013 -0.2068
   20MOL   C17220730   4.847   7.736   3.725 -0.6483 -0.0354  0.5920
   20MOL   C17320731   4.848   7.867   3.681  0.4299  0.0032 -0.1738
   20MOL   C17420732   4.834   7.973   3.772 -0.0377  0.3699 -0.3978
   20MOL   O17520733   4.860   8.100   3.728 -0.4544  0.2159 -0.1936
   20MOL   C17620734   4.750   8.178   3.709 -0.1847 -0.0554  0.5424
   20MOL   C17720735   4.749   0.011   3.593 -0.4572  0.1172 -0.2929
   20MOL   C17820736   4.653   0.112   3.577 -0.3777 -0.2905  0.1290
   20MOL   C17920737   4.555   0.129   3.680 -0.2933 -0.3345 -0.4524
   20MOL   C18020738   4.473   0.257   3.683  0.4966 -0.9033  0.1092
   20MOL   C18120739   4.501   0.359   3.568  0.2436 -0.6776 -0.0527
   20MOL   C18220740   4.328   0.220   3.647  0.1725  0.1396  0.0946
   20MOL   C18320741   4.482   0.331   3.825  0.0014 -0.4811 -0.0542
   20MOL   C18420742   4.371   0.384   3.899 -0.5915  0.5828 -0.1974
   20MOL   C18520743   4.379   0.429   4.030  0.2427  0.3104 -1.0811
   20MOL   C18620744   4.507   0.428   4.089  0.2654  0.6489  0.3511
   20MOL   O18720745   4.526   0.471   4.220 -0.1579 -0.4430 -0.2126
   20MOL   C18820746   4.622   0.395   4.013 -0.0513  0.4458  0.6540
   20MOL   C18920747   4.613   0.345   3.886 -0.1323  0.1989  0.6328
   20MOL   C19020748   4.550   0.035   3.792 -0.8845 -0.1191  0.5828
   20MOL   C19120749   4.648   8.189   3.804  0.1355  1.2209  0.3699
   20MOL   C19220750   4.823   7.946   3.909  0.6355 -0.4752 -0.3307
   20MOL   C19320751   4.829   7.813   3.958 -0.0064  0.0879 -1.3865
   20MOL   C19420752   4.612   7.510   3.751 -0.5192 -0.0074 -0.4496
   20MOL   C19520753   4.515   7.442   3.677 -0.8142 -0.6724  0.3670
   20MOL   H19620754   4.633   7.123   3.718  0.2590  0.4036 -3.8619
   20MOL   H19720755   4.812   7.255   3.854 -0.7530  0.4512  1.7184
   20MOL   H19820756   4.845   7.658   3.650 -1.3556  0.0238  0.5399
   20MOL   H19920757   4.859   7.896   3.577  0.6494 -0.7323 -0.3628
   20MOL   H20020758   4.824   8.252   3.516 -0.5255 -0.6981 -0.2405
   20MOL   H20120759   4.660   0.176   3.490  0.3993 -0.8678 -0.2382
   20MOL   H20220760   4.476   0.318   3.470 -0.0390 -2.8408  0.8936
   20MOL   H20320761   4.606   0.388   3.567  0.0256  0.2367  2.2657
   20MOL   H20420762   4.441   0.449   3.579 -1.2411 -1.4484 -1.6157
   20MOL   H20520763   4.262   0.306   3.649  0.1029  0.0780  0.5604
   20MOL   H20620764   4.325   0.176   3.547 -0.6205  0.7571 -0.1584
   20MOL   H20720765   4.279   0.150   3.716  0.5104  0.5708  0.7709
   20MOL   H20820766   4.275   0.382   3.851 -0.9787 -3.3149  0.6160
   20MOL   H20920767   4.293   0.452   4.091  1.9408 -0.8215  1.8667
   20MOL   H21020768   4.714   0.398   4.068 -1.1898  0.6350  2.6145
   20MOL   H21120769   4.695   0.307   3.827  0.3323  0.3622  1.1772
   20MOL   H21220770   4.468   0.049   3.861  0.1723  3.0789  1.3089
   20MOL   H21320771   4.644   8.127   3.892  1.5619  1.6486  0.7503
   20MOL   H21420772   4.834   8.030   3.977  1.1115  0.6643 -1.7839
   20MOL   H21520773   4.826   7.788   4.063  0.5250 -0.0097 -1.3940
   20MOL   H21620774   4.610   7.618   3.761  0.0672  0.1756 -2.1568
   20MOL   H21720775   4.432   7.503   3.647 -0.7796  0.3513  2.2828
   20MOL   C21820776   4.518   0.365   4.313 -0.2967  0.4693 -0.0292
   20MOL   C21920777   4.393   0.308   4.336 -0.0866 -0.3959 -0.6359
   20MOL   C22020778   4.379   0.195   4.419  0.0301 -0.6435  0.0371
   20MOL   C22120779   4.494   0.133   4.474  0.4607 -0.3072 -0.2528
   20MOL   S22220780   4.471   8.221   4.539  0.0335 -0.0969  0.0480
   20MOL   O22320781   4.328   8.203   4.558  0.3906 -0.0085 -0.1309
   20MOL   O22420782   4.564   8.196   4.653 -0.3995  0.5825  0.0779
   20MOL   C22520783   4.513   8.111   4.405 -0.3981 -0.2602 -0.1027
   20MOL   C22620784   4.469   8.146   4.273 -0.2061 -0.1516 -0.7260
   20MOL   C22720785   4.495   8.063   4.161  0.4667 -0.2989  0.1499
   20MOL   C22820786   4.548   7.936   4.189  0.0451  0.1258  0.4528
   20MOL   O22920787   4.582   7.847   4.089 -0.3057  0.0307 -0.5265
   20MOL   C23020788   4.480   7.783   4.025 -0.6639 -0.5054 -0.3179
   20MOL   C23120789   4.441   7.656   4.057 -0.4923 -0.4818  1.3132
   20MOL   C23220790   4.328   7.603   3.996  0.1977 -0.5076 -0.8879
   20MOL   C23320791   4.258   7.672   3.893 -0.2667  0.2982  0.0005
   20MOL   C23420792   4.130   7.606   3.835  0.2248 -0.3112  0.8388
   20MOL   C23520793   4.178   7.517   3.715 -0.5564  0.0179 -0.1010
   20MOL   C23620794   4.060   7.507   3.928 -0.0716  0.2958 -0.0189
   20MOL   C23720795   4.017   7.709   3.796 -0.0836 -0.4771  0.1411
   20MOL   C23820796   3.963   7.800   3.887  0.3103  0.5761 -0.1454
   20MOL   C23920797   3.863   7.895   3.841 -0.1879 -0.1218  0.1668
   20MOL   C24020798   3.836   7.909   3.703 -0.0922  0.1734  0.2768
   20MOL   O24120799   3.763   8.017   3.657 -0.3480  0.3145  0.0807
   20MOL   C24220800   3.889   7.811   3.612  0.2947 -1.3274 -0.2697
   20MOL   C24320801   3.967   7.706   3.664  0.2072 -0.2324  0.2955
   20MOL   C24420802   4.307   7.795   3.858  0.4189 -0.6586 -0.1545
   20MOL   C24520803   4.414   7.852   3.923  1.2147 -0.0750 -0.4116
   20MOL   C24620804   4.601   7.904   4.319 -0.7156 -0.8190 -0.3276
   20MOL   C24720805   4.595   7.995   4.426  0.4957 -0.0020 -0.1938
   20MOL   C24820806   4.621   0.197   4.463  0.3384  0.1539  0.3296
   20MOL   C24920807   4.630   0.313   4.377  0.0998  0.9530 -0.2107
   20MOL   H25020808   4.298   0.339   4.296  0.6931  1.1881 -1.2945
   20MOL   H25120809   4.285   0.143   4.424  1.1520 -2.9281 -1.5664
   20MOL   H25220810   4.419   8.241   4.258  0.0548 -0.0346 -0.8699
   20MOL   H25320811   4.445   8.093   4.070 -3.7961  0.8250  2.7134
   20MOL   H25420812   4.505   7.593   4.117  2.1595  1.8108  1.0054
   20MOL   H25520813   4.319   7.496   4.002  1.4628 -0.5194  1.4053
   20MOL   H25620814   4.217   7.580   3.635 -1.2956  1.0052  0.2975
   20MOL   H25720815   4.109   7.448   3.666 -1.7427 -0.5411  2.2947
   20MOL   H25820816   4.262   7.464   3.758  0.3855  2.5383  1.2897
   20MOL   H25920817   3.967   7.463   3.892  1.1880 -0.9517 -1.8278
   20MOL   H26020818   4.118   7.416   3.945 -0.1231  0.1924 -0.3895
   20MOL   H26120819   4.039   7.556   4.023 -1.1405 -0.4120  0.1290
   20MOL   H26220820   4.001   7.802   3.988 -0.4716 -2.5548  0.2872
   20MOL   H26320821   3.833   7.962   3.920 -0.6279  1.1193 -1.0340
   20MOL   H26420822   3.862   7.820   3.508 -0.5250  0.4503  0.0674
   20MOL   H26520823   4.010   7.641   3.589  1.1315  0.7847 -0.0756
   20MOL   H26620824   4.262   7.853   3.779  1.6737 -0.9612 -1.1022
   20MOL   H26720825   4.444   7.951   3.893 -0.3498  0.2080 -1.0675
   20MOL   H26820826   4.659   7.814   4.332  0.3786 -0.4242 -2.2847
   20MOL   H26920827   4.643   7.960   4.516  1.3124 -2.6986 -1.6222
   20MOL   H27020828   4.711   0.149   4.497 -0.9211 -1.7505  1.0639
   20MOL   H27120829   4.725   0.359   4.354  0.5984 -0.3491 -0.8280
   20MOL   C27220830   3.813   8.090   3.561 -0.4656 -0.4598  0.3386
   20MOL   C27320831   3.937   8.160   3.575 -0.4868 -0.8963 -0.3420
   20MOL   C27420832   3.984   8.244   3.473 -0.0231 -0.1031 -0.2285
   20MOL   C27520833   3.908   0.003   3.357 -0.1429 -0.1479  0.0548
   20MOL   S27620834   3.951   0.108   3.212 -0.1080 -0.3019 -0.0972
   20MOL   O27720835   3.838   0.203   3.185 -0.4296 -0.3195  0.2635
   20MOL   O27820836   3.988   0.011   3.110 -0.3455  0.4533  1.0034
   20MOL   C27920837   4.092   0.211   3.250  0.5663  0.5071 -0.7411
   20MOL   C28020838   4.092   0.298   3.357 -0.1632 -0.1890 -1.4396
   20MOL   C28120839   4.200   0.394   3.366  0.4616 -0.3549  0.0818
   20MOL   C28220840   4.304   0.398   3.273 -1.0220  0.5615  0.0168
   20MOL   O28320841   4.402   0.488   3.285 -0.0870  0.6763  0.5079
   20MOL   C28420842   4.404   0.591   3.189 -0.5877  0.3827 -1.1344
   20MOL   C28520843   4.496   0.591   3.078 -0.7976 -0.0277 -0.0327
   20MOL   C28620844   4.497   0.698   2.991  0.2609 -0.6634  1.0764
   20MOL   C28720845   4.409   0.805   2.998  0.1723 -0.3483  0.0760
   20MOL   C28820846   4.416   0.927   2.913  0.0966 -0.1533  0.3377
   20MOL   C28920847   4.550   0.941   2.834 -0.3596  0.4453 -0.2282
   20MOL   C29020848   4.300   0.946   2.811  1.0114  0.0732  0.2682
   20MOL   C29120849   4.423   1.044   3.022  0.6694  0.2935  0.0449
   20MOL   C29220850   4.511   1.038   3.135 -0.2148  0.5069  0.0502
   20MOL   C29320851   4.522   1.152   3.220  0.3091 -0.4056 -0.3200
   20MOL   C29420852   4.436   1.262   3.200  0.4728  0.2889  0.5659
   20MOL   O29520853   4.442   1.377   3.277  0.0362  0.1883 -0.0557
   20MOL   C29620854   4.343   1.264   3.088  0.1067  0.5790  0.2206
   20MOL   C29720855   4.344   1.157   3.000 -0.3555 -0.4308  0.2585
   20MOL   C29820856   4.302   0.790   3.089 -0.8680 -0.2540  0.1509
   20MOL   C29920857   4.298   0.684   3.182  0.2201  0.4898 -0.3000
   20MOL   C30020858   4.301   0.316   3.163  0.2607 -0.1964  0.5171
   20MOL   C30120859   4.194   0.222   3.148 -0.3848 -0.1883  0.2368
   20MOL   C30220860   3.791   8.177   3.334  0.0525  0.7670  0.2435
   20MOL   C30320861   3.737   8.101   3.439 -0.0145 -0.2905 -0.4648
   20MOL   H30420862   4.001   8.154   3.662 -0.2160 -1.5164 -0.5844
   20MOL   H30520863   4.075   0.048   3.483  0.7020 -1.5473  1.8196
   20MOL   H30620864   4.010   0.316   3.425  0.0456 -0.0538 -1.2216
   20MOL   H30720865   4.207   0.470   3.442  0.6506 -0.4388  0.1513
   20MOL   H30820866   4.568   0.511   3.063  1.9190  2.1894  0.7959
   20MOL   H30920867   4.581   0.700   2.923 -1.5653  2.3564 -1.2288
   20MOL   H31020868   4.631   0.931   2.906 -2.2740 -3.0506  1.5704
   20MOL   H31120869   4.555   1.035   2.778 -1.4986  0.6007 -0.0744
   20MOL   H31220870   4.557   0.863   2.759  0.5597  0.1087  0.2010
   20MOL   H31320871   4.301   1.044   2.764 -1.8090  1.1054  2.1577
   20MOL   H31420872   4.301   0.863   2.741 -1.0454 -1.0165  1.4569
   20MOL   H31520873   4.204   0.933   2.861  0.7261 -0.4699 -0.4114
   20MOL   H31620874   4.586   0.961   3.144 -0.0094  0.6477 -0.4350
   20MOL   H31720875   4.588   1.149   3.306 -0.4241  1.7158  0.3561
   20MOL   H31820876   4.272   1.344   3.072 -0.1569  0.3347  0.1816
   20MOL   H31920877   4.274   1.178   2.920 -1.7634 -0.4778  1.4508
   20MOL   H32020878   4.225   0.866   3.084 -0.3350  0.1804 -1.8637
   20MOL   H32120879   4.228   0.684   3.264  0.6415  2.8995  0.1188
   20MOL   H32220880   4.378   0.317   3.088  0.7256 -1.1680  0.9582
   20MOL   H32320881   4.195   0.167   3.055 -0.7623  2.0402 -1.1337
   20MOL   H32420882   3.742   8.190   3.239 -0.1470  0.7971  0.3491
   20MOL   H32520883   3.641   8.050   3.439  0.5888 -1.4594  0.3743
   20MOL   C32620884   4.334   1.402   3.356 -0.5236  0.1692 -0.0153
   20MOL   C32720885   4.292   1.534   3.374  0.0072  0.2264  0.1040
   20MOL   C32820886   4.184   1.565   3.459  0.1692  0.3152 -0.2541
   20MOL   C32920887   4.111   1.459   3.524 -0.5077  0.4038  0.3026
   20MOL   S33020888   3.962   1.517   3.616  0.5882  0.3692 -0.6240
   20MOL   O33120889   3.856   1.539   3.522  0.1459 -0.1941 -0.1010
   20MOL   O33220890   4.004   1.624   3.704 -0.4348 -0.1261 -0.5590
   20MOL   C33320891   3.917   1.369   3.712 -0.4771  0.3389  0.4562
   20MOL   C33420892   3.931   1.374   3.850 -0.7866 -0.1526 -0.2152
   20MOL   C33520893   3.901   1.264   3.929  0.1301  0.0476  0.0939
   20MOL   C33620894   3.863   1.142   3.868 -0.4433  0.0576 -0.5874
   20MOL   O33720895   3.854   1.024   3.937 -0.0839  0.3912  0.5577
   20MOL   C33820896   3.731   0.957   3.955  0.1400  0.0390 -0.5352
   20MOL   C33920897   3.614   1.022   3.986 -0.2131 -0.2604  0.1207
   20MOL   C34020898   3.490   0.951   3.996  0.9436 -0.2057 -0.6332
   20MOL   C34120899   3.492   0.808   3.991 -0.1163 -0.1457  0.3772
   20MOL   C34220900   3.365   0.727   4.011  0.0337  0.4154  0.6036
   20MOL   C34320901   3.293   0.760   4.145  0.9391 -0.1661  0.1816
   20MOL   C34420902   3.271   0.776   3.908  0.3055  0.2428 -0.3843
   20MOL   C34520903   3.369   0.576   3.993  0.4897 -1.0757  0.2402
   20MOL   C34620904   3.402   0.520   3.869 -0.7918 -0.1019  0.0779
   20MOL   C34720905   3.384   0.382   3.852  0.5265 -1.0892  0.0397
   20MOL   C34820906   3.336   0.295   3.956 -0.2839  0.0806 -0.7827
   20MOL   O34920907   3.326   0.157   3.940 -0.2426 -0.1367  0.6514
   20MOL   C35020908   3.310   0.352   4.080 -0.0156  0.0046  0.4108
   20MOL   C35120909   3.337   0.487   4.101 -1.2398  0.0044  0.1329
   20MOL   C35220910   3.616   0.743   3.979 -0.2744 -0.3218 -0.0457
   20MOL   C35320911   3.732   0.820   3.952  0.3310 -0.0024  0.2259
   20MOL   C35420912   3.834   1.143   3.733  0.4171  0.3277  1.1776
   20MOL   C35520913   3.861   1.252   3.653 -0.4903 -0.1409 -0.6106
   20MOL   C35620914   4.160   1.328   3.510 -0.5683 -0.8916 -0.4642
   20MOL   C35720915   4.272   1.300   3.431 -0.5222 -0.7137  0.4375
   20MOL   H35820916   4.352   1.610   3.327 -0.6222 -0.2801 -1.5554
   20MOL   H35920917   4.149   1.667   3.467 -2.8188 -0.5134 -2.0179
   20MOL   H36020918   3.971   1.468   3.886  1.6358 -1.6336  1.0656
   20MOL   H36120919   3.922   1.256   4.035  0.3772 -0.4761  0.0063
   20MOL   H36220920   3.624   1.129   3.994 -1.1986 -0.1988  0.5806
   20MOL   H36320921   3.396   0.995   4.024 -0.3260 -2.5902 -1.0528
   20MOL   H36420922   3.364   0.734   4.223 -0.1264 -0.5266  1.0519
   20MOL   H36520923   3.197   0.708   4.150 -0.4272  2.0839 -1.9529
   20MOL   H36620924   3.280   0.867   4.161  1.1569 -0.0391 -0.4810
   20MOL   H36720925   3.246   0.879   3.934 -1.0845 -0.6666  2.0101
   20MOL   H36820926   3.310   0.764   3.807 -1.8046  0.0948 -1.2213
   20MOL   H36920927   3.175   0.723   3.912  0.9636 -0.9091  0.3514
   20MOL   H37020928   3.433   0.583   3.787  0.0974  0.2724  0.6952
   20MOL   H37120929   3.392   0.340   3.753 -0.4039 -0.2473 -0.4008
   20MOL   H37220930   3.276   0.291   4.163  1.4074 -0.8487  0.3763
   20MOL   H37320931   3.317   0.516   4.203 -1.7416 -2.5650  0.8287
   20MOL   H37420932   3.611   0.635   3.986  0.3532 -0.3652 -0.2218
   20MOL   H37520933   3.825   0.768   3.936  1.2152  1.0857  1.6792
   20MOL   H37620934   3.788   1.051   3.700  1.4835 -0.1386  0.9422
   20MOL   H37720935   3.849   1.260   3.546  1.4817  1.1239 -0.7705
   20MOL   H37820936   4.124   1.238   3.559  0.1942 -1.7520 -1.4414
   20MOL   H37920937   4.308   1.198   3.427  1.8319  0.1142 -0.3690
   20MOL   C38020938   3.201   0.102   3.968 -0.6947 -0.4916  0.0236
   20MOL   C38120939   3.175   0.043   4.087  1.2670  0.4727  0.2945
   20MOL   C38220940   3.044   8.252   4.114 -0.2514 -0.6928 -0.0839
   20MOL   C38320941   2.945   0.015   4.021 -0.7937  0.5252  0.8459
   20MOL   S38420942   2.781   8.205   4.067  0.0781 -0.4415  0.1173
   20MOL   O38520943   2.682   0.022   3.984  0.1624  0.3761  0.1404
   20MOL   O38620944   2.767   8.206   4.210 -0.2101  0.0640 -0.3533
   20MOL   C38720945   2.792   8.033   4.022 -0.0729 -0.9835 -0.1906
   20MOL   C38820946   2.857   7.941   4.113 -1.1646 -0.4984 -0.1070
   20MOL   C38920947   2.862   7.812   4.066  0.1304  0.2330  0.0479
   20MOL   C39020948   2.818   7.769   3.944  0.6955 -0.5869 -0.1207
   20MOL   O39120949   2.840   7.650   3.889 -0.3141  0.7882 -0.1992
   20MOL   C39220950   2.736   7.563   3.882  0.0956  0.2671  0.6484
   20MOL   C39320951   2.652   7.531   3.992 -0.0308 -0.4047 -0.1152
   20MOL   C39420952   2.561   7.427   3.982  0.1817 -0.1978 -0.8282
   20MOL   C39520953   2.534   7.365   3.860 -0.0898  0.2898 -0.1603
   20MOL   C39620954   2.429   7.244   3.850 -0.3873  0.1752  0.6227
   20MOL   C39720955   2.505   7.111   3.833 -0.4821 -0.0669  0.1928
   20MOL   C39820956   2.320   7.235   3.963  0.8082 -0.2584  0.1724
   20MOL   C39920957   2.334   7.257   3.728 -0.4779 -0.2951 -0.2161
   20MOL   C40020958   2.272   7.147   3.665 -0.0645  0.1426  1.0649
   20MOL   C40120959   2.175   7.166   3.564  0.1523  0.3592  0.6938
   20MOL   C40220960   2.136   7.292   3.516  0.1687  0.2528 -0.0563
   20MOL   O40320961   2.043   7.298   3.413 -0.0737 -0.2630 -0.4576
   20MOL   C40420962   2.204   7.401   3.575 -0.2489  0.5754  0.8636
   20MOL   C40520963   2.308   7.386   3.672  0.1610  0.0161 -0.1445
   20MOL   C40620964   2.609   7.407   3.745  0.5030  0.3727  0.4490
   20MOL   C40720965   2.716   7.501   3.757 -0.0353  0.1109 -0.2194
   20MOL   C40820966   2.752   7.863   3.865  0.4880  0.5525 -0.7289
   20MOL   C40920967   2.745   7.993   3.905  0.2201 -0.1548 -0.9193
   20MOL   C41020968   2.975   0.072   3.901  0.2982  0.0020  0.7461
   20MOL   C41120969   3.103   0.119   3.868 -0.0707 -0.2783  0.2550
   20MOL   H41220970   3.245   0.037   4.169 -0.4917 -1.4093  1.7186
   20MOL   H41320971   3.026   8.199   4.207 -1.3189 -0.9329 -0.4142
   20MOL   H41420972   2.889   7.966   4.214  0.6016  0.8314 -0.9751
   20MOL   H41520973   2.918   7.740   4.124  1.5852  0.0236 -1.5727
   20MOL   H41620974   2.687   7.570   4.086  1.0977 -0.4583 -0.5004
   20MOL   H41720975   2.498   7.402   4.066  2.4002  0.3606  1.0230
   20MOL   H41820976   2.584   7.105   3.908  0.4483  0.7387 -0.7087
   20MOL   H41920977   2.561   7.116   3.739 -1.8158  1.2906 -0.5420
   20MOL   H42020978   2.444   7.021   3.839 -0.5998  0.1761  3.1989
   20MOL   H42120979   2.263   7.327   3.955  0.7342 -0.0350  2.6497
   20MOL   H42220980   2.256   7.146   3.958 -2.1749  1.7377  1.4440
   20MOL   H42320981   2.357   7.237   4.066 -0.2155  0.8597  0.5278
   20MOL   H42420982   2.286   7.041   3.682 -0.1015 -0.1219 -0.4075
   20MOL   H42520983   2.131   7.083   3.511  1.8871 -0.5629  0.6522
   20MOL   H42620984   2.186   7.500   3.535 -0.3994 -0.4347 -1.6660
   20MOL   H42720985   2.363   7.475   3.700 -2.1781  1.4274  0.0510
   20MOL   H42820986   2.577   7.358   3.654 -1.1220  1.1999  0.5529
   20MOL   H42920987   2.774   7.515   3.667  0.0788 -2.8926 -0.6573
   20MOL   H43020988   2.721   7.824   3.769 -0.3925 -0.4785 -0.0381
   20MOL   H43120989   2.697   8.066   3.841  0.7074 -1.1812 -2.4851
   20MOL   H43220990   2.902   0.085   3.822  0.5064 -0.5891  0.4558
   20MOL   H43320991   3.104   0.180   3.780 -0.6612  1.3841  1.3762
   20MOL   C43420992   1.992   7.424   3.370 -0.4231  0.0062  0.6079
   20MOL   C43520993   2.036   7.480   3.247  0.2877  0.0002  0.1159
   20MOL   C43620994   2.009   7.609   3.211 -0.5063 -0.1228  0.6982
   20MOL   C43720995   1.935   7.687   3.293  0.1755  0.2564  0.1122
   20MOL   S43820996   1.895   7.856   3.258  0.0854 -0.1922 -0.4264
   20MOL   O43920997   1.990   7.941   3.328 -0.0805  0.0737  0.5542
   20MOL   O44020998   1.749   7.871   3.288  0.2674  0.2730  0.1342
   20MOL   C44120999   1.915   7.885   3.082  0.9846  0.0062 -0.0912
   20MOL   C44221000   2.046   7.876   3.030 -0.0379  0.2631  1.9883
   20MOL   C44321001   2.066   7.878   2.886  0.9676  0.5329  0.3985
   20MOL   C44421002   1.954   7.898   2.801 -0.2089  0.2321 -0.4488
   20MOL   O44521003   1.977   7.913   2.668 -0.2133  0.1650 -0.2238
   20MOL   C44621004   1.978   7.801   2.595 -0.2127  0.2158  0.1465
   20MOL   C44721005   1.862   7.724   2.578 -0.9701 -0.0665  0.6107
   20MOL   C44821006   1.861   7.620   2.486  0.8911  0.2350  0.2649
   20MOL   C44921007   1.978   7.593   2.408  0.2261  0.2283  0.1229
   20MOL   C45021008   1.968   7.475   2.303 -0.2410 -0.0328  0.5812
   20MOL   C45121009   1.846   7.490   2.207  0.1174  0.5034 -0.2127
   20MOL   C45221010   2.089   7.483   2.213 -0.1520  0.6108 -0.1035
   20MOL   C45321011   1.975   7.337   2.366  0.7555 -0.4233 -0.5225
   20MOL   C45421012   2.055   7.322   2.480 -0.4700 -0.3364 -0.3916
   20MOL   C45521013   2.077   7.193   2.538  0.5205  0.8498  0.0975
   20MOL   C45621014   2.019   7.081   2.477  0.0862 -0.1545 -0.2691
   20MOL   O45721015   2.027   6.959   2.530  0.8160  0.1380 -0.4002
   20MOL   C45821016   1.942   7.098   2.361 -0.3560 -0.3433  0.3510
   20MOL   C45921017   1.916   7.226   2.301  0.4912  0.1557  0.3530
   20MOL   C46021018   2.094   7.674   2.424 -0.1480  0.3679 -0.4470
   20MOL   C46121019   2.094   7.777   2.517 -0.6219 -0.0114 -0.0123
   20MOL   C46221020   1.823   7.911   2.863  0.1903 -0.9220 -0.0816
   20MOL   C46321021   1.802   7.901   2.997 -0.2600  0.6512  1.1331
   20MOL   C46421022   1.886   7.634   3.417  0.4344  0.0902  0.0867
   20MOL   C46521023   1.914   7.503   3.458  0.3930 -0.5541  0.3520
   20MOL   H46621024   2.104   7.424   3.184  0.3233 -0.8550  0.9049
   20MOL   H46721025   2.049   7.653   3.120 -0.2143  1.1697  1.4366
   20MOL   H46821026   2.139   7.878   3.086  1.7403  0.7510 -0.9187
   20MOL   H46921027   2.163   7.870   2.840  0.7842 -0.0668  0.1061
   20MOL   H47021028   1.764   7.751   2.617 -0.5522 -0.6387  2.0710
   20MOL   H47121029   1.765   7.574   2.468  2.0221 -1.6013 -1.2333
   20MOL   H47221030   1.844   7.418   2.126 -2.5817  1.0166 -0.6722
   20MOL   H47321031   1.838   7.589   2.161  1.4402  1.3828  1.3931
   20MOL   H47421032   1.757   7.479   2.270  1.0815 -1.7127  0.8174
   20MOL   H47521033   2.072   7.568   2.147  2.8460  1.1304 -0.2879
   20MOL   H47621034   2.187   7.481   2.262 -0.1238 -0.4469 -0.2035
   20MOL   H47721035   2.086   7.394   2.151 -0.4597 -1.7994  3.2122
   20MOL   H47821036   2.099   7.410   2.524 -0.3424 -0.4429 -0.3064
   20MOL   H47921037   2.146   7.176   2.620 -1.9319 -1.4227  1.8140
   20MOL   H48021038   1.897   7.010   2.319  2.4385 -2.0780  0.8377
   20MOL   H48121039   1.858   7.235   2.211  0.2151  0.6955  0.5836
   20MOL   H48221040   2.187   7.656   2.372 -0.9933 -0.8187 -1.6009
   20MOL   H48321041   2.173   7.850   2.517 -2.9997  2.6508  0.0472
   20MOL   H48421042   1.737   7.930   2.801 -0.1041 -2.1595 -0.0739
   20MOL   H48521043   1.702   7.914   3.037 -0.8598 -1.8662  0.6035
   20MOL   H48621044   1.822   7.690   3.484  0.4371 -1.2365  1.2318
   20MOL   H48721045   1.872   7.470   3.551  1.0684 -1.7648  0.2335
   20MOL   C48821046   2.138   6.887   2.507 -0.3468  0.9100 -0.4947
   20MOL   C48921047   2.266   6.921   2.549 -0.2597 -0.0946  0.1599
   20MOL   C49021048   2.385   6.848   2.515  0.8526 -0.2478  0.2842
   20MOL   C49121049   2.371   6.740   2.425  0.4712  0.1042 -0.2483
   20MOL   S49221050   2.512   6.643   2.371  0.0238 -0.1914  0.6898
   20MOL   O49321051   2.592   6.725   2.274  0.4005  0.7204  0.1508
   20MOL   O49421052   2.464   6.513   2.328  0.2092  0.4700  0.2474
   20MOL   C49521053   2.624   6.591   2.506 -0.6660 -0.1094  0.4170
   20MOL   C49621054   2.763   6.580   2.482  0.7036 -0.5466 -0.5918
   20MOL   C49721055   2.845   6.544   2.588 -0.1709 -0.6753 -1.1481
   20MOL   C49821056   2.798   6.508   2.715 -0.0232 -0.6039 -0.3466
   20MOL   O49921057   2.885   6.465   2.807  0.5677  1.0237  0.0257
   20MOL   C50021058   2.910   6.558   2.906 -0.4749  0.4236 -0.1718
   20MOL   C50121059   2.974   6.684   2.864 -0.1584 -0.0971 -0.2358
   20MOL   C50221060   2.991   6.785   2.959 -0.0809 -0.3880 -0.5078
   20MOL   C50321061   2.965   6.757   3.098  0.2335  0.5135  0.2863
   20MOL   C50421062   2.977   6.873   3.199 -0.0338  0.5241  0.3175
   20MOL   C50521063   2.862   6.980   3.162  0.1959  0.6535  0.2083
   20MOL   C50621064   2.964   6.833   3.349 -0.0119  1.3283 -0.9218
   20MOL   C50721065   3.113   6.931   3.180  0.0727  0.2478 -0.1120
   20MOL   C50821066   3.139   7.069   3.151  0.6545  0.3751 -0.2323
   20MOL   C50921067   3.266   7.112   3.119  0.0151 -0.2150 -0.6674
   20MOL   C51021068   3.379   7.029   3.130 -0.1008  0.6645 -0.6588
   20MOL   O51121069   3.502   7.073   3.095  0.3879  0.1196  0.0022
   20MOL   C51221070   3.359   6.894   3.178 -0.5086  0.5576 -0.1707
   20MOL   C51321071   3.228   6.847   3.195  0.0338  0.6706  0.1886
   20MOL   C51421072   2.920   6.628   3.141 -0.0428  0.7378  0.5224
   20MOL   C51521073   2.894   6.533   3.045  0.5239  0.4663 -0.6060
   20MOL   C51621074   2.657   6.508   2.736  0.4083 -0.3409  0.3723
   20MOL   C51721075   2.570   6.557   2.633 -0.7147 -0.1664 -0.0973
   20MOL   C51821076   2.242   6.698   2.381  0.3409  0.0802 -0.2156
   20MOL   C51921077   2.128   6.774   2.421 -0.4809  0.0169 -0.3284
   20MOL   H52021078   2.273   7.010   2.609  0.5223  0.8497 -1.2998
   20MOL   H52121079   2.484   6.872   2.549  0.1879  2.5788  0.3468
   20MOL   H52221080   2.807   6.597   2.385  1.4686  1.3925  0.0533
   20MOL   H52321081   2.952   6.539   2.575  0.2086  0.9555  0.9649
   20MOL   H52421082   2.990   6.702   2.759  0.4222 -0.8014 -0.2757
   20MOL   H52521083   3.035   6.879   2.930  1.3717 -1.0082 -0.3611
   20MOL   H52621084   2.863   7.024   3.062  1.4196 -0.3748 -0.2413
   20MOL   H52721085   2.839   7.051   3.241  1.3353 -0.4291  1.5338
   20MOL   H52821086   2.769   6.923   3.165  0.0010  0.8006 -2.1747
   20MOL   H52921087   3.048   6.773   3.385 -0.1121  0.3961 -2.2123
   20MOL   H53021088   2.965   6.921   3.413  0.4677  0.5782  0.1268
   20MOL   H53121089   2.870   6.781   3.365  0.5631  0.5777  0.1185
   20MOL   H53221090   3.052   7.132   3.133 -0.3452 -1.4760 -2.1444
   20MOL   H53321091   3.281   7.213   3.085  0.5493 -0.3566 -0.8489
   20MOL   H53421092   3.436   6.826   3.211 -1.0917  0.0697  0.2025
   20MOL   H53521093   3.215   6.744   3.227 -0.5929  0.8764  0.6030
   20MOL   H53621094   2.880   6.615   3.241  0.4568 -0.2441  0.6029
   20MOL   H53721095   2.834   6.451   3.081 -0.3173  0.7812 -1.2715
   20MOL   H53821096   2.622   6.465   2.828 -1.9276 -0.0780 -0.3577
   20MOL   H53921097   2.462   6.552   2.639 -0.7082 -1.7839 -1.0703
   20MOL   H54021098   2.225   6.614   2.315  0.6175 -0.6539  0.6507
   20MOL   H54121099   2.033   6.743   2.381 -0.2895 -0.2229 -0.5945
   20MOL   C54221100   3.568   7.158   3.176  0.0941  0.1826 -0.2387
   20MOL   C54321101   3.616   7.279   3.126  0.5965  0.1107 -0.1666
   20MOL   C54421102   3.691   7.363   3.207 -1.0384 -0.4151 -0.5803
   20MOL   C54521103   3.727   7.321   3.337 -0.1669 -0.2912  0.1887
   20MOL   S54621104   3.827   7.422   3.450 -0.0518  0.6414 -0.0386
   20MOL   O54721105   3.762   7.557   3.432  0.0796 -0.2338  0.4780
   20MOL   O54821106   3.969   7.398   3.421 -0.3053  0.2297  0.5443
   20MOL   C54921107   3.798   7.358   3.619  0.0805 -0.7003  0.7017
   20MOL   C55021108   3.694   7.416   3.688  0.1442  0.6376 -0.2729
   20MOL   C55121109   3.669   7.369   3.821 -0.2298 -0.0980 -0.3796
   20MOL   C55221110   3.755   7.266   3.876 -0.0456 -0.6871 -0.0266
   20MOL   O55321111   3.718   7.204   3.990 -0.4689 -0.3307  0.5341
   20MOL   C55421112   3.695   7.285   4.097 -0.2317  0.4271  0.4590
   20MOL   C55521113   3.580   7.263   4.175 -0.5152 -0.0012  0.4087
   20MOL   C55621114   3.556   7.344   4.282 -1.2703  0.3573 -0.5400
   20MOL   C55721115   3.651   7.447   4.323  0.4091  0.6320 -0.6669
   20MOL   C55821116   3.615   7.553   4.426  0.2636 -0.0314  0.1955
   20MOL   C55921117   3.575   7.684   4.346 -0.0114 -0.4204  0.5313
   20MOL   C56021118   3.489   7.514   4.498  0.4352 -0.6839 -0.9552
   20MOL   C56121119   3.728   7.587   4.522 -0.6083 -0.2821 -0.2252
   20MOL   C56221120   3.787   7.476   4.584  0.0842 -0.1505 -0.4326
   20MOL   C56321121   3.896   7.483   4.673  0.2843  0.2204  0.9916
   20MOL   C56421122   3.941   7.612   4.708 -0.6194  0.6498  0.0570
   20MOL   O56521123   4.050   7.635   4.784 -0.4170 -0.2412 -0.1694
   20MOL   C56621124   3.878   7.721   4.647  1.4018 -0.7768  0.8152
   20MOL   C56721125   3.772   7.719   4.554  0.9737 -0.1452 -0.3114
   20MOL   C56821126   3.773   7.457   4.252  1.0243 -0.3659 -0.3969
   20MOL   C56921127   3.796   7.373   4.139  0.4708 -0.0305 -0.3452
   20MOL   C57021128   3.863   7.214   3.801  0.3861  0.0393  0.4383
   20MOL   C57121129   3.882   7.256   3.668  0.7406  0.0351  0.1084
   20MOL   C57221130   3.662   7.203   3.392 -0.4915 -0.1276 -0.3562
   20MOL   C57321131   3.580   7.125   3.313 -0.0981 -0.7644 -0.6931
   20MOL   H57421132   3.595   7.308   3.024 -1.5178  0.0985  0.2539
   20MOL   H57521133   3.733   7.455   3.168  2.3944 -1.1974  1.1024
   20MOL   H57621134   3.627   7.488   3.642 -2.0421 -0.2076  1.4928
   20MOL   H57721135   3.588   7.410   3.879 -1.1955 -2.7522  0.2469
   20MOL   H57821136   3.517   7.177   4.156 -1.3900  0.2705  1.9692
   20MOL   H57921137   3.459   7.328   4.327 -1.4108  0.7864 -0.6913
   20MOL   H58021138   3.533   7.764   4.407  1.5233 -0.2922  1.4215
   20MOL   H58121139   3.501   7.675   4.266  0.7034  1.0182 -0.3249
   20MOL   H58221140   3.660   7.730   4.296  0.8279  0.0458  2.3553
   20MOL   H58321141   3.467   7.600   4.561 -1.3219  0.3463 -2.9275
   20MOL   H58421142   3.402   7.509   4.433 -0.7628  2.6389  0.2413
   20MOL   H58521143   3.490   7.421   4.555 -1.2121  0.5261  1.1412
   20MOL   H58621144   3.747   7.378   4.563 -1.7804  0.9284 -2.1368
   20MOL   H58721145   3.941   7.390   4.706 -0.9300  0.0109  2.0994
   20MOL   H58821146   3.921   7.817   4.673 -0.7022  1.4247 -3.2772
   20MOL   H58921147   3.727   7.811   4.521  0.0866 -0.4168  0.1145
   20MOL   H59021148   3.851   7.522   4.288 -0.3686 -0.7099  3.4556
   20MOL   H59121149   3.889   7.376   4.083  1.5715 -0.6263  1.4235
   20MOL   H59221150   3.925   7.133   3.836 -0.5857 -0.8900  0.0387
   20MOL   H59321151   3.967   7.215   3.615  0.9918 -0.5622  0.9669
   20MOL   H59421152   3.672   7.178   3.497 -1.4261 -0.9207 -0.4429
   20MOL   H59521153   3.536   7.035   3.353 -1.3272  0.0112 -0.2799
   20MOL   C59621154   4.072   7.567   4.905 -0.0522 -0.0811 -0.0375
   20MOL   C59721155   4.204   7.542   4.945  0.7334  0.1787 -0.1458
   20MOL   C59821156   4.233   7.493   5.077  0.3981 -0.4648  0.6088
   20MOL   C59921157   4.129   7.463   5.164  0.3206  0.0496 -0.0124
   20MOL   S60021158   4.169   7.405   5.328  0.2151  0.4280 -0.0985
   20MOL   O60121159   4.313   7.372   5.324 -0.3589 -0.4296  0.1450
   20MOL   O60221160   4.069   7.301   5.365  0.1872  0.2202  0.2279
   20MOL   C60321161   4.144   7.545   5.442  0.0623 -0.0830  0.2182
   20MOL   C60421162   4.020   7.566   5.498  0.4281 -0.1213  0.5023
   20MOL   C60521163   4.003   7.678   5.580 -0.8194  0.4838  0.1310
   20MOL   C60621164   4.111   7.760   5.614  0.0532 -0.2000 -0.0524
   20MOL   O60721165   4.082   7.868   5.688 -0.2412 -0.5582  0.2118
   20MOL   C60821166   4.147   7.985   5.663 -0.8229 -0.0880  0.2257
   20MOL   C60921167   4.101   8.062   5.555 -0.3519 -0.4490 -0.2381
   20MOL   C61021168   4.163   8.182   5.532  0.5915  0.3056  0.0260
   20MOL   C61121169   4.274   8.224   5.616  0.4511 -0.2374  0.0257
   20MOL   C61221170   4.338   0.108   5.599 -0.2351  0.3542 -0.2933
   20MOL   C61321171   4.357   0.129   5.446  0.0235 -0.3705 -0.1904
   20MOL   C61421172   4.242   0.219   5.645 -0.4435 -0.6521  0.4679
   20MOL   C61521173   4.475   0.112   5.659 -0.1732 -0.0533 -0.0366
   20MOL   C61621174   4.589   0.060   5.597 -0.5883  0.5642 -0.5214
   20MOL   C61721175   4.711   0.060   5.666  0.1461 -0.0834  0.5608
   20MOL   C61821176   4.730   0.116   5.792  0.1682 -0.6962 -0.2819
   20MOL   O61921177   4.849   0.126   5.855  0.3597 -0.2659 -0.6087
   20MOL   C62021178   4.619   0.174   5.848  0.6077 -0.3020 -0.3022
   20MOL   C62121179   4.495   0.178   5.781  0.3117  0.0552  1.5548
   20MOL   C62221180   4.318   8.142   5.727 -0.4583 -0.4375  1.3609
   20MOL   C62321181   4.261   8.018   5.735 -0.3008 -0.1422 -0.2247
   20MOL   C62421182   4.241   7.733   5.566  0.6228 -0.5929  0.0496
   20MOL   C62521183   4.256   7.627   5.468  0.3664  0.0248  0.4333
   20MOL   C62621184   3.998   7.492   5.131  0.9453  0.2091  0.0355
   20MOL   C62721185   3.972   7.535   5.000 -0.1273 -0.5585 -0.2100
   20MOL   H62821186   4.282   7.564   4.874  1.9808 -0.9082  0.8537
   20MOL   H62921187   4.336   7.465   5.095  0.2405  0.2482  2.6416
   20MOL   H63021188   3.932   7.506   5.478 -0.5434  0.6344  2.4300
   20MOL   H63121189   3.903   7.697   5.614 -0.1501  1.5570  1.5851
   20MOL   H63221190   4.010   8.031   5.506 -0.1341 -2.3912  0.5407
   20MOL   H63321191   4.124   8.252   5.459  4.2501  1.3020 -1.0559
   20MOL   H63421192   4.266   0.142   5.388  0.2357 -1.6097 -0.8105
   20MOL   H63521193   4.409   0.042   5.405 -0.2329 -1.1206  1.0286
   20MOL   H63621194   4.421   0.216   5.438 -0.2546 -0.1599 -0.1528
   20MOL   H63721195   4.301   0.311   5.641 -1.2799 -0.1110  0.4644
   20MOL   H63821196   4.152   0.225   5.585  0.3458 -0.1772 -0.6831
   20MOL   H63921197   4.224   0.236   5.751 -0.1604 -0.0692  0.4269
   20MOL   H64021198   4.587   0.027   5.494 -2.4788 -3.4075  0.6661
   20MOL   H64121199   4.793   0.014   5.612  0.9537 -0.8253  2.3673
   20MOL   H64221200   4.629   0.206   5.951  0.8607  1.2440 -0.7855
   20MOL   H64321201   4.408   0.219   5.831 -1.2500 -0.7243 -0.4383
   20MOL   H64421202   4.389   8.177   5.800  0.6831 -1.0331  0.5507
   20MOL   H64521203   4.291   7.956   5.818 -0.4023  0.0697 -0.0304
   20MOL   H64621204   4.324   7.797   5.591 -1.0990  1.1299  1.5004
   20MOL   H64721205   4.346   7.612   5.410 -0.2867  2.4944 -1.3287
   20MOL   H64821206   3.917   7.483   5.203  0.4198  1.2631 -0.4161
   20MOL   H64921207   3.872   7.573   4.984  0.6885  1.4730 -0.6068
   20MOL   C65021208   4.941   0.021   5.846  0.6326 -0.1346 -0.0191
   20MOL   C65121209   4.891   8.148   5.847  0.3794  0.6699 -0.0230
   20MOL   C65221210   4.974   8.039   5.826  0.0747  0.2527 -0.4490
   20MOL   C65321211   5.111   8.056   5.804  0.3614  0.2878  0.0685
   20MOL   S65421212   5.216   7.910   5.774 -0.4079 -0.0449 -0.1457
   20MOL   O65521213   5.189   7.805   5.875  0.1214 -0.2321  0.0697
   20MOL   O65621214   5.359   7.947   5.758 -0.5656 -0.2512  0.3586
   20MOL   C65721215   5.157   7.828   5.620  0.9029 -0.1209 -0.2657
   20MOL   C65821216   5.216   7.863   5.497  0.4964  0.3411 -0.5095
   20MOL   C65921217   5.162   7.824   5.378 -0.5809  0.5264  0.0532
   20MOL   C66021218   5.051   7.743   5.382  0.7061 -0.0704  0.1135
   20MOL   O66121219   5.002   7.687   5.263  0.2796 -0.2192 -0.2544
   20MOL   C66221220   5.014   7.757   5.142  0.0544  0.2583  0.1815
   20MOL   C66321221   4.915   7.853   5.103 -0.4586 -0.2499  0.3686
   20MOL   C66421222   4.928   7.941   4.989 -0.6929  1.2204 -0.2443
   20MOL   C66521223   5.032   7.914   4.899  0.4943  0.4257  0.0580
   20MOL   C66621224   5.060   8.000   4.779  0.2090 -0.4970  0.9897
   20MOL   C66721225   5.151   7.929   4.676 -0.3595  0.2215  0.3908
   20MOL   C66821226   4.920   8.019   4.704 -0.1383 -0.2805  0.4696
   20MOL   C66921227   5.121   8.138   4.817  0.2544 -0.2668 -0.2428
   20MOL   C67021228   5.067   0.011   4.778  0.5162 -0.4116  0.0697
   20MOL   C67121229   5.135   0.132   4.807 -0.2867  0.7701  0.1413
   20MOL   C67221230   5.258   0.126   4.879  0.3103  0.1367  0.1387
   20MOL   O67321231   5.319   0.247   4.907  0.5076  0.7378  0.0126
   20MOL   C67421232   5.311   8.253   4.914  0.4888  0.4070 -0.0372
   20MOL   C67521233   5.243   8.132   4.888  0.3133 -0.4225  0.5115
   20MOL   C67621234   5.124   7.805   4.930  0.4129  1.0887 -0.1196
   20MOL   C67721235   5.111   7.730   5.049  0.0229  0.1256  0.3734
   20MOL   C67821236   5.001   7.692   5.504  0.7003 -1.1028  0.0096
   20MOL   C67921237   5.054   7.730   5.629 -0.2822  0.5450 -0.1261
   20MOL   C68021238   5.169   8.187   5.806 -0.1029 -1.2367 -0.5092
   20MOL   C68121239   5.080   0.043   5.826  0.0630 -0.6426  0.2463
   20MOL   H68221240   4.785   8.141   5.865  0.1718  0.8128 -1.1232
   20MOL   H68321241   4.928   7.942   5.831  1.9430 -0.6356 -0.4775
   20MOL   H68421242   5.303   7.925   5.497  0.5833  0.2333  0.6121
   20MOL   H68521243   5.216   7.857   5.291  1.2523 -2.0181  0.1816
   20MOL   H68621244   4.833   7.869   5.172 -1.1721  0.0512 -0.5365
   20MOL   H68721245   4.853   8.016   4.970  1.2077  2.8915 -1.3688
   20MOL   H68821246   5.256   7.914   4.701  0.3100 -1.0775 -2.9174
   20MOL   H68921247   5.148   7.973   4.576  0.7549  0.7189  0.5591
   20MOL   H69021248   5.122   7.828   4.648  0.5186 -0.1977  0.9438
   20MOL   H69121249   4.890   7.918   4.675  1.4852 -0.5235 -0.4431
   20MOL   H69221250   4.845   8.060   4.771 -0.0238  1.2088 -0.3046
   20MOL   H69321251   4.930   8.088   4.620 -2.2959 -0.0520  0.3756
   20MOL   H69421252   4.983   0.010   4.710  1.6309 -0.6890 -1.3442
   20MOL   H69521253   5.099   0.232   4.785  0.0276  1.0886  1.0346
   20MOL   H69621254   5.399   8.246   4.977  2.1176  0.9624 -2.1997
   20MOL   H69721255   5.277   8.033   4.915  0.6293 -0.3690  0.3103
   20MOL   H69821256   5.211   7.782   4.870 -0.2680  1.2362 -1.1768
   20MOL   H69921257   5.182   7.648   5.057  1.6258  1.4191 -0.2119
   20MOL   H70021258   4.918   7.623   5.489  0.6710 -0.7618 -1.4245
   20MOL   H70121259   5.010   7.696   5.722 -0.7148 -1.8859 -1.1995
   20MOL   H70221260   5.273   8.198   5.780 -0.7605  0.6507 -2.5335
   20MOL   H70321261   5.116   0.145   5.826 -0.8769 -0.3122  0.7914
   20MOL   C70421262   5.340   0.268   5.038 -0.0811 -0.6158  0.4686
   20MOL   C70521263   5.239   0.313   5.122 -0.1368 -0.1017 -0.1851
   20MOL   C70621264   5.267   0.348   5.255  0.1167  0.8409  0.2630
   20MOL   C70721265   5.390   0.330   5.308  0.9142  0.3551 -0.7922
   20MOL   S70821266   5.422   0.348   5.482 -0.4444 -0.6279 -0.0831
   20MOL   O70921267   5.563   0.396   5.496 -0.0697  0.2605  0.3513
   20MOL   O71021268   5.380   0.225   5.545 -0.4696  0.3400  0.6291
   20MOL   C71121269   5.311   0.471   5.534 -0.4637 -0.1916  0.7018
   20MOL   C71221270   5.295   0.584   5.448 -0.2573 -0.1358 -0.1311
   20MOL   C71321271   5.192   0.675   5.479 -0.2389 -0.1332  0.4276
   20MOL   C71421272   5.117   0.663   5.605 -0.8369  0.3514  0.1799
   20MOL   O71521273   5.015   0.749   5.628  0.0350 -0.5096  0.3780
   20MOL   C71621274   4.977   0.790   5.756 -0.1850 -0.2214  0.4344
   20MOL   C71721275   4.840   0.811   5.771  0.0307  0.1543 -0.1233
   20MOL   C71821276   4.790   0.824   5.901  0.0616  0.2289 -0.5105
   20MOL   C71921277   4.874   0.818   6.012 -0.2350 -0.0674 -0.0858
   20MOL   C72021278   4.813   0.841   6.156 -0.8431  0.5221 -0.3868
   20MOL   C72121279   4.917   0.830   6.264  1.0242  0.9068 -0.2709
   20MOL   C72221280   4.770   0.986   6.156 -0.2403  0.1854  0.0894
   20MOL   C72321281   4.703   0.740   6.179  0.7760 -0.1248 -0.0994
   20MOL   C72421282   4.723   0.602   6.148 -0.0106 -1.0395 -0.6310
   20MOL   C72521283   4.632   0.503   6.181 -0.1371  0.1725 -0.5094
   20MOL   C72621284   4.514   0.543   6.247  0.4594  0.2205  0.0546
   20MOL   O72721285   4.413   0.462   6.288 -0.1429  0.6399  0.0728
   20MOL   C72821286   4.483   0.678   6.269 -0.1597 -0.1469 -0.2317
   20MOL   C72921287   4.584   0.774   6.242 -0.0098 -0.2572 -0.3405
   20MOL   C73021288   5.013   0.822   5.989 -0.4666  0.2229  0.4435
   20MOL   C73121289   5.066   0.794   5.864  0.2648  0.4779  0.8244
   20MOL   C73221290   5.147   0.549   5.691 -0.1367 -0.9932  0.4047
   20MOL   C73321291   5.248   0.461   5.658 -0.0360  0.6909 -0.2116
   20MOL   C73421292   5.497   0.290   5.224 -0.1206  0.2572  0.8913
   20MOL   C73521293   5.471   0.258   5.086 -0.2939 -0.1474 -0.3549
   20MOL   H73621294   5.134   0.324   5.097 -0.1762  0.5562  0.2498
   20MOL   H73721295   5.179   0.368   5.315 -1.0041  0.4998 -1.2132
   20MOL   H73821296   5.337   0.595   5.349 -1.2268 -1.6697 -0.7293
   20MOL   H73921297   5.167   0.752   5.408  1.2558  0.2190  0.2695
   20MOL   H74021298   4.763   0.806   5.696  0.1614 -0.1294 -0.2378
   20MOL   H74121299   4.684   0.830   5.917 -0.1478 -2.7438 -0.4454
   20MOL   H74221300   5.002   0.898   6.264  2.8170 -1.2780 -1.7102
   20MOL   H74321301   4.965   0.733   6.253  1.9947  1.5441 -1.8534
   20MOL   H74421302   4.878   0.835   6.366 -1.2201  0.6014 -1.0990
   20MOL   H74521303   4.723   1.019   6.248 -0.4555  2.3416 -0.7774
   20MOL   H74621304   4.844   1.064   6.140 -1.4467  1.3054 -0.0727
   20MOL   H74721305   4.705   0.998   6.070  2.6927 -2.0442 -2.5752
   20MOL   H74821306   4.805   0.575   6.083  1.0051 -0.0108  0.1940
   20MOL   H74921307   4.653   0.398   6.168  1.6629  0.2584  1.3638
   20MOL   H75021308   4.390   0.706   6.316  0.3426  0.4267  0.4336
   20MOL   H75121309   4.563   0.871   6.286 -0.4461 -0.9833  1.0714
   20MOL   H75221310   5.073   0.828   6.078  2.6433 -2.9443 -1.2957
   20MOL   H75321311   5.172   0.777   5.854  0.0833 -1.0873  1.4770
   20MOL   H75421312   5.095   0.531   5.784  3.0852  0.2155  2.5610
   20MOL   H75521313   5.260   0.379   5.729 -0.0487 -0.5149 -1.5832
   20MOL   H75621314   5.593   0.281   5.274  0.4707  0.0340 -0.2746
   20MOL   H75721315   5.552   0.235   5.018  2.9280  1.5582  2.7583
   20MOL   C75821316   4.428   0.327   6.272  0.1673  0.2069 -0.4965
   20MOL   C75921317   4.516   0.256   6.354 -0.1540 -0.4539 -0.1763
   20MOL   C76021318   4.547   0.122   6.334  0.2197 -0.0202  0.4675
   20MOL   C76121319   4.469   0.051   6.248 -0.6005  0.7657 -0.9927
   20MOL   S76221320   4.506   8.127   6.229 -0.3464 -0.2591  0.2941
   20MOL   O76321321   4.650   8.116   6.205  0.4052  0.7292 -0.7006
   20MOL   O76421322   4.420   8.073   6.123  0.0840 -0.0188  0.3700
   20MOL   C76521323   4.463   8.052   6.389  0.0464 -0.6030 -0.3977
   20MOL   C76621324   4.333   8.067   6.442  1.0402 -0.5326 -0.1570
   20MOL   C76721325   4.307   8.013   6.571 -0.0893  1.0553 -0.4287
   20MOL   C76821326   4.405   7.941   6.646  0.3809 -0.5715  0.2060
   20MOL   O76921327   4.374   7.898   6.772 -0.1458 -0.1579 -0.0886
   20MOL   C77021328   4.445   7.789   6.814 -0.7753 -0.4047 -0.4185
   20MOL   C77121329   4.565   7.811   6.884  0.3149  0.0830 -0.1130
   20MOL   C77221330   4.645   7.701   6.914 -0.5160 -0.3445 -0.8475
   20MOL   C77321331   4.607   7.570   6.878  0.2178  0.5070  0.7501
   20MOL   C77421332   4.698   7.450   6.903 -0.0016  0.4936 -0.4450
   20MOL   C77521333   4.637   7.312   6.865 -0.4647  0.3963 -0.2155
   20MOL   C77621334   4.826   7.475   6.814 -0.2516 -0.5369 -0.2140
   20MOL   C77721335   4.743   7.439   7.053 -0.3894 -0.2194 -0.9653
   20MOL   C77821336   4.650   7.461   7.158  0.3098  0.3282  0.2033
   20MOL   C77921337   4.690   7.456   7.293 -0.0233 -0.5462 -0.1389
   20MOL   C78021338   4.825   7.424   7.321  0.1271 -0.1916  0.3352
   20MOL   O78121339   4.863   7.396   7.449  0.0386 -0.2083  0.1240
   20MOL   C78221340   4.912   7.393   7.219 -0.0109 -0.0312 -0.4172
   20MOL   C78321341   4.877   7.399   7.083 -0.4894  0.3730  0.2387
   20MOL   C78421342   4.489   7.551   6.802 -0.2049  0.3349 -0.2978
   20MOL   C78521343   4.404   7.657   6.781 -0.2612 -0.8167 -0.0046
   20MOL   C78621344   4.529   7.915   6.580 -0.2715  0.2736 -0.0294
   20MOL   C78721345   4.552   7.970   6.454  0.4176 -0.5639  0.1898
   20MOL   C78821346   4.369   0.112   6.174  0.3527  0.3044  0.3511
   20MOL   C78921347   4.348   0.253   6.185  0.3530  0.4849  0.6176
   20MOL   H79021348   4.572   0.316   6.424  0.5749  0.3897 -1.4439
   20MOL   H79121349   4.630   0.062   6.368  0.4210  0.8424  1.5453
   20MOL   H79221350   4.254   8.121   6.392  0.0319 -1.1539  0.7562
   20MOL   H79321351   4.211   8.015   6.621  0.7312 -1.6329  1.3733
   20MOL   H79421352   4.581   7.912   6.921  1.6422  0.8362 -2.6234
   20MOL   H79521353   4.739   7.717   6.965 -0.6471  1.3645 -1.1134
   20MOL   H79621354   4.700   7.229   6.896 -0.5236  0.3405 -0.2495
   20MOL   H79721355   4.631   7.305   6.757 -0.3140  0.2077 -0.2119
   20MOL   H79821356   4.538   7.299   6.909 -0.3162  2.0453  0.6805
   20MOL   H79921357   4.794   7.492   6.712  0.1033  0.4502 -0.1660
   20MOL   H80021358   4.876   7.567   6.845  0.5786 -0.5320 -1.5635
   20MOL   H80121359   4.895   7.391   6.815  0.1142 -0.2379 -0.1131
   20MOL   H80221360   4.550   7.490   7.129  0.1450  0.4492  0.8853
   20MOL   H80321361   4.620   7.477   7.372 -0.2391  0.6315 -0.6135
   20MOL   H80421362   5.008   7.346   7.234  0.2293  0.9526  1.2517
   20MOL   H80521363   4.955   7.366   7.016 -1.0943 -1.9098  0.6165
   20MOL   H80621364   4.452   7.459   6.759  0.5391  0.1636 -0.5786
   20MOL   H80721365   4.308   7.641   6.735 -0.3625 -0.7874  0.1970
   20MOL   H80821366   4.608   7.866   6.636 -0.4842  1.2134  1.1287
   20MOL   H80921367   4.645   7.968   6.399  0.2458  2.4357 -0.2807
   20MOL   H81021368   4.313   0.056   6.100 -1.7937  0.6877  1.6672
   20MOL   H81121369   4.271   0.297   6.123  0.9726 -0.4942 -0.8953
   20MOL   C81221370   4.792   7.310   7.524  0.0721  0.4117  1.0332
   20MOL   C81321371   4.713   7.358   7.626 -0.4532 -0.3245 -0.3880
   20MOL   C81421372   4.641   7.267   7.704 -0.2676  0.4248 -0.1566
   20MOL   C81521373   4.649   7.130   7.677 -0.0387  0.4234  0.2273
   20MOL   S81621374   4.547   7.019   7.779 -0.3332  0.2212  0.2131
   20MOL   O81721375   4.487   6.912   7.693  0.2639 -0.7472  1.0683
   20MOL   O81821376   4.454   7.089   7.873  0.0538  0.1905 -0.1588
   20MOL   C81921377   4.667   6.936   7.883 -0.0568 -0.0479 -0.7043
   20MOL   C82021378   4.685   6.968   8.020 -0.8780  0.3299 -0.2304
   20MOL   C82121379   4.780   6.893   8.094  0.2225 -0.2559  0.1418
   20MOL   C82221380   4.857   6.792   8.033  0.1471  0.8720 -0.5472
   20MOL   O82321381   4.960   6.728   8.102 -0.2303  0.0433 -0.1336
   20MOL   C82421382   5.087   6.759   8.061  0.0441 -0.2053 -0.6078
   20MOL   C82521383   5.156   6.665   7.989 -0.0653 -0.2729  0.2211
   20MOL   C82621384   5.286   6.697   7.947 -0.4840 -0.2848  0.1463
   20MOL   C82721385   5.347   6.823   7.983 -0.0883  0.3637  0.3067
   20MOL   C82821386   5.482   6.858   7.907 -0.6963  0.1622  0.2705
   20MOL   C82921387   5.551   6.982   7.955  0.4482 -0.6863  0.3634
   20MOL   C83021388   5.581   6.741   7.938 -0.2784 -0.2547  0.0883
   20MOL   C83121389   5.457   6.864   7.756  0.7836 -0.1648  0.3557
   20MOL   C83221390   5.559   6.852   7.660  0.1184  0.2677 -0.0744
   20MOL   C83321391   5.537   6.879   7.524  0.1828  0.1718  0.0384
   20MOL   C83421392   5.413   6.911   7.477  0.9628  0.0376 -0.2075
   20MOL   O83521393   5.397   6.930   7.343  0.3347  0.1789 -0.1861
   20MOL   C83621394   5.305   6.915   7.569  0.7274  0.0018 -0.5224
   20MOL   C83721395   5.325   6.895   7.704  0.1084  0.2953  0.4468
   20MOL   C83821396   5.282   6.910   8.069 -0.2512 -0.1875 -0.2642
   20MOL   C83921397   5.149   6.881   8.104 -0.0805 -0.2942  0.6236
   20MOL   C84021398   4.832   6.762   7.901 -0.0995 -0.1131 -0.0928
   20MOL   C84121399   4.731   6.828   7.828 -0.0887 -0.1048  0.4768
   20MOL   C84221400   4.727   7.078   7.565  0.3272  0.2621 -0.0528
   20MOL   C84321401   4.790   7.174   7.488  0.7682  0.2618 -0.2783
   20MOL   H84421402   4.713   7.462   7.655  1.3511 -0.6631  0.8550
   20MOL   H84521403   4.591   7.312   7.789  2.9799  1.1773  1.4534
   20MOL   H84621404   4.618   7.033   8.073 -0.0629  0.0561  1.1467
   20MOL   H84721405   4.785   6.924   8.197 -0.3748 -0.8744  0.3615
   20MOL   H84821406   5.109   6.572   7.960  1.1335 -1.2881  1.4447
   20MOL   H84921407   5.331   6.613   7.898  1.0761 -0.7150  2.2439
   20MOL   H85021408   5.484   7.066   7.938 -0.7458 -1.2477  2.0468
   20MOL   H85121409   5.644   7.010   7.906  0.5128 -0.6048  0.5328
   20MOL   H85221410   5.570   6.976   8.063  0.2924 -0.5584  0.4000
   20MOL   H85321411   5.687   6.749   7.914 -0.4889  0.7720 -0.4955
   20MOL   H85421412   5.575   6.722   8.045  1.6664  0.9811  0.4556
   20MOL   H85521413   5.542   6.649   7.894  0.3144 -0.6066  0.2850
   20MOL   H85621414   5.662   6.844   7.694 -0.2984 -0.9532  0.8983
   20MOL   H85721415   5.625   6.870   7.462 -0.9792 -0.5706 -1.5383
   20MOL   H85821416   5.208   6.943   7.532  0.7381 -0.4523 -0.9032
   20MOL   H85921417   5.238   6.911   7.766 -0.7639 -1.4058 -0.2900
   20MOL   H86021418   5.332   7.002   8.093 -0.1960 -0.2090 -0.2980
   20MOL   H86121419   5.096   6.959   8.156 -0.9951 -1.6399  1.7416
   20MOL   H86221420   4.870   6.667   7.867 -0.4152 -0.1869 -0.2529
   20MOL   H86321421   4.710   6.795   7.728 -0.7847  0.9404  0.2625
   20MOL   H86421422   4.740   6.972   7.554  1.3636  0.5703 -2.0237
   20MOL   H86521423   4.844   7.128   7.406  1.8280 -0.6736  0.9192
   20MOL   C86621424   5.388   7.056   7.299 -0.3567 -0.4505 -0.0702
   20MOL   C86721425   5.300   7.074   7.194 -0.1902  0.1135  0.0478
   20MOL   C86821426   5.286   7.197   7.134  0.3166 -0.2005  0.6137
   20MOL   C86921427   5.354   7.308   7.185 -0.3449 -0.9103 -0.5371
   20MOL   S87021428   5.334   7.463   7.110  0.0761  0.0358 -0.0737
   20MOL   O87121429   5.345   7.572   7.209 -0.3010 -0.4985  0.4964
   20MOL   O87221430   5.212   7.443   7.032 -0.3249  0.2359  0.5091
   20MOL   C87321431   5.464   7.480   6.985 -0.4428  0.7978 -0.5003
   20MOL   C87421432   5.544   7.596   6.991  0.3538 -0.7125  0.3530
   20MOL   C87521433   5.636   7.623   6.891 -0.0260 -0.2714 -0.0566
   20MOL   C87621434   5.657   7.528   6.786  0.3269 -0.1256  0.1745
   20MOL   O87721435   5.767   7.542   6.702  0.3696  0.0013  0.1934
   20MOL   C87821436   5.762   7.633   6.596 -0.0860 -0.4571 -0.1169
   20MOL   C87921437   5.833   7.760   6.603  0.0978  0.5247 -0.4067
   20MOL   C88021438   5.819   7.854   6.501 -0.0962 -0.0046  0.9230
   20MOL   C88121439   5.748   7.820   6.384 -0.4432 -0.4831 -0.7225
   20MOL   C88221440   5.697   7.925   6.284  0.0284  0.4967  0.2778
   20MOL   C88321441   5.745   8.068   6.325 -0.0260 -0.1120  0.0189
   20MOL   C88421442   5.752   7.902   6.133  0.6392  0.0181 -0.7011
   20MOL   C88521443   5.538   7.943   6.286  0.1838  0.1193 -0.7015
   20MOL   C88621444   5.468   7.925   6.401  0.3082 -0.3354 -0.4196
   20MOL   C88721445   5.332   7.950   6.410 -0.0922  0.1982 -0.2180
   20MOL   C88821446   5.253   7.985   6.296  0.0457 -0.0875  0.2730
   20MOL   O88921447   5.121   8.006   6.303 -0.4869  0.4532  0.1353
   20MOL   C89021448   5.325   8.004   6.178  1.0671 -0.5672 -0.3331
   20MOL   C89121449   5.463   7.980   6.171 -0.1489 -0.4055 -0.3629
   20MOL   C89221450   5.687   7.694   6.374  0.0167  0.1183  0.1542
   20MOL   C89321451   5.689   7.603   6.485 -0.0716  0.0067 -0.3925
   20MOL   C89421452   5.576   7.413   6.778 -1.0259 -0.4623 -0.2210
   20MOL   C89521453   5.483   7.388   6.879 -0.4592  0.2108  0.1469
   20MOL   C89621454   5.449   7.287   7.291  0.2052 -0.3185  1.1660
   20MOL   C89721455   5.464   7.161   7.351  0.2576 -0.1390  0.1343
   20MOL   H89821456   5.237   6.997   7.154  3.9828 -1.9918 -2.8568
   20MOL   H89921457   5.223   7.204   7.046 -1.8964  0.7967  2.2470
   20MOL   H90021458   5.508   7.668   7.062  2.3137  1.7398 -1.0711
   20MOL   H90121459   5.693   7.714   6.897  0.0505 -0.3383  0.2463
   20MOL   H90221460   5.881   7.782   6.698 -0.3225 -1.4073  0.2724
   20MOL   H90321461   5.860   7.954   6.504  2.7073 -1.0344 -0.9346
   20MOL   H90421462   5.709   8.101   6.422  0.0158 -0.3217  0.1069
   20MOL   H90521463   5.708   8.145   6.258  1.2054 -0.2641 -0.8603
   20MOL   H90621464   5.854   8.073   6.320 -0.1077  1.3064 -0.4432
   20MOL   H90721465   5.730   7.979   6.060  1.4446  0.2470 -0.6962
   20MOL   H90821466   5.860   7.889   6.142  0.5431 -0.6072 -0.3747
   20MOL   H90921467   5.712   7.808   6.094  0.8889  0.3292 -1.7154
   20MOL   H91021468   5.513   7.893   6.495 -1.9707 -1.5813  0.2740
   20MOL   H91121469   5.285   7.925   6.504  0.3464 -1.2622 -0.3890
   20MOL   H91221470   5.264   8.043   6.098  1.3735  0.1271 -0.2254
   20MOL   H91321471   5.509   7.995   6.074  0.8930  0.5537  0.2777
   20MOL   H91421472   5.638   7.667   6.282  0.3324 -1.1760  0.3549
   20MOL   H91521473   5.640   7.509   6.465 -1.6216  1.0856 -1.7850
   20MOL   H91621474   5.593   7.349   6.693 -0.3133  0.1049 -0.5196
   20MOL   H91721475   5.419   7.302   6.866  1.5678 -1.3202  0.0019
   20MOL   H91821476   5.503   7.377   7.316  0.4454  0.4462 -1.8515
   20MOL   H91921477   5.532   7.144   7.433  0.1614  0.6354  0.3716
   20MOL   C92021478   5.041   7.924   6.232 -0.6993  0.7579  0.3187
   20MOL   C92121479   5.076   7.791   6.196 -0.6302  0.3219 -1.1743
   20MOL   C92221480   5.001   7.711   6.117 -0.3699  0.4088  0.0560
   20MOL   C92321481   4.881   7.759   6.064  0.1404 -0.1315 -0.3134
   20MOL   S92421482   4.774   7.658   5.964  0.0598 -0.0597 -0.4987
   20MOL   O92521483   4.812   7.516   5.973  0.5674 -0.3161 -0.4441
   20MOL   O92621484   4.782   7.713   5.827 -0.0594 -0.4303  0.2885
   20MOL   C92721485   4.607   7.685   6.022  1.0616  0.3766  0.0112
   20MOL   C92821486   4.492   7.663   5.943  0.5786 -0.0786  0.5802
   20MOL   C92921487   4.362   7.674   5.990 -0.2400 -0.0422 -0.1909
   20MOL   C93021488   4.339   7.707   6.122  0.0699  0.2152 -0.5041
   20MOL   O93121489   4.212   7.706   6.174 -0.3080  0.1436  0.0890
   20MOL   C93221490   4.148   7.828   6.196  0.1668 -0.0040 -0.1014
   20MOL   C93321491   4.096   7.860   6.324  0.1391 -0.2411  0.4320
   20MOL   C93421492   4.025   7.979   6.341  0.6804  0.0623  0.1587
   20MOL   C93521493   3.997   8.063   6.237 -0.1854  0.2040  0.6402
   20MOL   C93621494   3.902   8.180   6.268 -1.0583 -0.2288  0.1584
   20MOL   C93721495   3.895   0.029   6.154  0.1318  0.6401 -0.0109
   20MOL   C93821496   3.762   8.129   6.293 -0.1857 -0.1157 -0.6774
   20MOL   C93921497   3.959   8.247   6.395  0.2892  0.1757  0.3319
   20MOL   C94021498   4.070   0.076   6.378  0.1609 -0.1176 -0.1126
   20MOL   C94121499   4.122   0.144   6.491 -0.4477 -0.2425  0.1602
   20MOL   C94221500   4.058   0.134   6.614  0.0996  0.3887  0.0933
   20MOL   O94321501   4.111   0.202   6.720  0.0557 -0.0324  0.2846
   20MOL   C94421502   3.947   0.048   6.632 -0.2483 -0.5121  0.2626
   20MOL   C94521503   3.908   8.230   6.522  0.3762 -0.4440  0.3046
   20MOL   C94621504   4.052   8.034   6.111 -0.3776 -0.9114  0.4323
   20MOL   C94721505   4.126   7.918   6.090 -0.2359  0.1276 -0.0895
   20MOL   C94821506   4.447   7.731   6.206 -0.8785  0.8725 -0.4543
   20MOL   C94921507   4.582   7.716   6.156 -0.4406 -0.4549 -0.1685
   20MOL   C95021508   4.838   7.895   6.099 -0.1493  0.3857  0.8179
   20MOL   C95121509   4.919   7.983   6.183  0.2371 -0.6190 -0.0488
   20MOL   H95221510   5.169   7.748   6.228 -0.2959  1.4126 -0.6720
   20MOL   H95321511   5.036   7.612   6.092 -0.2968 -0.0887  2.0430
   20MOL   H95421512   4.513   7.642   5.839 -3.2500  1.9000 -0.6652
   20MOL   H95521513   4.279   7.665   5.921 -1.8603 -2.5992  1.9686
   20MOL   H95621514   4.114   7.789   6.403 -1.4565 -0.9093  0.2000
   20MOL   H95721515   3.991   8.004   6.440  0.7046 -0.2389  0.2414
   20MOL   H95821516   3.979   0.080   6.106  0.6251  0.3499  0.5350
   20MOL   H95921517   3.815   0.100   6.175  0.3909  1.2849 -1.1697
   20MOL   H96021518   3.862   8.241   6.059 -0.2718 -0.6790  0.6830
   20MOL   H96121519   3.728   8.082   6.200 -1.1956  0.2306 -0.4866
   20MOL   H96221520   3.760   8.052   6.370 -1.4904  0.5128 -0.0725
   20MOL   H96321521   3.688   8.204   6.318 -1.4112 -0.9366 -1.7340
   20MOL   H96421522   4.122   0.072   6.284  1.2640 -1.9963  0.5383
   20MOL   H96521523   4.204   0.212   6.476 -1.7978  1.8455  1.9941
   20MOL   H96621524   3.900   0.030   6.728 -2.3218 -0.4009 -0.7144
   20MOL   H96721525   3.838   8.150   6.540 -0.4438  0.6951  2.3425
   20MOL   H96821526   4.048   8.100   6.025  2.4181 -2.5770 -1.0648
   20MOL   H96921527   4.155   7.892   5.989  0.3234 -0.2887  0.1707
   20MOL   H97021528   4.438   7.760   6.310  3.8481  1.6893 -0.1486
   20MOL   H97121529   4.670   7.734   6.215 -0.4869  0.5191 -0.3872
   20MOL   H97221530   4.748   7.930   6.051  0.3875 -3.1274 -3.0303
   20MOL   H97321531   4.886   8.085   6.199  0.2663 -0.6122 -0.0301
   20MOL   C97421532   4.212   0.144   6.799 -0.5919  0.1114 -0.0296
   20MOL   C97521533   4.226   0.196   6.927  0.2779  0.6434  0.0867
   20MOL   C97621534   4.319   0.145   7.015  0.1649  0.0858  0.2403
   20MOL   C97721535   4.420   0.059   6.971 -0.1723  0.5918  0.2186
   20MOL   S97821536   4.561   0.019   7.067 -0.3848  0.3215 -0.0954
   20MOL   O97921537   4.674   0.072   6.993 -0.0974  0.2949 -0.2325
   20MOL   O98021538   4.558   8.131   7.099 -0.1888 -0.2981  0.2090
   20MOL   C98121539   4.554   0.098   7.226 -0.3848 -0.4494  0.2224
   20MOL   C98221540   4.565   0.026   7.344  0.1214 -0.0651 -0.5218
   20MOL   C98321541   4.535   0.086   7.470  0.0401  0.3666 -0.9563
   20MOL   C98421542   4.510   0.230   7.476 -0.7034 -0.6608  0.0895
   20MOL   O98521543   4.488   0.301   7.591  0.3388  0.2500  0.0789
   20MOL   C98621544   4.364   0.357   7.605  0.0883  0.0740 -0.3814
   20MOL   C98721545   4.261   0.274   7.654  0.5579 -0.6890  0.2242
   20MOL   C98821546   4.136   0.329   7.677 -0.0448 -0.1075  0.2746
   20MOL   C98921547   4.111   0.470   7.661 -0.5180 -0.2615  0.7108
   20MOL   C99021548   3.970   0.525   7.673  0.3042 -0.2250  0.1665
   20MOL   C99121549   3.963   0.680   7.698 -0.0190 -0.0151  0.1812
   20MOL   C99221550   3.893   0.484   7.549 -0.9979 -0.4455 -0.1772
   20MOL   C99321551   3.908   0.459   7.799 -0.4087  0.0365 -0.6255
   20MOL   C99421552   3.976   0.480   7.924  0.2042 -0.2631 -0.1004
   20MOL   C99521553   3.928   0.421   8.045  0.2267  0.7137  0.2340
   20MOL   C99621554   3.804   0.353   8.048 -0.4874  0.0403  0.5960
   20MOL   O99721555   3.750   0.288   8.157 -0.0678  0.4478 -0.6845
   20MOL   C99821556   3.736   0.336   7.923 -0.5026  0.1918 -0.0685
   20MOL   C99921557   3.789   0.383   7.797  0.0454 -0.0318 -0.2547
   20MOL     C121558   4.220   0.551   7.618 -0.5687 -0.4500 -0.1066
   20MOL     C221559   4.341   0.496   7.591 -0.3735 -0.5988  0.2682
   20MOL     C321560   4.511   0.302   7.352 -0.0575 -0.4741  0.0159
   20MOL     C421561   4.528   0.235   7.228 -0.1860  0.0255 -0.5845
   20MOL     C521562   4.416   0.014   6.839  0.0491  0.3255 -0.3647
   20MOL     C621563   4.307   0.051   6.752  0.3252  0.6996 -0.3171
   20MOL     H721564   4.151   0.260   6.970  0.2280 -0.2770  1.4035
   20MOL     H821565   4.304   0.174   7.118  0.3402  1.0245  0.0079
   20MOL     H921566   4.601   8.177   7.338  2.3796  0.7803 -2.0585
   20MOL    H1021567   4.535   0.032   7.563  0.4056  1.3664 -0.3673
   20MOL    H1121568   4.288   0.172   7.672  1.5007 -0.4096  0.4021
   20MOL    H1221569   4.051   0.267   7.700  0.1069 -0.6495 -0.5863
   20MOL    H1321570   3.861   0.712   7.719  1.0419  1.5078  3.3500
   20MOL    H1421571   4.009   0.731   7.613 -0.7703  0.2310 -0.0799
   20MOL    H1521572   4.022   0.711   7.784  1.6530  0.9282 -1.2552
   20MOL    H1621573   3.791   0.523   7.551 -1.0651 -0.6632  1.8808
   20MOL    H1721574   3.940   0.518   7.457 -0.3859 -1.3811 -0.2180
   20MOL    H1821575   3.882   0.375   7.543 -0.1227 -0.4750 -1.3329
   20MOL    H1921576   4.067   0.537   7.929  0.5847 -0.7511 -1.2484
   20MOL    H2021577   3.984   0.432   8.137  0.2024  1.8400  0.1211
   20MOL    H2121578   3.637   0.293   7.925 -0.2783 -0.3098  1.5766
   20MOL    H2221579   3.728   0.368   7.709  0.2702  1.5177 -0.6892
   20MOL    H2321580   4.199   0.655   7.598  0.4045 -0.2639 -0.1765
   20MOL    H2421581   4.413   0.569   7.559 -2.9953  0.9356 -2.3784
   20MOL    H2521582   4.500   0.409   7.351 -2.5411 -0.7028 -1.1143
   20MOL    H2621583   4.521   0.289   7.135  0.5991  1.1617  0.0004
   20MOL    H2721584   4.502   8.224   6.789  1.1318  1.9038  0.1023
   20MOL    H2821585   4.305   0.028   6.647  0.6683 -1.0596  0.0474
   20MOL    C2921586   3.694   0.366   0.008  0.3535 -0.1523 -0.0417
   20MOL    C3021587   3.712   0.324   0.145 -0.0409  0.2248  0.0061
   20MOL    C3121588   3.650   0.393   0.252 -0.7501 -0.1404  0.2033
   20MOL    C3221589   3.597   0.518   0.219  0.3601 -0.4201  0.3710
   20MOL    S3321590   3.536   0.619   0.354 -0.1517  0.0869  0.2892
   20MOL    O3421591   3.657   0.691   0.405 -0.1257  0.1928 -0.5576
   20MOL    O3521592   3.476   0.522   0.442 -0.0683  0.1667  0.0100
   20MOL    C3621593   3.415   0.737   0.297  0.0691  0.5482 -0.1828
   20MOL    C3721594   3.277   0.712   0.314  0.2243  0.4984  0.1588
   20MOL    C3821595   3.193   0.811   0.253 -0.0550 -0.3093 -0.3072
   20MOL    C3921596   3.246   0.924   0.182  0.1626  0.5837  0.4707
   20MOL    O4021597   3.153   1.021   0.146 -0.1245  0.1183  0.5787
   20MOL    C4121598   3.049   1.008   0.058  0.3211  0.7045 -0.0612
   20MOL    C4221599   3.056   0.927   8.197  0.0176  0.9454  0.3923
   20MOL    C4321600   2.949   0.918   8.104  0.1374 -0.2696  0.3896
   20MOL    C4421601   2.835   1.001   8.119  0.0645 -0.1944  0.5978
   20MOL    C4521602   2.720   1.003   8.018 -0.2082 -0.4581  0.2116
   20MOL    C4621603   2.751   0.929   7.889 -0.6053 -0.2763  0.1623
   20MOL    C4721604   2.601   0.926   8.084 -0.7388  0.0417 -0.2100
   20MOL    C4821605   2.676   1.146   7.987  0.0679  0.1880  0.3812
   20MOL    C4921606   2.770   1.253   7.959 -0.0354 -1.1159  0.0071
   20MOL    C5021607   2.715   1.384   7.940  0.6188  1.0283  0.1482
   20MOL    C5121608   2.582   1.411   7.924  0.0264  0.4694  0.6378
   20MOL    O5221609   2.536   1.542   7.889 -0.2614  0.1487 -0.0866
   20MOL    C5321610   2.491   1.310   7.942  0.2968  0.9940  0.2268
   20MOL    C5421611   2.540   1.182   7.974 -0.5513 -0.0978 -0.0158
   20MOL    C5521612   2.832   1.087   8.229 -0.0838 -0.5584 -0.3013
   20MOL    C5621613   2.935   1.093   0.072  0.1464  0.1703 -0.4619
   20MOL    C5721614   3.388   0.941   0.172  0.6256  0.3364  0.7160
   20MOL    C5821615   3.470   0.843   0.229 -0.0142 -0.1845  0.1491
   20MOL    C5921616   3.590   0.567   0.089 -0.1716 -0.1591 -0.0558
   20MOL    C6021617   3.639   0.489   8.240 -0.1899  0.2187  0.4716
   20MOL    H6121618   3.760   0.229   0.159 -1.1193 -0.4550 -0.7917
   20MOL    H6221619   3.652   0.340   0.346  2.2565 -2.8542 -1.2906
   20MOL    H6321620   3.251   0.633   0.382  0.7658  1.4536  1.4911
   20MOL    H6421621   3.087   0.818   0.270  0.3717  2.3741  1.4580
   20MOL    H6521622   3.145   0.869   8.175 -0.0359  0.1113  2.2637
   20MOL    H6621623   2.958   0.853   8.019 -0.8710  0.5787 -0.3785
   20MOL    H6721624   2.770   0.822   7.894 -1.4933 -0.4422  0.1579
   20MOL    H6821625   2.837   0.974   7.840 -0.4024 -0.8039  0.0302
   20MOL    H6921626   2.665   0.943   7.823  0.9960  1.1889 -1.6600
   20MOL    H7021627   2.512   0.927   8.020  0.9366  2.9069 -2.6429
   20MOL    H7121628   2.623   0.820   8.082  0.7738  0.3503 -3.0390
   20MOL    H7221629   2.585   0.960   8.186  0.5272  2.2922 -0.7283
   20MOL    H7321630   2.877   1.241   7.970  0.7570  2.8977 -2.0859
   20MOL    H7421631   2.793   1.458   7.927  0.6726  0.7097 -1.4822
   20MOL    H7521632   2.388   1.329   7.918  0.5312  2.0249  0.0243
   20MOL    H7621633   2.459   1.111   7.985  1.0757 -1.8731  0.8688
   20MOL    H7721634   2.749   1.156   8.236  1.8282  1.5640  2.4242
   20MOL    H7821635   2.929   1.153   0.161 -0.1825 -0.1316 -0.2761
   20MOL    H7921636   3.417   1.031   0.120  1.9998 -0.2358  0.4773
   20MOL    H8021637   3.578   0.845   0.228  0.0044  1.6078  2.2402
   20MOL    H8121638   3.560   0.668   0.063  3.4372  0.3115 -2.9260
   20MOL    H8221639   3.623   0.520   8.138  0.6786  0.5529  0.4357
   20MOL    H8321640   2.444   1.562   7.883 -0.2793  0.7510  1.7410
   21MOL     C121641   2.463   3.933   4.674  0.1537  0.4046 -0.4192
   21MOL     C221642   2.590   3.875   4.689  0.3524  0.6261 -0.1655
   21MOL     C321643   2.696   3.951   4.735 -0.0268  0.2106  0.0580
   21MOL     C421644   2.676   4.083   4.780 -0.4518  0.4475 -0.3971
   21MOL     S521645   2.820   4.175   4.849 -0.2776 -0.1624  0.1117
   21MOL     O621646   2.936   4.157   4.763  0.3629 -0.8766  0.1773
   21MOL     O721647   2.830   4.126   4.989 -0.5082  0.1152 -0.2452
   21MOL     C821648   2.772   4.348   4.855  0.3039 -0.7353  0.4087
   21MOL     C921649   2.777   4.420   4.975  0.1507 -0.3186 -0.3181
   21MOL    C1021650   2.736   4.557   4.984 -0.3121  0.2373  0.4894
   21MOL    C1121651   2.694   4.613   4.869  0.4025 -0.3521  0.2118
   21MOL    O1221652   2.655   4.744   4.872 -0.0540  0.0818 -0.6572
   21MOL    C1321653   2.743   4.852   4.881  0.5258  0.1243  0.4070
   21MOL    C1421654   2.871   4.833   4.929  0.1259 -0.3295  0.1259
   21MOL    C1521655   2.954   4.942   4.947 -0.5069  0.0559 -0.1273
   21MOL    C1621656   2.913   5.066   4.911 -0.0858 -0.4761  0.4416
   21MOL    C1721657   3.002   5.184   4.917 -0.3262 -0.0541 -0.5018
   21MOL    C1821658   2.952   5.275   5.033 -0.3033  0.0028 -0.6363
   21MOL    C1921659   3.146   5.153   4.953 -0.2568  0.0632 -0.5709
   21MOL    C2021660   3.000   5.251   4.779  0.8413  0.7765  0.0699
   21MOL    C2121661   2.948   5.381   4.757 -0.1872  0.1630 -0.0300
   21MOL    C2221662   2.930   5.418   4.623 -0.0116 -0.8460  0.3685
   21MOL    C2321663   2.968   5.340   4.517 -0.3354  0.4278  0.1508
   21MOL    O2421664   2.958   5.375   4.386  0.7574  0.4926 -0.4072
   21MOL    C2521665   3.019   5.216   4.542  0.6560  0.1227  0.3659
   21MOL    C2621666   3.049   5.174   4.673  0.6398 -0.7012 -0.7836
   21MOL    C2721667   2.781   5.091   4.864  0.2141 -0.3110 -0.5324
   21MOL    C2821668   2.696   4.979   4.849  0.4441 -0.0267 -0.0088
   21MOL    C2921669   2.692   4.541   4.746  0.1784 -0.9228  0.0083
   21MOL    C3021670   2.735   4.412   4.735  0.6471 -0.1187  0.5711
   21MOL    C3121671   2.549   4.142   4.768 -0.4110 -0.1399 -0.0319
   21MOL    C3221672   2.450   4.072   4.701  0.2744 -0.0993  0.3320
   21MOL    H3321673   2.609   3.776   4.650  1.5138  0.9761 -0.4866
   21MOL    H3421674   2.788   3.900   4.760 -1.3361 -1.4299  1.6989
   21MOL    H3521675   2.804   4.355   5.057  1.0941  1.8618  1.1297
   21MOL    H3621676   2.730   4.613   5.076 -1.4719 -0.2053  0.6893
   21MOL    H3721677   2.909   4.739   4.965 -0.6813 -0.4612  0.6560
   21MOL    H3821678   3.051   4.926   4.991  0.7058  2.2633 -1.9172
   21MOL    H3921679   2.959   5.228   5.131 -0.5369  2.1246  0.4185
   21MOL    H4021680   2.845   5.289   5.017 -0.9960 -0.4684  3.0856
   21MOL    H4121681   2.992   5.375   5.048 -1.0658  0.1607  0.3340
   21MOL    H4221682   3.180   5.077   4.884  1.7883  1.1170 -0.7543
   21MOL    H4321683   3.201   5.247   4.956 -2.2989  1.2613  0.5391
   21MOL    H4421684   3.158   5.107   5.051 -0.3538  0.6780 -0.2678
   21MOL    H4521685   2.927   5.438   4.846 -1.4944 -0.5934  0.1618
   21MOL    H4621686   2.898   5.517   4.592 -1.2257 -0.5667  2.4583
   21MOL    H4721687   3.032   5.165   4.448  2.6991  3.1684 -1.1066
   21MOL    H4821688   3.091   5.075   4.688 -1.5850 -1.3670  1.3202
   21MOL    H4921689   2.757   5.190   4.828 -0.0237 -0.6113 -1.2148
   21MOL    H5021690   2.594   5.000   4.820  1.2362  2.9065 -0.7630
   21MOL    H5121691   2.663   4.594   4.657  0.6344 -0.7483 -0.0325
   21MOL    H5221692   2.729   4.354   4.644 -2.7869 -0.8321  1.1905
   21MOL    H5321693   2.526   4.240   4.806  0.4499  0.7719 -1.8037
   21MOL    H5421694   2.355   4.124   4.700  0.9196  1.0964  0.7745
   21MOL    H5521695   2.374   3.886   4.636 -0.4497 -0.8115  2.3846
   21MOL    C5621696   3.038   5.479   4.344 -0.3515 -0.2298  0.0876
   21MOL    C5721697   2.991   5.607   4.310  0.0658  0.6101 -0.5208
   21MOL    C5821698   3.085   5.701   4.273 -0.3274 -0.2570  0.2376
   21MOL    C5921699   3.220   5.672   4.244  1.2684 -0.5310  0.2937
   21MOL    S6021700   3.329   5.802   4.186  0.1623  0.0345  0.2893
   21MOL    O6121701   3.428   5.832   4.290  0.9300  0.0350 -0.0818
   21MOL    O6221702   3.248   5.914   4.129  0.6074 -0.2546 -0.1876
   21MOL    C6321703   3.419   5.726   4.057  0.4555 -0.4771  0.4462
   21MOL    C6421704   3.346   5.682   3.941  0.3339  0.5513  0.2212
   21MOL    C6521705   3.416   5.618   3.839 -0.4239 -0.0147 -0.3217
   21MOL    C6621706   3.556   5.609   3.846 -0.4427  0.1892 -0.5276
   21MOL    O6721707   3.613   5.530   3.755 -0.1198  0.5126 -0.3252
   21MOL    C6821708   3.724   5.455   3.795 -0.0064  1.1855 -0.4389
   21MOL    C6921709   3.847   5.472   3.719 -0.2853  0.3829 -0.1471
   21MOL    C7021710   3.949   5.376   3.742  0.4614 -0.2891  0.3768
   21MOL    C7121711   3.938   5.270   3.836 -0.3273 -0.4358  0.4886
   21MOL    C7221712   4.056   5.171   3.845  0.6054 -0.2356  0.1232
   21MOL    C7321713   4.026   5.046   3.944 -0.0555 -0.2682 -0.1445
   21MOL    C7421714   4.069   5.105   3.708 -0.1405  0.1547  0.1053
   21MOL    C7521715   4.175   5.246   3.894  0.3310 -0.6488  0.3621
   21MOL    C7621716   4.174   5.313   4.013  0.2062  0.5320  0.1313
   21MOL    C7721717   4.287   5.385   4.058 -0.4144 -0.6980 -0.3225
   21MOL    C7821718   4.398   5.404   3.978  0.7831 -0.0474 -0.5757
   21MOL    O7921719   4.498   5.483   4.029 -0.3553  0.4375  0.1241
   21MOL    C8021720   4.403   5.343   3.854 -0.3294  0.5754  0.5505
   21MOL    C8121721   4.294   5.261   3.812 -0.1558 -0.3582 -0.0970
   21MOL    C8221722   3.819   5.260   3.914  0.2465 -0.4981 -0.3929
   21MOL    C8321723   3.707   5.347   3.890  0.3038  0.3688 -0.6671
   21MOL    C8421724   3.631   5.666   3.949  0.0767  0.6298  0.9071
   21MOL    C8521725   3.560   5.724   4.054  0.1649 -0.2605  0.6163
   21MOL    C8621726   3.266   5.540   4.266 -0.3827 -0.1306  0.1487
   21MOL    C8721727   3.171   5.441   4.318  0.5425  0.1804  0.0383
   21MOL    H8821728   2.891   5.642   4.330 -0.9025 -3.0182  1.3736
   21MOL    H8921729   3.055   5.800   4.242 -1.7395 -1.6731 -3.0770
   21MOL    H9021730   3.238   5.691   3.939  0.4190  1.5109 -1.2507
   21MOL    H9121731   3.367   5.565   3.759  1.0810 -3.8378  1.1874
   21MOL    H9221732   3.847   5.556   3.651 -0.2527 -0.0889 -0.7259
   21MOL    H9321733   4.035   5.390   3.678 -0.9482 -0.7377 -1.6733
   21MOL    H9421734   3.951   4.977   3.906  0.8104 -1.1396 -0.2740
   21MOL    H9521735   4.002   5.065   4.049  1.2429 -1.7215  0.4335
   21MOL    H9621736   4.119   4.991   3.959  0.6342  0.5758 -1.2322
   21MOL    H9721737   4.098   5.170   3.626 -0.7993  1.2544  0.7397
   21MOL    H9821738   4.139   5.022   3.721  0.4417  0.2657 -2.2260
   21MOL    H9921739   3.986   5.042   3.677  0.9907 -0.4448 -1.7909
   21MOL   H10021740   4.087   5.309   4.077 -0.6641  0.7315 -1.0221
   21MOL   H10121741   4.277   5.435   4.153  0.9664  1.1073 -1.0898
   21MOL   H10221742   4.487   5.347   3.786 -0.4009 -1.4263  0.3096
   21MOL   H10321743   4.304   5.209   3.719  0.8312  2.9831 -1.9578
   21MOL   H10421744   3.807   5.168   3.969  0.2444 -0.0102  0.4310
   21MOL   H10521745   3.619   5.328   3.950  0.4649  0.9700 -0.2250
   21MOL   H10621746   3.738   5.651   3.953 -0.2688 -2.7548 -0.6714
   21MOL   H10721747   3.616   5.766   4.137  1.8406  0.6111 -0.9183
   21MOL   H10821748   3.371   5.523   4.248 -0.1532  0.8948  0.4963
   21MOL   H10921749   3.212   5.343   4.338  0.1218  0.3678  1.9740
   21MOL   C11021750   4.547   5.587   3.961  0.1186  0.4218 -0.0225
   21MOL   C11121751   4.683   5.613   3.939 -0.1042  0.0380  0.2278
   21MOL   C11221752   4.722   5.716   3.852 -0.2628  0.0203 -0.4343
   21MOL   C11321753   4.623   5.795   3.791 -0.2158  1.0630 -0.1478
   21MOL   S11421754   4.667   5.932   3.684  0.4773 -0.3259  0.2412
   21MOL   O11521755   4.546   5.974   3.616  0.1641 -0.1722 -0.0659
   21MOL   O11621756   4.785   5.895   3.604  0.0032  0.1623  0.1741
   21MOL   C11721757   4.718   6.057   3.803 -0.0481 -1.1762 -0.3332
   21MOL   C11821758   4.820   6.146   3.771 -0.0887 -0.5386  0.1486
   21MOL   C11921759   4.869   6.235   3.867 -0.0965 -0.1628 -0.3022
   21MOL   C12021760   4.800   6.241   3.993  0.1756  0.9699  0.3142
   21MOL   O12121761   4.836   6.333   4.085 -0.5721  0.0993  0.4280
   21MOL   C12221762   4.958   6.318   4.148  0.0224  0.1324 -0.2087
   21MOL   C12321763   5.068   6.409   4.118  0.1899 -0.0789 -0.4778
   21MOL   C12421764   5.197   6.383   4.158 -1.1573  0.0278  0.2233
   21MOL   C12521765   5.230   6.264   4.224  0.7476 -0.3955 -0.1585
   21MOL   C12621766   5.377   6.227   4.245 -0.9289 -0.3618  0.2074
   21MOL   C12721767   5.386   6.152   4.379  0.1277  0.3393 -0.5102
   21MOL   C12821768   5.417   6.128   4.134 -0.7617  0.1348  0.1279
   21MOL   C12921769   5.476   6.339   4.262 -0.2745  0.0179  0.4980
   21MOL   C13021770   5.453   6.436   4.358 -1.1571 -0.3801  0.2351
   21MOL   C13121771   5.546   6.541   4.382 -0.0206  0.2656  0.6687
   21MOL   C13221772   5.669   6.549   4.309  0.1166 -0.3045 -0.1194
   21MOL   O13321773   5.767   6.643   4.335 -0.1191 -0.1082 -0.7030
   21MOL   C13421774   5.687   6.458   4.211 -0.3844 -0.2207  0.1706
   21MOL   C13521775   5.596   6.347   4.186 -0.2319 -0.5670 -0.0757
   21MOL   C13621776   5.122   6.176   4.254  0.5471 -0.0680 -0.5687
   21MOL   C13721777   4.988   6.200   4.217 -0.3276  0.1822 -0.2301
   21MOL   C13821778   4.689   6.164   4.025  0.4494 -0.6497  0.6005
   21MOL   C13921779   4.647   6.069   3.928 -0.5779  0.2489  0.2164
   21MOL   C14021780   4.486   5.783   3.820 -0.2573  0.1615  0.2386
   21MOL   C14121781   4.448   5.675   3.905 -0.3862  0.5951 -0.2114
   21MOL   H14221782   4.748   5.537   3.978  0.8006  1.9723  2.6211
   21MOL   H14321783   4.824   5.722   3.818 -0.6471 -0.7108 -1.7478
   21MOL   H14421784   4.873   6.130   3.678 -0.9128  1.1375 -0.6134
   21MOL   H14521785   4.951   6.297   3.833 -1.0557  1.3180  0.0369
   21MOL   H14621786   5.057   6.501   4.061 -0.9121  0.8772  1.2412
   21MOL   H14721787   5.272   6.454   4.128 -1.7305  0.5237 -0.0438
   21MOL   H14821788   5.346   6.051   4.385  0.1087  0.2513 -1.8400
   21MOL   H14921789   5.346   6.197   4.469 -0.4639 -1.8319  0.3465
   21MOL   H15021790   5.491   6.136   4.405 -0.4244 -0.0026  1.5627
   21MOL   H15121791   5.355   6.039   4.147 -1.5072  0.3380 -1.7932
   21MOL   H15221792   5.399   6.171   4.035 -1.6805  0.2003  0.3146
   21MOL   H15321793   5.521   6.098   4.139 -0.4714  1.1914  0.4907
   21MOL   H15421794   5.364   6.436   4.420 -2.3245 -0.7145 -1.4233
   21MOL   H15521795   5.532   6.617   4.457 -1.3357  0.0210  0.6794
   21MOL   H15621796   5.767   6.461   4.139 -0.6218  2.6555 -0.0385
   21MOL   H15721797   5.626   6.282   4.105 -1.0630  0.3023 -1.0937
   21MOL   H15821798   5.139   6.092   4.320  1.6100  0.5018 -0.0979
   21MOL   H15921799   4.915   6.127   4.251 -0.1519  0.3664  0.5505
   21MOL   H16021800   4.634   6.177   4.117  0.9016 -1.4705  0.9904
   21MOL   H16121801   4.555   6.013   3.943  1.0576 -1.8318  3.1688
   21MOL   H16221802   4.412   5.850   3.777  0.4071  0.9074  0.2544
   21MOL   H16321803   4.341   5.659   3.906 -0.5726  1.8476 -0.1246
   21MOL   C16421804   5.869   6.605   4.424 -0.1690  0.4503 -0.6448
   21MOL   C16521805   5.993   6.676   4.423  0.0184  0.8274  0.0237
   21MOL   C16621806   6.096   6.633   4.498  0.5433 -0.3797  0.1265
   21MOL   C16721807   6.084   6.523   4.588  0.2112 -0.4519 -0.4670
   21MOL   S16821808   6.211   6.493   4.706 -0.6132 -0.3749  0.3959
   21MOL   O16921809   6.187   6.594   4.807 -0.2230 -0.1420 -0.5751
   21MOL   O17021810   6.344   6.497   4.636  0.6334  0.3298  0.2645
   21MOL   C17121811   6.191   6.324   4.777 -0.0127  0.2251 -0.5760
   21MOL   C17221812   6.168   6.299   4.919 -0.1888 -0.0200  0.0039
   21MOL   C17321813   6.163   6.171   4.969 -0.1457 -0.3797 -0.8638
   21MOL   C17421814   6.184   6.062   4.887  0.3584  0.0436 -0.5685
   21MOL   O17521815   6.173   5.929   4.931 -0.0076 -0.6550  0.8293
   21MOL   C17621816   6.055   5.865   4.896 -0.3309 -1.0289  0.5347
   21MOL   C17721817   6.060   5.730   4.858 -0.1607 -0.1593  0.5684
   21MOL   C17821818   5.940   5.657   4.845 -0.5698 -0.4376  0.7349
   21MOL   C17921819   5.812   5.715   4.871 -1.0028 -0.6142  0.2355
   21MOL   C18021820   5.681   5.640   4.860 -0.1021  0.5620 -0.9358
   21MOL   C18121821   5.635   5.666   4.711 -0.1641 -0.9597 -0.6794
   21MOL   C18221822   5.693   5.489   4.882 -0.6352 -0.0119  0.0889
   21MOL   C18321823   5.579   5.699   4.962  0.4943  0.4229  0.0145
   21MOL   C18421824   5.587   5.661   5.098  0.1152  0.3824 -0.1933
   21MOL   C18521825   5.494   5.717   5.191  0.9416 -0.7802  0.4838
   21MOL   C18621826   5.383   5.793   5.143 -0.2981 -0.5908 -0.0330
   21MOL   O18721827   5.291   5.848   5.225 -0.2950 -0.1341 -0.3516
   21MOL   C18821828   5.369   5.826   5.009  0.5412  0.3821  0.5331
   21MOL   C18921829   5.466   5.773   4.918  0.2699 -0.2335 -0.6237
   21MOL   C19021830   5.811   5.855   4.904 -0.5842  0.9591 -0.1058
   21MOL   C19121831   5.929   5.930   4.918 -0.3252  0.1388 -0.1160
   21MOL   C19221832   6.227   6.083   4.756  0.2478 -0.2768 -0.2347
   21MOL   C19321833   6.226   6.212   4.699 -0.1984  0.7173 -0.3594
   21MOL   C19421834   5.968   6.449   4.583  0.0441 -0.5976 -0.2177
   21MOL   C19521835   5.856   6.485   4.503  0.4374  1.1038  0.6263
   21MOL   H19621836   5.999   6.772   4.374  0.4583  1.8888  2.1066
   21MOL   H19721837   6.190   6.684   4.519 -0.2418  1.2033 -0.0905
   21MOL   H19821838   6.149   6.383   4.983 -2.2855 -0.7279  0.3448
   21MOL   H19921839   6.147   6.150   5.074 -1.2252  3.6899 -0.1395
   21MOL   H20021840   6.153   5.682   4.833 -1.7147 -1.8796 -2.2554
   21MOL   H20121841   5.945   5.554   4.812  0.0794  0.0690 -0.8122
   21MOL   H20221842   5.541   5.613   4.698 -0.3741 -0.8440  0.3814
   21MOL   H20321843   5.708   5.617   4.646  0.0974 -1.1820 -0.2143
   21MOL   H20421844   5.621   5.773   4.698  0.9783 -0.6209  0.6972
   21MOL   H20521845   5.746   5.461   4.791  0.3240  2.9878 -0.3628
   21MOL   H20621846   5.757   5.465   4.967  0.3797 -0.7774 -0.8777
   21MOL   H20721847   5.597   5.439   4.891 -0.7603  0.3434  0.7548
   21MOL   H20821848   5.678   5.606   5.121  0.1599  0.5015 -0.0842
   21MOL   H20921849   5.507   5.693   5.296 -0.2312  0.8650  1.0144
   21MOL   H21021850   5.292   5.886   4.963  1.5418 -0.4899 -2.4268
   21MOL   H21121851   5.451   5.790   4.813 -1.5445  0.8569 -0.2158
   21MOL   H21221852   5.717   5.899   4.934 -0.1561  0.6031  1.7935
   21MOL   H21321853   5.924   6.034   4.945  1.4498  0.4298 -0.7920
   21MOL   H21421854   6.261   6.006   4.688 -1.1745 -0.9901 -0.1442
   21MOL   H21521855   6.243   6.231   4.594 -1.6527 -0.7980 -0.8931
   21MOL   H21621856   5.948   6.366   4.648  0.4859 -1.2252 -0.8710
   21MOL   H21721857   5.768   6.424   4.519  0.4819  0.3757 -1.7508
   21MOL   C21821858   5.332   5.962   5.299 -0.6727 -0.2422  0.2199
   21MOL   C21921859   5.241   6.015   5.386  0.7373 -0.0916  0.8481
   21MOL   C22021860   5.271   6.127   5.458  0.1573 -0.9285  0.0093
   21MOL   C22121861   5.395   6.187   5.455  0.7189 -0.3797 -0.0880
   21MOL   S22221862   5.429   6.327   5.554 -0.2096 -0.0402 -0.1524
   21MOL   O22321863   5.364   6.301   5.684  0.0076  0.2823  0.1730
   21MOL   O22421864   5.383   6.442   5.477  0.3355 -0.5347  0.0670
   21MOL   C22521865   5.606   6.330   5.581 -0.5670 -0.0636 -0.0158
   21MOL   C22621866   5.662   6.249   5.680 -0.0802  0.8114  0.6844
   21MOL   C22721867   5.805   6.241   5.683  0.6140  0.4227  0.3783
   21MOL   C22821868   5.888   6.317   5.599 -0.3193  0.3424  0.2718
   21MOL   O22921869   6.016   6.324   5.626  0.1283  0.4164 -0.2789
   21MOL   C23021870   6.097   6.402   5.543  0.1365 -1.0828  0.1426
   21MOL   C23121871   6.123   6.542   5.572 -0.1161  0.3985 -0.0103
   21MOL   C23221872   6.201   6.622   5.488 -0.5173  0.4350  0.1753
   21MOL   C23321873   6.262   6.561   5.371  0.0716 -0.5394  0.1775
   21MOL   C23421874   6.359   6.648   5.280  0.4005 -0.0510  0.2774
   21MOL   C23521875   6.269   6.746   5.205  0.0376 -0.2543 -0.5328
   21MOL   C23621876   6.454   6.734   5.368  0.1208  0.3391  0.4487
   21MOL   C23721877   6.442   6.565   5.179 -0.6475 -0.4933 -0.3794
   21MOL   C23821878   6.426   6.565   5.038  0.6268  0.3205  0.2715
   21MOL   C23921879   6.511   6.492   4.951 -0.0764 -0.0570  0.2013
   21MOL   C24021880   6.607   6.411   5.008 -0.0021  0.5818 -0.0927
   21MOL   O24121881   6.703   6.350   4.930 -0.0848 -0.5843 -0.2541
   21MOL   C24221882   6.626   6.405   5.150 -0.1155 -0.4289  0.1499
   21MOL   C24321883   6.538   6.480   5.232 -0.2295  0.0580 -0.0365
   21MOL   C24421884   6.242   6.415   5.353  0.5371 -0.7034  0.9140
   21MOL   C24521885   6.165   6.340   5.438  0.0457  0.0843 -0.1312
   21MOL   C24621886   5.827   6.391   5.495 -0.0939  0.2002 -0.0428
   21MOL   C24721887   5.688   6.398   5.482 -0.6279 -0.2779 -0.0291
   21MOL   C24821888   5.491   6.129   5.380 -0.5769  0.2862  0.2487
   21MOL   C24921889   5.467   6.014   5.303  0.4151 -0.2140  0.0150
   21MOL   H25021890   5.145   5.965   5.398  1.1840 -0.6028  2.4263
   21MOL   H25121891   5.209   6.182   5.527  0.8426 -0.4768  0.2755
   21MOL   H25221892   5.603   6.190   5.750  1.5559 -0.1295  1.2849
   21MOL   H25321893   5.854   6.183   5.760  0.3906  0.7585  0.7801
   21MOL   H25421894   6.076   6.590   5.656  0.5693  2.3364 -0.7043
   21MOL   H25521895   6.203   6.728   5.508 -2.6630  0.4856  0.3015
   21MOL   H25621896   6.193   6.701   5.142 -1.4264 -0.0776  1.0602
   21MOL   H25721897   6.328   6.808   5.138 -0.0766  0.4659  0.0317
   21MOL   H25821898   6.231   6.813   5.282  1.5783  1.3602 -1.1293
   21MOL   H25921899   6.521   6.673   5.428  1.3235 -0.9175 -2.1005
   21MOL   H26021900   6.514   6.797   5.302  1.4412 -0.7488  0.5908
   21MOL   H26121901   6.408   6.798   5.443 -0.8142 -1.2641  1.2668
   21MOL   H26221902   6.350   6.630   4.996  1.4810  2.1289  1.4565
   21MOL   H26321903   6.510   6.513   4.845  2.0056  0.9774  0.3553
   21MOL   H26421904   6.696   6.337   5.195  1.4103  0.8625 -0.2377
   21MOL   H26521905   6.550   6.466   5.339 -0.5509  0.6244  0.0744
   21MOL   H26621906   6.282   6.365   5.265  0.2586  1.2550 -0.3467
   21MOL   H26721907   6.138   6.239   5.412 -0.1565 -0.0578  0.6415
   21MOL   H26821908   5.882   6.452   5.425 -2.1761  0.2691 -1.7076
   21MOL   H26921909   5.645   6.447   5.396  1.5939  0.8191 -0.5536
   21MOL   H27021910   5.594   6.160   5.373 -0.5172 -0.1028 -0.6912
   21MOL   H27121911   5.552   5.969   5.254 -0.6891 -2.8072  0.4140
   21MOL   C27221912   6.665   6.302   4.807  0.0415  0.3147 -0.0355
   21MOL   C27321913   6.593   6.181   4.800  0.4849  0.0410 -0.6990
   21MOL   C27421914   6.546   6.137   4.676  0.2994  0.0731 -0.9029
   21MOL   C27521915   6.569   6.205   4.556 -0.2893 -0.4234  0.2783
   21MOL   S27621916   6.508   6.136   4.405  0.5313  0.2190  0.0389
   21MOL   O27721917   6.365   6.168   4.394  0.0019 -0.5173 -0.2850
   21MOL   O27821918   6.551   5.996   4.411  0.1910 -0.3873 -0.0380
   21MOL   C27921919   6.598   6.218   4.280  0.0892  0.4902  0.0620
   21MOL   C28021920   6.558   6.348   4.245  0.2587 -0.0598 -0.0600
   21MOL   C28121921   6.610   6.417   4.134 -0.1053 -0.3472 -0.3226
   21MOL   C28221922   6.713   6.353   4.063 -0.4696  0.1474 -0.3414
   21MOL   O28321923   6.769   6.399   3.947 -0.3680  0.0141  0.3213
   21MOL   C28421924   6.779   6.538   3.933 -0.4166  0.4018  0.0755
   21MOL   C28521925   6.697   6.598   3.832 -0.4798 -0.3188 -0.1689
   21MOL   C28621926   6.710   6.732   3.806  1.1181  0.8146 -0.7619
   21MOL   C28721927   6.793   6.818   3.880 -0.2716 -0.0480  0.1378
   21MOL   C28821928   6.772   6.971   3.876 -0.2017  0.5138  0.3755
   21MOL   C28921929   6.650   6.994   3.968  0.6221  0.1648  0.4548
   21MOL   C29021930   6.886   7.046   3.944  0.0400  0.4983  0.4692
   21MOL   C29121931   6.759   7.032   3.732  0.0115  0.3349 -0.0712
   21MOL   C29221932   6.860   7.007   3.642 -0.4498 -0.3589 -0.5461
   21MOL   C29321933   6.870   7.076   3.520  0.6443 -0.0812 -0.7881
   21MOL   C29421934   6.763   7.161   3.482 -0.1438  0.5255 -0.3033
   21MOL   O29521935   6.777   7.216   3.358 -0.7346 -0.1976  0.5443
   21MOL   C29621936   6.654   7.181   3.569  0.0080  0.5285 -0.1802
   21MOL   C29721937   6.648   7.118   3.696 -0.3116 -0.3156  0.0594
   21MOL   C29821938   6.878   6.754   3.971 -0.0180 -0.3269  0.1943
   21MOL   C29921939   6.880   6.617   3.993  0.2720  0.0992 -0.0315
   21MOL   C30021940   6.759   6.227   4.096  1.0386 -0.0099 -0.1626
   21MOL   C30121941   6.704   6.157   4.207 -0.2450  0.0546  1.0490
   21MOL   C30221942   6.648   6.323   4.558  0.1449  0.3044 -0.5527
   21MOL   C30321943   6.693   6.371   4.689 -0.3146  0.4773 -0.0532
   21MOL   H30421944   6.568   6.128   4.890 -2.1691  0.7383 -0.9799
   21MOL   H30521945   6.485   6.048   4.678 -0.1460  0.3969  0.4579
   21MOL   H30621946   6.469   6.386   4.292 -0.3532 -2.3245  0.6906
   21MOL   H30721947   6.570   6.512   4.105 -1.8652 -1.5290 -1.8754
   21MOL   H30821948   6.632   6.530   3.780  0.4292 -1.7500  0.5150
   21MOL   H30921949   6.631   6.775   3.746 -0.1601  0.2427  0.4847
   21MOL   H31021950   6.641   7.099   3.999 -1.2033  0.8674 -2.2122
   21MOL   H31121951   6.662   6.954   4.068 -0.6551  3.5248  2.0589
   21MOL   H31221952   6.557   6.950   3.932  0.4314 -1.3340  2.6835
   21MOL   H31321953   6.880   7.154   3.932 -0.1148  0.6150  1.5702
   21MOL   H31421954   6.886   7.027   4.051 -2.0007 -1.5415  0.1708
   21MOL   H31521955   6.974   7.008   3.893  0.6275 -1.4457  2.8394
   21MOL   H31621956   6.947   6.948   3.666 -0.2749  0.4139  0.7546
   21MOL   H31721957   6.957   7.051   3.460 -0.2991 -0.1840 -2.1417
   21MOL   H31821958   6.569   7.243   3.546  0.8020  0.8740 -2.2483
   21MOL   H31921959   6.569   7.149   3.763  0.0382  2.2247 -0.6348
   21MOL   H32021960   6.957   6.810   4.019  1.4790 -1.1344 -1.2745
   21MOL   H32121961   6.952   6.570   4.059  0.6477  1.3340  0.4390
   21MOL   H32221962   6.841   6.188   4.038 -0.7202  0.1150 -2.8747
   21MOL   H32321963   6.737   6.055   4.221 -1.6274 -0.4226  0.8432
   21MOL   H32421964   6.664   6.385   4.471  0.5501  1.9080  0.6395
   21MOL   H32521965   6.741   6.467   4.688 -1.5868  1.1616  1.6733
   21MOL   C32621966   6.796   7.349   3.347  0.1743  0.3136 -0.3272
   21MOL   C32721967   6.921   7.405   3.373 -0.2085  0.3878  0.2324
   21MOL   C32821968   6.937   7.549   3.380 -0.1812 -0.1071  0.0791
   21MOL   C32921969   6.825   7.636   3.370  0.3171 -0.1602  0.0931
   21MOL   S33021970   6.846   7.819   3.401 -0.1475 -0.3540  0.4842
   21MOL   O33121971   6.853   7.878   3.267  0.3892  0.8891 -0.5961
   21MOL   O33221972   6.953   7.842   3.500  0.0771 -0.0970 -0.1568
   21MOL   C33321973   6.698   7.877   3.471  0.3535  0.3400  0.2049
   21MOL   C33421974   6.650   8.008   3.458  1.0306  0.0434  0.5262
   21MOL   C33521975   6.531   8.051   3.526 -0.2610 -0.4497 -0.0530
   21MOL   C33621976   6.453   7.957   3.596  0.1836 -1.1436  0.5781
   21MOL   O33721977   6.333   7.998   3.654 -0.7353  0.5569  1.0560
   21MOL   C33821978   6.341   8.074   3.768 -0.2176 -0.8413  0.4963
   21MOL   C33921979   6.376   8.007   3.885  0.3936  0.0296  0.4690
   21MOL   C34021980   6.366   8.069   4.011  0.2817  0.2290 -0.0639
   21MOL   C34121981   6.328   8.209   4.011  0.6998 -0.1901 -0.2650
   21MOL   C34221982   6.312   0.029   4.143  0.8118  0.0354 -0.2165
   21MOL   C34321983   6.251   0.172   4.117  0.1793 -0.1649 -1.0334
   21MOL   C34421984   6.205   8.205   4.230  0.2805  0.3085  0.0459
   21MOL   C34521985   6.452   0.050   4.211 -0.0280 -0.0392  1.1635
   21MOL   C34621986   6.552   0.103   4.130  0.4894 -0.6354  0.2332
   21MOL   C34721987   6.679   0.126   4.181  0.1281  0.3006  0.6113
   21MOL   C34821988   6.712   0.099   4.316  0.3877  0.0258 -0.5541
   21MOL   O34921989   6.849   0.112   4.337  0.3152  0.5065  0.6220
   21MOL   C35021990   6.616   0.046   4.401  0.2951  0.3909 -0.2978
   21MOL   C35121991   6.484   0.026   4.348 -0.4168 -0.2347  0.0482
   21MOL   C35221992   6.290   0.014   3.887  0.2146 -0.5628  0.2672
   21MOL   C35321993   6.287   8.203   3.768 -0.4119  0.2530 -0.1619
   21MOL   C35421994   6.500   7.826   3.616 -0.4094  0.1674  0.1792
   21MOL   C35521995   6.621   7.786   3.553 -0.3711 -0.1419  0.3940
   21MOL   C35621996   6.702   7.579   3.333 -0.0438  0.4953 -0.3797
   21MOL   C35721997   6.686   7.437   3.329  0.3474 -0.3165  0.4957
   21MOL   H35821998   7.009   7.343   3.386 -1.3833 -2.0911 -3.0645
   21MOL   H35921999   7.034   7.588   3.409  0.8627 -0.4171 -2.8967
   21MOL   H36022000   6.716   8.086   3.422 -1.2230  1.2733 -1.0798
   21MOL   H36122001   6.492   8.151   3.520 -0.1106 -0.4697 -1.7080
   21MOL   H36222002   6.393   7.901   3.875  2.8375  0.4458 -0.1295
   21MOL   H36322003   6.389   8.008   4.096 -1.3384 -3.0443 -1.8644
   21MOL   H36422004   6.304   0.231   4.042  1.8232 -1.9045 -1.2971
   21MOL   H36522005   6.256   0.226   4.211  2.7475  0.0956 -1.2743
   21MOL   H36622006   6.148   0.164   4.082 -1.3573  2.3581  2.6685
   21MOL   H36722007   6.195   0.014   4.319  0.6295  1.6606 -0.8518
   21MOL   H36822008   6.112   8.185   4.176  1.5455 -0.7739 -1.7837
   21MOL   H36922009   6.243   8.108   4.263  2.2803  0.5799 -1.3725
   21MOL   H37022010   6.533   0.116   4.025  1.6431  0.8934  0.1887
   21MOL   H37122011   6.762   0.139   4.114  0.2933  0.3158  0.8173
   21MOL   H37222012   6.626   0.025   4.506  0.9748 -0.5388 -0.5427
   21MOL   H37322013   6.404   8.249   4.414 -0.4667 -2.9816 -1.1997
   21MOL   H37422014   6.260   0.117   3.871  3.1799  0.3952  0.6784
   21MOL   H37522015   6.257   0.003   3.679  0.9443  0.0588 -0.7428
   21MOL   H37622016   6.446   7.752   3.673 -1.5224 -0.0113 -1.0689
   21MOL   H37722017   6.657   7.687   3.576 -0.9067 -0.4903 -0.2441
   21MOL   H37822018   6.620   7.649   3.326 -1.0078 -0.6815 -1.2745
   21MOL   H37922019   6.592   7.391   3.303 -0.0793  0.6405  0.3092
   21MOL   C38022020   6.885   0.171   4.456 -0.0150 -0.9828 -0.7902
   21MOL   C38122021   6.996   0.122   4.520 -0.1527 -0.3996  0.1393
   21MOL   C38222022   7.029   0.164   4.651 -0.6487 -0.3929  0.6556
   21MOL   C38322023   6.955   0.268   4.710  0.3031 -0.9025  0.4405
   21MOL   S38422024   6.995   0.329   4.872  0.4245  0.2952  0.3026
   21MOL   O38522025   7.077   0.451   4.848 -0.1055 -0.2523  0.2759
   21MOL   O38622026   7.054   0.219   4.946  0.6344 -0.0781  1.2656
   21MOL   C38722027   6.846   0.385   4.953 -0.3405  0.5493  0.2427
   21MOL   C38822028   6.820   0.517   4.986  0.2790  0.0367  1.1622
   21MOL   C38922029   6.704   0.548   5.054  0.4191 -0.2087  0.2862
   21MOL   C39022030   6.604   0.455   5.080  0.1655  0.0026 -0.3848
   21MOL   O39122031   6.488   0.489   5.145  0.2788 -0.0341  0.1969
   21MOL   C39222032   6.501   0.561   5.264  0.0784 -0.0056 -0.3572
   21MOL   C39322033   6.477   0.694   5.266 -0.1107  0.4982  0.2767
   21MOL   C39422034   6.499   0.786   5.368 -0.1986  0.6139 -0.5885
   21MOL   C39522035   6.559   0.735   5.486  0.5274  0.6612  0.4021
   21MOL   C39622036   6.604   0.831   5.598  0.6810 -0.6541 -0.4943
   21MOL   C39722037   6.574   0.986   5.570 -0.0746  1.1165 -0.8612
   21MOL   C39822038   6.519   0.797   5.737 -0.7596 -0.1112  0.3010
   21MOL   C39922039   6.756   0.819   5.625 -1.2516 -0.2928  0.2252
   21MOL   C40022040   6.847   0.749   5.539  0.0275  0.1411 -0.1062
   21MOL   C40122041   6.981   0.738   5.572  0.1085  0.5301  0.1447
   21MOL   C40222042   7.029   0.802   5.686  0.2454  0.2490 -0.2894
   21MOL   O40322043   7.167   0.798   5.717 -0.0770 -0.4792  0.0496
   21MOL   C40422044   6.946   0.885   5.767  0.4303  0.0160  0.3032
   21MOL   C40522045   6.813   0.884   5.740 -0.0851  0.8102  0.1069
   21MOL   C40622046   6.574   0.593   5.495 -0.3644  0.6934  0.1259
   21MOL   C40722047   6.559   0.508   5.381  0.3905  0.4946 -0.5176
   21MOL   C40822048   6.620   0.322   5.033 -0.1412  0.0715  0.4927
   21MOL   C40922049   6.742   0.289   4.972  0.1542  0.4581  0.4513
   21MOL   C41022050   6.855   0.339   4.636  0.7298 -0.3021 -0.2835
   21MOL   C41122051   6.821   0.288   4.506 -0.4775 -0.0934  0.5433
   21MOL   H41222052   7.048   0.034   4.484  0.4452 -0.1420  0.3627
   21MOL   H41322053   7.096   0.123   4.725  2.0565  0.6952 -1.0958
   21MOL   H41422054   6.901   0.589   4.976 -2.8007  3.3254 -1.6958
   21MOL   H41522055   6.709   0.649   5.093 -1.5483 -0.8072  2.1689
   21MOL   H41622056   6.434   0.737   5.177 -1.3249 -1.4408 -0.1004
   21MOL   H41722057   6.487   0.890   5.340  3.4283  1.1371 -0.5447
   21MOL   H41822058   6.622   1.019   5.478 -0.4872  2.5505 -0.5736
   21MOL   H41922059   6.615   1.045   5.652 -0.1941  0.2433 -0.1612
   21MOL   H42022060   6.467   1.003   5.552 -0.0431  0.6687 -1.4651
   21MOL   H42122061   6.412   0.784   5.718 -0.8200 -0.4069  0.8335
   21MOL   H42222062   6.560   0.703   5.775  0.5302 -0.0325 -0.8296
   21MOL   H42322063   6.535   0.852   5.829 -3.7693  0.3808  0.5615
   21MOL   H42422064   6.814   0.707   5.444 -2.1662  1.9830 -0.1995
   21MOL   H42522065   7.061   0.699   5.512  1.4337 -2.1034  3.4443
   21MOL   H42622066   6.967   0.928   5.864  2.1769 -1.3766  0.5697
   21MOL   H42722067   6.753   0.936   5.813  0.4294 -1.1514  1.9603
   21MOL   H42822068   6.622   0.548   5.581 -1.3114  2.0636  1.3940
   21MOL   H42922069   6.586   0.404   5.392  0.4282  0.2843 -2.3637
   21MOL   H43022070   6.542   0.248   5.047 -0.1197  0.1596  1.0970
   21MOL   H43122071   6.761   0.192   4.930  0.6416  1.7182 -2.3239
   21MOL   H43222072   6.808   0.422   4.686  3.2492  1.1491 -0.2948
   21MOL   H43322073   6.739   0.335   4.455 -0.2065  0.5988  0.7370
   21MOL   C43422074   7.199   0.672   5.763 -0.2477  0.0893  0.8724
   21MOL   C43522075   7.132   0.619   5.874 -0.5819 -0.5742 -0.2589
   21MOL   C43622076   7.163   0.492   5.929  0.2080  0.2961 -0.1478
   21MOL   C43722077   7.275   0.422   5.880  0.1796 -0.6748  0.2542
   21MOL   S43822078   7.312   0.271   5.967 -0.0525 -0.0411 -0.2762
   21MOL   O43922079   7.192   0.190   5.953 -0.0398  0.1602 -0.3388
   21MOL   O44022080   7.372   0.301   6.096  0.0867  0.2960 -0.0053
   21MOL   C44122081   7.438   0.190   5.874  0.8936  0.3503  0.4370
   21MOL   C44222082   7.576   0.214   5.903  0.5926 -0.3623 -0.2300
   21MOL   C44322083   7.671   0.156   5.823  0.5694  0.1509 -0.0129
   21MOL   C44422084   7.633   0.071   5.719  0.8913  0.0870 -0.0253
   21MOL   O44522085   7.724   0.007   5.642 -0.5658 -0.5791 -0.3731
   21MOL   C44622086   7.816   0.082   5.574 -0.4346  0.0877 -0.4839
   21MOL   C44722087   7.770   0.182   5.494 -0.1342  0.1667  0.3592
   21MOL   C44822088   7.856   0.258   5.420 -0.1212 -0.3662  0.1817
   21MOL   C44922089   7.991   0.216   5.411  0.3894  0.2873  0.0044
   21MOL   C45022090   8.081   0.286   5.311 -0.1640  0.5076  0.9794
   21MOL   C45122091   8.061   0.438   5.300 -0.0320 -0.3950 -0.0378
   21MOL   C45222092   8.234   0.280   5.360  0.0403  0.1026  0.1689
   21MOL   C45322093   8.069   0.230   5.169 -0.3513  0.4032 -0.5491
   21MOL   C45422094   8.163   0.257   5.064 -0.1001 -0.7477 -0.0240
   21MOL   C45522095   8.167   0.180   4.943 -0.4574 -0.8689 -0.2722
   21MOL   C45622096   8.064   0.088   4.930 -0.7413 -0.4044  0.7026
   21MOL   O45722097   8.055   0.021   4.809  0.0917 -0.2293  0.1731
   21MOL   C45822098   7.962   0.069   5.023  0.2236 -0.2892  0.5023
   21MOL   C45922099   7.957   0.144   5.144 -0.0530  0.6446  0.2395
   21MOL   C46022100   8.042   0.110   5.492  0.5554 -0.2370  0.4458
   21MOL   C46122101   7.952   0.045   5.580 -0.4491 -0.1909  0.3999
   21MOL   C46222102   7.496   0.032   5.693 -1.1093  0.2141  0.3187
   21MOL   C46322103   7.397   0.102   5.764  0.6658  0.2870 -0.2008
   21MOL   C46422104   7.349   0.474   5.771  0.0050 -0.4474 -0.1125
   21MOL   C46522105   7.311   0.595   5.710  0.1957  0.1771 -0.5339
   21MOL   H46622106   7.058   0.678   5.926  0.2554 -0.7113  1.1162
   21MOL   H46722107   7.118   0.449   6.017 -5.4957  2.3692 -1.8122
   21MOL   H46822108   7.589   0.280   5.987 -0.6532 -1.1998  0.6297
   21MOL   H46922109   7.774   0.181   5.845  1.0588 -1.8529  0.0761
   21MOL   H47022110   7.664   0.206   5.497  0.0472  1.2144 -1.1150
   21MOL   H47122111   7.809   0.328   5.353 -0.0481 -1.2136 -0.7784
   21MOL   H47222112   8.035   0.487   5.394 -0.6926  2.0997 -1.4831
   21MOL   H47322113   7.973   0.465   5.242 -1.1180 -0.6604  1.4511
   21MOL   H47422114   8.143   0.496   5.260 -0.6745 -0.2638 -1.1924
   21MOL   H47522115   8.243   0.328   5.457 -0.5117  1.1617 -0.2952
   21MOL   H47622116   0.023   0.179   5.364 -2.1898 -0.9168 -0.8819
   21MOL   H47722117   0.055   0.331   5.298 -0.5412 -0.6829 -1.2090
   21MOL   H47822118   8.236   0.336   5.076  1.2873 -1.8390 -1.1525
   21MOL   H47922119   8.232   0.198   4.859 -1.0241  2.9500  0.0278
   21MOL   H48022120   7.879   0.001   5.011  0.1932 -0.1337 -0.1927
   21MOL   H48122121   7.880   0.114   5.213 -1.3334 -1.5050 -2.0544
   21MOL   H48222122   8.147   0.082   5.495  0.4578 -0.6580 -0.1386
   21MOL   H48322123   7.989   8.219   5.644  1.4983 -0.4698 -1.0393
   21MOL   H48422124   7.467   8.224   5.608  0.4662 -0.4641  0.2585
   21MOL   H48522125   7.297   0.083   5.728  0.7731  0.0554 -0.3768
   21MOL   H48622126   7.435   0.416   5.740  0.4570 -0.6266  1.3894
   21MOL   H48722127   7.370   0.621   5.623  0.6180 -2.7676 -1.1534
   21MOL   C48822128   8.120   8.151   4.802  0.4348 -0.4365 -0.5197
   21MOL   C48922129   8.042   8.043   4.847  0.3702  0.3940 -0.2440
   21MOL   C49022130   8.081   7.912   4.835  0.2178 -0.1473 -0.5502
   21MOL   C49122131   8.214   7.887   4.789 -0.1988 -0.1230 -0.0549
   21MOL   S49222132   0.029   7.719   4.765 -0.4130 -0.0278 -0.2577
   21MOL   O49322133   0.161   7.709   4.831  0.3058  0.0321 -0.2180
   21MOL   O49422134   0.023   7.695   4.620 -0.1764 -0.3182 -0.0805
   21MOL   C49522135   8.178   7.601   4.849  0.0420  0.5840 -0.4160
   21MOL   C49622136   8.183   7.610   4.988  0.1560 -0.1092  0.5813
   21MOL   C49722137   8.091   7.538   5.068  0.5334 -1.0452  0.7279
   21MOL   C49822138   8.002   7.450   5.003 -0.1173  0.0104 -0.6721
   21MOL   O49922139   7.916   7.377   5.080  0.8984  0.0157  0.7539
   21MOL   C50022140   7.780   7.390   5.050  0.5654  0.1013 -0.1418
   21MOL   C50122141   7.708   7.274   5.082  0.6871  0.7323  0.0467
   21MOL   C50222142   7.566   7.288   5.098  0.5147  0.5683 -0.3614
   21MOL   C50322143   7.497   7.405   5.062  0.0263 -0.0045  0.1813
   21MOL   C50422144   7.345   7.418   5.069 -0.3409 -0.2148  0.1617
   21MOL   C50522145   7.288   7.356   4.940  0.0875  0.3386 -0.3584
   21MOL   C50622146   7.289   7.324   5.188 -0.2809  0.0892  0.1823
   21MOL   C50722147   7.308   7.565   5.099  0.4016  0.0439 -0.0002
   21MOL   C50822148   7.233   7.639   5.008 -0.5268  0.0268 -0.0577
   21MOL   C50922149   7.201   7.775   5.030 -0.1580 -0.4677  0.0745
   21MOL   C51022150   7.230   7.834   5.150  0.1651  0.0376  0.2714
   21MOL   O51122151   7.201   7.961   5.177  0.4176  0.2804 -0.2790
   21MOL   C51222152   7.307   7.760   5.244  0.1126  0.3894  0.5173
   21MOL   C51322153   7.344   7.628   5.217  0.2303 -0.7247  0.4319
   21MOL   C51422154   7.574   7.513   5.014 -0.0395 -0.8387  0.4106
   21MOL   C51522155   7.712   7.511   5.013 -0.9609 -0.2679 -0.0285
   21MOL   C51622156   8.001   7.434   4.863 -0.0654  0.0188  0.1874
   21MOL   C51722157   8.086   7.514   4.781 -0.1542 -0.4591 -0.2173
   21MOL   C51822158   0.048   7.990   4.753 -0.3031  0.2890 -0.0116
   21MOL   C51922159   8.250   8.126   4.753  0.4262 -0.9506  0.3392
   21MOL   H52022160   7.940   8.053   4.880  0.1167 -1.0749 -0.5558
   21MOL   H52122161   8.011   7.837   4.870  2.8760 -0.6566  4.1727
   21MOL   H52222162   0.000   7.680   5.031  2.5897 -0.7875 -2.2048
   21MOL   H52322163   8.114   7.556   5.172  3.5779  1.0115 -0.2067
   21MOL   H52422164   7.753   7.181   5.113 -0.3026  0.6699  1.3458
   21MOL   H52522165   7.511   7.206   5.141 -0.6619  2.4005  1.7914
   21MOL   H52622166   7.296   7.248   4.931  0.0234  0.3556 -0.6187
   21MOL   H52722167   7.337   7.406   4.857  3.3590 -0.9353  0.7171
   21MOL   H52822168   7.180   7.370   4.939 -0.1182 -0.1346  3.9879
   21MOL   H52922169   7.191   7.358   5.221  0.9621  1.7636  2.2990
   21MOL   H53022170   7.289   7.218   5.164  1.5814  0.4715 -1.6461
   21MOL   H53122171   7.351   7.336   5.277 -0.4570  1.1484  0.1743
   21MOL   H53222172   7.194   7.598   4.916  2.0232  1.0693 -1.6587
   21MOL   H53322173   7.143   7.833   4.960 -0.6090  0.3469  1.1159
   21MOL   H53422174   7.329   7.804   5.340 -2.2585  2.6114  0.0903
   21MOL   H53522175   7.391   7.562   5.289  1.0164 -1.0717 -0.3927
   21MOL   H53622176   7.521   7.603   4.986  0.6089 -0.9255 -1.1812
   21MOL   H53722177   7.765   7.603   4.996 -0.6365 -0.4838 -0.2024
   21MOL   H53822178   7.930   7.359   4.831 -0.9918  0.9981 -0.0834
   21MOL   H53922179   8.093   7.508   4.673 -1.4857  1.0683 -0.3953
   21MOL   H54022180   0.147   7.960   4.724 -0.7599 -3.3293  1.8841
   21MOL   H54122181   0.060   8.197   4.703  0.6228 -1.3543  0.0044
   21MOL   C54222182   7.074   8.013   5.137  0.3645  0.0702 -0.0065
   21MOL   C54322183   7.069   8.122   5.044  0.4433  0.4018 -0.2357
   21MOL   C54422184   6.948   8.170   5.003 -0.0085  0.3289 -0.5774
   21MOL   C54522185   6.825   8.114   5.052 -0.3342 -0.6990  0.6976
   21MOL   S54622186   6.668   8.189   5.010  0.1510 -0.4227  0.1652
   21MOL   O54722187   6.673   8.228   4.871  0.2630 -0.1523  0.3666
   21MOL   O54822188   6.640   0.030   5.118  0.1402 -0.3791  0.0947
   21MOL   C54922189   6.540   8.060   5.029  0.3298 -0.7705 -0.1753
   21MOL   C55022190   6.507   7.988   4.917 -0.4151 -0.5833 -0.0041
   21MOL   C55122191   6.408   7.893   4.921 -0.2818 -0.4521  0.1639
   21MOL   C55222192   6.344   7.863   5.046  0.3732  0.3520  0.2261
   21MOL   O55322193   6.251   7.766   5.051 -0.3199  0.6626  0.2584
   21MOL   C55422194   6.288   7.641   5.093 -0.1627 -0.5025  0.0194
   21MOL   C55522195   6.361   7.556   5.010  0.6628  0.1294  0.4167
   21MOL   C55622196   6.379   7.422   5.049  0.0989  0.2685 -0.5598
   21MOL   C55722197   6.336   7.377   5.177 -0.2793  0.0273  0.4196
   21MOL   C55822198   6.358   7.229   5.213 -0.0401 -0.6086 -0.0460
   21MOL   C55922199   6.300   7.192   5.352  0.8438  0.0081  0.6410
   21MOL   C56022200   6.282   7.149   5.101 -0.1324 -0.4538  0.0444
   21MOL   C56122201   6.512   7.192   5.209 -0.3767  0.2298 -0.0557
   21MOL   C56222202   6.607   7.289   5.258  0.0476  0.2923  0.9419
   21MOL   C56322203   6.742   7.252   5.258  0.8476 -0.2205  0.5563
   21MOL   C56422204   6.788   7.126   5.207 -0.1167  0.4437  0.6099
   21MOL   O56522205   6.919   7.097   5.203  0.0962 -0.4037  0.4959
   21MOL   C56622206   6.695   7.031   5.162 -0.1296  0.3469  0.1970
   21MOL   C56722207   6.556   7.067   5.163  0.0090 -0.1577  0.0453
   21MOL   C56822208   6.278   7.468   5.268 -0.9283 -0.1439  0.1950
   21MOL   C56922209   6.253   7.597   5.224  0.6922 -0.3093 -0.1758
   21MOL   C57022210   6.376   7.937   5.160 -0.0032 -0.4886 -0.2621
   21MOL   C57122211   6.472   8.042   5.152 -0.3154 -0.0642 -0.1072
   21MOL   C57222212   6.834   8.000   5.131 -0.4316  0.1487  0.9248
   21MOL   C57322213   6.954   7.947   5.174 -0.4413 -0.0952 -0.2355
   21MOL   H57422214   7.155   8.178   5.010 -0.9112  2.1349 -0.9115
   21MOL   H57522215   6.959   8.248   4.928  1.9987 -1.0970 -1.8069
   21MOL   H57622216   6.554   8.006   4.821  1.6748  0.0564  1.0912
   21MOL   H57722217   6.370   7.845   4.833  0.1797  1.6832 -1.2531
   21MOL   H57822218   6.397   7.586   4.912  1.0351  1.6524  1.0134
   21MOL   H57922219   6.418   7.351   4.977  1.5553  2.4067 -1.9545
   21MOL   H58022220   6.316   7.086   5.369  2.5407  0.5067  2.3145
   21MOL   H58122221   6.195   7.220   5.357  0.6660 -0.3059 -0.9880
   21MOL   H58222222   6.354   7.247   5.429  0.0326 -0.4444  1.5390
   21MOL   H58322223   6.336   7.158   5.007 -0.5891 -0.2034 -0.1927
   21MOL   H58422224   6.286   7.045   5.132 -0.8901 -0.5205 -0.0859
   21MOL   H58522225   6.176   7.175   5.100 -0.5076 -1.8500  1.5291
   21MOL   H58622226   6.578   7.387   5.293  0.7521  0.4449  1.1124
   21MOL   H58722227   6.818   7.325   5.283 -0.8114  2.0255 -0.8076
   21MOL   H58822228   6.726   6.934   5.126  3.0041  0.6252  1.9638
   21MOL   H58922229   6.479   6.993   5.145  1.8897 -1.6114 -2.2589
   21MOL   H59022230   6.246   7.445   5.369 -2.0210  0.7362  0.0540
   21MOL   H59122231   6.208   7.671   5.289  0.0403  0.9367 -2.0167
   21MOL   H59222232   6.319   7.924   5.251  0.9131 -2.0584  0.1104
   21MOL   H59322233   6.493   8.105   5.237 -1.4306 -1.0754  0.9377
   21MOL   H59422234   6.739   7.960   5.164 -0.3002  0.0534  1.1928
   21MOL   H59522235   6.960   7.870   5.249  2.3079  2.9534  2.8662
   21MOL   C59622236   6.979   7.071   5.083  0.4459 -0.6201  0.7077
   21MOL   C59722237   7.033   6.950   5.049 -0.4273  0.3376 -0.0597
   21MOL   C59822238   7.087   6.927   4.919 -0.1204  0.8765 -0.5305
   21MOL   C59922239   7.084   7.025   4.824 -0.0464 -0.7661  0.5838
   21MOL   S60022240   7.135   6.995   4.655 -0.2447 -0.3051 -0.3120
   21MOL   O60122241   7.016   6.949   4.582 -0.2404  0.4375  0.7555
   21MOL   O60222242   7.247   6.898   4.674 -1.0232 -0.2824  0.2105
   21MOL   C60322243   7.205   7.148   4.590  0.9233  0.5486 -0.1226
   21MOL   C60422244   7.123   7.252   4.558 -0.3581  0.0492  0.2205
   21MOL   C60522245   7.174   7.386   4.557 -0.0523  0.0669 -0.4252
   21MOL   C60622246   7.315   7.407   4.578 -0.1762 -0.8503  0.1252
   21MOL   O60722247   7.367   7.536   4.576  0.4671 -0.3192  0.3008
   21MOL   C60822248   7.482   7.563   4.508 -0.2611 -0.2014 -0.0528
   21MOL   C60922249   7.602   7.566   4.586 -0.2780 -0.2972  0.3784
   21MOL   C61022250   7.726   7.586   4.517  0.4070  0.6707  0.1530
   21MOL   C61122251   7.729   7.618   4.378 -0.1023  0.0495 -0.2906
   21MOL   C61222252   7.867   7.659   4.312  0.7078 -0.4546  0.6204
   21MOL   C61322253   7.972   7.546   4.331 -0.3738 -0.0705 -0.0462
   21MOL   C61422254   7.844   7.677   4.157  0.7107 -0.4184  0.0992
   21MOL   C61522255   7.924   7.796   4.358  0.5421 -0.1841 -0.2091
   21MOL   C61622256   8.059   7.830   4.342  0.7450 -0.2057 -0.0669
   21MOL   C61722257   8.107   7.954   4.392 -0.0418  0.8022  0.6348
   21MOL   C61822258   8.015   8.048   4.444  0.0994  0.1767  0.4588
   21MOL   O61922259   8.063   8.171   4.487  0.0747 -0.1858  0.6149
   21MOL   C62022260   7.879   8.012   4.454  0.5697  0.2058 -0.1817
   21MOL   C62122261   7.834   7.888   4.411 -0.6707  0.4775 -0.6063
   21MOL   C62222262   7.610   7.615   4.304 -0.4117 -0.5251 -0.3317
   21MOL   C62322263   7.489   7.588   4.375 -0.1889  0.2000  0.4914
   21MOL   C62422264   7.398   7.293   4.591 -1.0417 -0.3917 -0.1323
   21MOL   C62522265   7.345   7.167   4.601 -0.7812  0.5788 -0.4712
   21MOL   C62622266   7.039   7.154   4.858  0.1011 -0.8732  0.4850
   21MOL   C62722267   6.979   7.170   4.982 -0.1014 -0.8628 -0.5075
   21MOL   H62822268   7.046   6.868   5.118  1.3888 -0.7276 -1.6197
   21MOL   H62922269   7.134   6.834   4.890 -1.2200 -0.3122  1.3105
   21MOL   H63022270   7.017   7.244   4.543 -0.2653 -0.6285 -0.1056
   21MOL   H63122271   7.113   7.474   4.548 -2.6580 -1.7222 -0.9806
   21MOL   H63222272   7.583   7.555   4.692 -1.2029 -0.0473  0.2394
   21MOL   H63322273   7.819   7.581   4.571  1.1381 -0.8884 -1.2003
   21MOL   H63422274   7.946   7.453   4.281 -1.2422  0.1934 -0.0851
   21MOL   H63522275   8.002   7.533   4.435  0.9663  1.2597 -0.2481
   21MOL   H63622276   8.063   7.562   4.273  0.1784 -1.3370  0.4390
   21MOL   H63722277   7.788   7.768   4.135 -0.5738 -1.1390  0.3606
   21MOL   H63822278   7.945   7.692   4.118  0.9993  0.4260  1.1745
   21MOL   H63922279   7.797   7.594   4.103 -0.3956  0.6018 -0.5295
   21MOL   H64022280   8.136   7.757   4.321  1.0118 -0.0188  0.2470
   21MOL   H64122281   8.212   7.978   4.389 -0.2825  2.3998  3.1139
   21MOL   H64222282   7.808   8.091   4.478  0.4784  0.2783 -0.6876
   21MOL   H64322283   7.729   7.865   4.416 -0.5124 -0.5234 -1.6742
   21MOL   H64422284   7.610   7.628   4.197  0.9728 -0.1035 -0.2925
   21MOL   H64522285   7.397   7.593   4.319 -0.2264 -0.6050  0.4658
   21MOL   H64622286   7.506   7.292   4.593 -0.8788 -2.6466 -3.9218
   21MOL   H64722287   7.408   7.095   4.651 -0.1900  1.8428  0.6353
   21MOL   H64822288   7.024   7.230   4.784 -0.0692 -2.4513 -1.1425
   21MOL   H64922289   6.922   7.260   5.002  1.9636  0.7936 -1.8053
   21MOL   C65022290   8.110   0.013   4.395  0.4436 -0.2035  0.9112
   21MOL   C65122291   8.120   0.146   4.443  0.0865 -0.5614  0.3184
   21MOL   C65222292   8.156   0.255   4.355  0.2289  0.7033  0.6387
   21MOL   C65322293   8.197   0.226   4.219  0.8008 -0.4060 -0.1250
   21MOL   S65422294   8.241   0.369   4.111  0.2361 -0.3869  0.1806
   21MOL   O65522295   0.090   0.323   4.013 -0.3522  0.0227  0.5543
   21MOL   O65622296   0.003   0.488   4.202  0.5165 -0.9751  0.3445
   21MOL   C65722297   8.086   0.386   4.023 -0.3362  0.0627  0.0235
   21MOL   C65822298   8.054   0.516   3.976  0.6123 -0.0146  0.5515
   21MOL   C65922299   7.951   0.530   3.879  0.1136 -0.3947  0.2987
   21MOL   C66022300   7.878   0.419   3.834  0.2392 -0.6709  0.1632
   21MOL   O66122301   7.772   0.420   3.740 -0.1191 -0.3952  0.7753
   21MOL   C66222302   7.663   0.508   3.749 -0.2319  0.2118  0.0490
   21MOL   C66322303   7.609   0.562   3.630 -0.2880 -0.0707 -0.3176
   21MOL   C66422304   7.501   0.648   3.637  0.3664  0.2806 -0.4662
   21MOL   C66522305   7.428   0.665   3.752 -0.2197 -0.0354  0.6027
   21MOL   C66622306   7.310   0.763   3.752  0.1819  0.3854 -1.0073
   21MOL   C66722307   7.253   0.791   3.610 -0.5302  0.3647 -0.2780
   21MOL   C66822308   7.199   0.690   3.832 -0.2147 -0.3477 -0.2326
   21MOL   C66922309   7.352   0.898   3.821  0.2370 -0.2498  0.2096
   21MOL   C67022310   7.488   0.934   3.811 -0.4786 -0.3551 -0.3633
   21MOL   C67122311   7.529   1.058   3.859  0.1010  0.5452  0.1756
   21MOL   C67222312   7.441   1.148   3.922 -0.3051 -0.2818  0.4190
   21MOL   O67322313   7.483   1.266   3.980  0.0833  0.2949 -0.2678
   21MOL   C67422314   7.304   1.118   3.925  0.0238 -0.2673  0.4946
   21MOL   C67522315   7.261   0.991   3.871  0.5944  0.3040 -0.3949
   21MOL   C67622316   7.476   0.609   3.870  0.1348 -0.1345  0.6084
   21MOL   C67722317   7.594   0.535   3.874  0.3186  0.1004 -0.4045
   21MOL   C67822318   7.904   0.293   3.887 -0.0762  0.2724 -0.8912
   21MOL   C67922319   8.003   0.277   3.982  0.5443 -0.1058 -0.4144
   21MOL   C68022320   8.201   0.092   4.176 -1.2990  0.7196 -0.0994
   21MOL   C68122321   8.156   8.237   4.261 -0.3360 -0.0899 -0.4389
   21MOL   H68222322   8.098   0.168   4.546  0.8846 -0.6040  0.5034
   21MOL   H68322323   8.147   0.360   4.375 -1.6149  0.5219  0.8356
   21MOL   H68422324   8.106   0.606   4.006 -0.7330  1.0950 -0.3356
   21MOL   H68522325   7.918   0.629   3.849  0.9640  0.5526  2.3920
   21MOL   H68622326   7.656   0.547   3.534 -2.8513 -0.9638 -1.4965
   21MOL   H68722327   7.486   0.706   3.547  1.4583 -0.7149 -1.3079
   21MOL   H68822328   7.250   0.692   3.565 -0.8019  0.7483 -1.1075
   21MOL   H68922329   7.312   0.859   3.548 -0.5291  1.4746  0.9140
   21MOL   H69022330   7.148   0.818   3.604 -0.6425  0.2310  0.8731
   21MOL   H69122331   7.222   0.709   3.937 -0.4105  1.0545 -0.4362
   21MOL   H69222332   7.103   0.738   3.811 -0.3374 -1.4831 -2.2897
   21MOL   H69322333   7.193   0.583   3.815  0.9899 -0.2385 -1.3326
   21MOL   H69422334   7.562   0.859   3.787  0.1451  0.1210  0.0614
   21MOL   H69522335   7.634   1.083   3.863 -0.1014  1.4095  0.1713
   21MOL   H69622336   7.233   1.189   3.965 -0.3231 -1.4369  1.9862
   21MOL   H69722337   7.156   0.971   3.889  1.3267  0.1350  4.2524
   21MOL   H69822338   7.422   0.618   3.964  0.8096  1.2375  0.8727
   21MOL   H69922339   7.612   0.482   3.967 -2.0801 -1.1610 -0.6132
   21MOL   H70022340   7.846   0.209   3.853 -0.0135 -0.4001  0.6338
   21MOL   H70122341   8.029   0.174   3.999 -1.0107 -0.6049 -0.9838
   21MOL   H70222342   8.228   0.071   4.073 -2.5787  2.3576 -0.8000
   21MOL   H70322343   8.154   8.134   4.227 -1.4317 -0.6151  1.1174
   21MOL   C70422344   7.623   1.282   4.005  0.3740  0.7139  0.3346
   21MOL   C70522345   7.678   1.247   4.128  0.2460 -0.1698 -0.0493
   21MOL   C70622346   7.810   1.284   4.155 -0.6348 -0.0183 -0.4195
   21MOL   C70722347   7.888   1.352   4.058  0.2914  1.4563 -1.1676
   21MOL   S70822348   8.048   1.413   4.091  0.2170 -0.0409 -0.6404
   21MOL   O70922349   8.051   1.553   4.054 -0.1206 -0.1993 -0.3703
   21MOL   O71022350   8.157   1.328   4.040 -0.7112  0.2987 -0.1317
   21MOL   C71122351   8.057   1.400   4.271 -0.1597  0.1700 -0.0316
   21MOL   C71222352   8.111   1.296   4.346 -0.0547 -0.4942  0.2387
   21MOL   C71322353   8.102   1.296   4.486 -0.2468 -0.3800  0.1825
   21MOL   C71422354   8.030   1.403   4.554  0.3049  0.6914 -0.4149
   21MOL   O71522355   8.009   1.389   4.691 -0.3812  0.2640 -1.1319
   21MOL   C71622356   7.875   1.362   4.735 -0.4901  0.0765  0.5164
   21MOL   C71722357   7.776   1.461   4.730 -0.0147  0.1397  0.4698
   21MOL   C71822358   7.639   1.435   4.766 -0.2685 -0.2384 -0.4044
   21MOL   C71922359   7.604   1.305   4.817  0.2206 -0.4192 -0.2157
   21MOL   C72022360   7.462   1.260   4.857  0.2289  0.9049  0.0358
   21MOL   C72122361   7.454   1.205   5.003 -0.0447 -0.3213 -0.6590
   21MOL   C72222362   7.374   1.386   4.866  0.4647 -0.1256  0.5860
   21MOL   C72322363   7.402   1.169   4.751  0.1541 -0.4381 -0.8678
   21MOL   C72422364   7.338   1.046   4.781  0.1416 -0.4463 -0.1198
   21MOL   C72522365   7.284   0.961   4.684  0.7983 -0.3443 -0.1296
   21MOL   C72622366   7.308   0.992   4.545 -0.5386  0.6991 -0.0078
   21MOL   O72722367   7.272   0.897   4.450  0.8750  0.6332  0.4880
   21MOL   C72822368   7.388   1.104   4.513 -0.5706  0.3555  0.0734
   21MOL   C72922369   7.421   1.196   4.612 -0.2989 -0.0621 -0.6262
   21MOL   C73022370   7.705   1.211   4.833  0.1740  0.1839  0.3853
   21MOL   C73122371   7.839   1.243   4.794 -0.1577  0.1076 -0.3744
   21MOL   C73222372   7.986   1.514   4.478  0.3040  0.4133  0.6592
   21MOL   C73322373   7.995   1.508   4.337  0.2301 -0.0518 -0.3479
   21MOL   C73422374   7.829   1.388   3.939  0.4756  0.3018  0.6211
   21MOL   C73522375   7.698   1.348   3.907  0.6446  0.6051 -0.2987
   21MOL   H73622376   7.616   1.191   4.197 -2.2579  0.6705 -1.5372
   21MOL   H73722377   7.860   1.252   4.245  0.9227  0.8458 -0.9447
   21MOL   H73822378   8.168   1.224   4.289 -0.8908  0.1925 -1.4981
   21MOL   H73922379   8.137   1.218   4.552 -0.9151 -2.2991 -1.6690
   21MOL   H74022380   7.812   1.556   4.694  1.6858 -1.4030 -2.0668
   21MOL   H74122381   7.562   1.506   4.740 -0.6658 -0.0663  1.1521
   21MOL   H74222382   7.516   1.116   5.004  1.9088  1.0133 -0.5720
   21MOL   H74322383   7.351   1.183   5.031  0.8147 -3.4429  0.2383
   21MOL   H74422384   7.509   1.274   5.067  0.9940  0.0717 -1.9564
   21MOL   H74522385   7.415   1.460   4.935  2.1836  0.0035 -0.5251
   21MOL   H74622386   7.364   1.438   4.771  0.3469 -1.6659 -0.2676
   21MOL   H74722387   7.281   1.367   4.919 -1.0445  3.2400 -0.7011
   21MOL   H74822388   7.321   1.012   4.882 -0.9432 -0.2041 -0.2195
   21MOL   H74922389   7.236   0.870   4.716  2.1360 -1.0991 -0.2589
   21MOL   H75022390   7.410   1.125   4.409 -0.4507  0.1511  0.0568
   21MOL   H75122391   7.488   1.276   4.585 -1.2632  1.5631  1.6119
   21MOL   H75222392   7.684   1.113   4.873  1.3039 -1.8837 -3.7554
   21MOL   H75322393   7.913   1.167   4.813 -1.8220 -1.6395 -0.7490
   21MOL   H75422394   7.932   1.601   4.514  0.9477  0.9048  0.4385
   21MOL   H75522395   7.947   1.582   4.275 -0.0018 -2.7702 -3.5476
   21MOL   H75622396   7.895   1.448   3.878 -0.6134 -1.7101 -2.6758
   21MOL   H75722397   7.649   1.382   3.817  1.5341  0.8617 -0.6981
   21MOL   C75822398   7.375   0.846   4.371  0.0227 -0.1021 -0.0108
   21MOL   C75922399   7.393   0.875   4.229 -0.2728 -0.3953 -0.4290
   21MOL   C76022400   7.511   0.834   4.155 -0.4541 -0.3543  0.0904
   21MOL   C76122401   7.614   0.767   4.227  0.5400  0.1489  0.1781
   21MOL   S76222402   7.775   0.741   4.149 -0.4814 -0.1385 -0.2289
   21MOL   O76322403   7.779   0.808   4.017 -0.2588  0.2827  0.2507
   21MOL   O76422404   7.796   0.601   4.167 -0.1107  0.5843 -0.7706
   21MOL   C76522405   7.899   0.825   4.250 -1.1857 -0.8958  0.3604
   21MOL   C76622406   7.878   0.949   4.325  0.1108  0.3119  0.3256
   21MOL   C76722407   7.968   0.989   4.428 -0.0559  0.3198  0.3413
   21MOL   C76822408   8.091   0.927   4.445 -0.0297  0.1286  0.5806
   21MOL   O76922409   8.183   0.983   4.525  0.4029 -0.2765  0.1915
   21MOL   C77022410   8.244   0.905   4.616  0.2793  0.0840 -0.1563
   21MOL   C77122411   0.132   0.900   4.625 -0.1324 -0.5623 -0.7170
   21MOL   C77222412   0.196   0.822   4.726  0.1441 -0.3121 -0.0668
   21MOL   C77322413   0.120   0.749   4.818  0.6104  0.5275  0.1390
   21MOL   C77422414   0.190   0.651   4.911 -0.0217  0.3464 -0.1333
   21MOL   C77522415   0.172   0.711   5.053  0.8860  1.1291  0.3261
   21MOL   C77622416   0.128   0.505   4.910 -0.8147 -0.7698  0.1356
   21MOL   C77722417   0.346   0.642   4.890  0.3899  1.1515 -0.8234
   21MOL   C77822418   0.400   0.550   4.796  0.5369  0.4979  0.5631
   21MOL   C77922419   0.535   0.537   4.781 -0.1464 -0.2303 -0.1673
   21MOL   C78022420   0.629   0.616   4.841  0.0822 -0.0674 -0.1579
   21MOL   O78122421   0.763   0.602   4.803 -0.3410 -0.3306 -0.1463
   21MOL   C78222422   0.582   0.711   4.941 -0.8006  0.7543 -0.6748
   21MOL   C78322423   0.443   0.723   4.955  0.2254 -0.0945  0.8617
   21MOL   C78422424   8.236   0.769   4.823 -1.0773  0.1501 -1.0582
   21MOL   C78522425   8.168   0.839   4.719 -1.1427 -0.3838  0.6174
   21MOL   C78622426   8.115   0.805   4.367 -0.6844 -0.3542 -0.6963
   21MOL   C78722427   8.027   0.758   4.267  0.1954  0.1067 -0.4041
   21MOL   C78822428   7.596   0.740   4.360 -0.3244 -0.2244 -0.4879
   21MOL   C78922429   7.477   0.769   4.430  0.1293  0.4956 -0.2742
   21MOL   H79022430   7.320   0.940   4.182 -1.1277 -0.6093  0.5758
   21MOL   H79122431   7.539   0.875   4.060  0.8154  0.1424  0.6587
   21MOL   H79222432   7.788   1.006   4.311  0.5776  0.4644 -2.3874
   21MOL   H79322433   7.944   1.076   4.487 -0.6974  0.9286 -0.7834
   21MOL   H79422434   0.192   0.959   4.557  1.1491  0.7246  1.4541
   21MOL   H79522435   0.304   0.822   4.722  0.1286  0.5497 -0.6610
   21MOL   H79622436   0.217   0.809   5.065  1.0224  0.9240  1.5225
   21MOL   H79722437   0.233   0.646   5.117  0.9805  0.9440  0.0483
   21MOL   H79822438   0.067   0.708   5.084  0.3480 -0.6970 -1.5436
   21MOL   H79922439   0.181   0.441   4.980  1.4052 -0.3822 -1.1602
   21MOL   H80022440   0.025   0.517   4.945  0.4412  1.3523  3.2821
   21MOL   H80122441   0.132   0.462   4.810  0.5637  1.0327 -0.6007
   21MOL   H80222442   0.338   0.491   4.730 -0.9675  1.0546  1.4736
   21MOL   H80322443   0.571   0.468   4.706 -1.3948  1.0086 -1.9392
   21MOL   H80422444   0.646   0.789   4.980 -1.0641  2.2984 -3.2198
   21MOL   H80522445   0.414   0.807   5.017  0.7248 -0.0169  0.9924
   21MOL   H80622446   8.164   0.713   4.881  1.1321 -2.2349 -0.5427
   21MOL   H80722447   8.061   0.844   4.705 -0.8136  0.5446 -1.8662
   21MOL   H80822448   8.209   0.753   4.367  0.1611  1.1254 -0.3079
   21MOL   H80922449   8.046   0.665   4.216 -0.3151  0.1936 -0.7527
   21MOL   H81022450   7.673   0.701   4.425 -0.1184  0.1455 -0.5073
   21MOL   H81122451   7.474   0.741   4.535 -2.5773 -1.5931 -0.8655
   21MOL   C81222452   0.837   0.719   4.772  0.3945 -0.4907  0.4458
   21MOL   C81322453   0.944   0.751   4.853  0.0270  0.6664 -0.4339
   21MOL   C81422454   1.014   0.867   4.840  1.1407 -0.2709 -0.3546
   21MOL   C81522455   0.998   0.950   4.727 -0.0769 -0.7427  1.0521
   21MOL   S81622456   1.108   1.091   4.704  0.1898  0.2641 -0.5891
   21MOL   O81722457   1.155   1.081   4.568  0.2518 -0.0621 -0.7165
   21MOL   O81822458   1.201   1.112   4.816  0.0446  0.1579  0.0322
   21MOL   C81922459   0.998   1.235   4.706  0.1474 -0.3717  0.6555
   21MOL   C82022460   0.948   1.277   4.827  0.2866 -0.7952  0.2119
   21MOL   C82122461   0.875   1.397   4.831  0.2765 -0.1452 -0.0948
   21MOL   C82222462   0.851   1.471   4.716  0.1595  1.1603  0.1146
   21MOL   O82322463   0.765   1.582   4.727 -0.0886 -0.5919 -0.0307
   21MOL   C82422464   0.629   1.564   4.732 -0.0869 -0.4027 -0.2404
   21MOL   C82522465   0.563   1.469   4.819 -0.2600 -0.1348  0.1855
   21MOL   C82622466   0.422   1.457   4.814 -0.1692 -0.3837 -0.0657
   21MOL   C82722467   0.347   1.546   4.734 -0.2414 -0.3190  0.0060
   21MOL   C82822468   0.197   1.515   4.724 -0.4986 -0.4125 -0.0997
   21MOL   C82922469   0.114   1.641   4.677 -0.6343  0.0537 -0.3634
   21MOL   C83022470   0.182   1.401   4.617  0.1407  0.1000 -0.3825
   21MOL   C83122471   0.150   1.475   4.864 -0.3443 -0.4723 -0.3679
   21MOL   C83222472   0.035   1.385   4.882 -0.0367 -0.0885 -0.1128
   21MOL   C83322473   8.229   1.368   5.009 -0.1930  0.3415  0.2182
   21MOL   C83422474   0.013   1.445   5.118 -0.0885  0.4450 -0.0718
   21MOL   O83522475   8.219   1.426   5.246  0.4355 -0.1727  0.4614
   21MOL   C83622476   0.130   1.532   5.102 -0.3603  0.5918  0.5466
   21MOL   C83722477   0.189   1.551   4.976 -0.1940 -0.0807 -0.3700
   21MOL   C83822478   0.412   1.643   4.660  0.0028  0.6860 -0.1652
   21MOL   C83922479   0.549   1.652   4.656 -0.8662  0.0857  0.7548
   21MOL   C84022480   0.910   1.433   4.595 -0.2558  0.3587  0.1688
   21MOL   C84122481   0.983   1.315   4.590 -0.6645  0.1141 -0.0512
   21MOL   C84222482   0.902   0.911   4.631 -1.0071 -0.3320  0.3799
   21MOL   C84322483   0.814   0.803   4.657 -0.4596 -0.1070  0.2706
   21MOL   H84422484   0.970   0.684   4.933  2.3206  0.6047 -1.1837
   21MOL   H84522485   1.096   0.875   4.909  0.3646  0.6045  0.4862
   21MOL   H84622486   0.959   1.206   4.908 -4.0785 -0.7984  0.9203
   21MOL   H84722487   0.827   1.429   4.923 -0.9961 -0.4177 -0.6481
   21MOL   H84822488   0.614   1.400   4.885  1.3008  0.2758 -0.5680
   21MOL   H84922489   0.374   1.391   4.885 -0.8181 -1.5444 -1.5730
   21MOL   H85022490   0.119   1.656   4.569  1.6212  1.5003 -0.0947
   21MOL   H85122491   0.134   1.732   4.733 -2.7592 -0.0377  0.5960
   21MOL   H85222492   0.008   1.616   4.688 -0.5860 -0.0362 -0.1169
   21MOL   H85322493   0.076   1.377   4.608  0.2916 -0.1870 -1.3978
   21MOL   H85422494   0.216   1.430   4.518 -1.9133  0.1703 -1.0857
   21MOL   H85522495   0.234   1.309   4.644  3.5095  1.3279 -2.3906
   21MOL   H85622496   0.002   1.326   4.798  0.6735 -0.7823  0.0858
   21MOL   H85722497   8.150   1.296   5.025 -0.5041  0.4803 -0.6848
   21MOL   H85822498   0.162   1.597   5.182 -0.8392 -0.5211  1.6605
   21MOL   H85922499   0.267   1.626   4.981 -0.4555  0.3307 -2.1585
   21MOL   H86022500   0.353   1.707   4.595  0.5779  1.2322 -0.1499
   21MOL   H86122501   0.603   1.727   4.601 -1.8576  0.9456  0.9533
   21MOL   H86222502   0.882   1.487   4.506 -1.3626 -0.6391 -0.1058
   21MOL   H86322503   1.032   1.282   4.500 -0.1868  3.0906 -0.9207
   21MOL   H86422504   0.881   0.980   4.551  1.6783  0.2506  0.1322
   21MOL   H86522505   0.731   0.782   4.592 -0.8708  0.0936  0.7267
   21MOL   C86622506   8.124   1.520   5.277 -0.0914  0.1713 -0.1879
   21MOL   C86722507   8.163   1.634   5.343  0.9163  0.9729 -0.1200
   21MOL   C86822508   8.068   1.745   5.364  1.3155 -0.0469 -0.1785
   21MOL   C86922509   7.931   1.724   5.330  0.2279  0.5452  0.2661
   21MOL   S87022510   7.802   1.847   5.349  0.1864 -0.0459  0.1852
   21MOL   O87122511   7.779   1.864   5.493  0.7131 -0.0465 -0.5112
   21MOL   O87222512   7.687   1.808   5.266 -0.2824  0.5403 -0.1507
   21MOL   C87322513   7.849   2.009   5.290  0.6097 -0.8558 -0.0357
   21MOL   C87422514   7.762   2.118   5.314 -0.8549  0.1853 -0.2372
   21MOL   C87522515   7.795   2.249   5.265  0.1101 -0.1775 -0.7906
   21MOL   C87622516   7.909   2.258   5.187 -0.7774 -0.5165 -0.6455
   21MOL   O87722517   7.947   2.386   5.136 -1.1360  0.0388  0.3482
   21MOL   C87822518   8.067   2.433   5.184  0.4059  0.5009  0.0007
   21MOL   C87922519   8.065   2.500   5.303  0.5109  0.1365 -0.1106
   21MOL   C88022520   8.168   2.586   5.336 -0.3078 -0.1334  0.0460
   21MOL   C88122521   0.036   2.591   5.254  0.2121  1.0245  0.0511
   21MOL   C88222522   0.155   2.683   5.290 -0.2468  0.1865  0.4629
   21MOL   C88322523   0.158   2.790   5.172 -1.0117  0.8970 -0.2949
   21MOL   C88422524   0.143   2.768   5.420 -0.4791  0.0093  0.4683
   21MOL   C88522525   0.271   2.594   5.309 -0.8856  0.4992  0.2590
   21MOL   C88622526   0.261   2.488   5.399  0.1765 -0.0060 -0.2649
   21MOL   C88722527   0.364   2.398   5.418 -0.1874 -0.1122 -0.1469
   21MOL   C88822528   0.480   2.406   5.340 -0.2720 -0.7769 -0.0992
   21MOL   O88922529   0.581   2.317   5.368 -0.1188 -0.2324  0.4696
   21MOL   C89022530   0.489   2.511   5.246 -0.4616  0.4229 -0.2709
   21MOL   C89122531   0.389   2.609   5.238 -0.1378  0.4364  0.0452
   21MOL   C89222532   0.043   2.513   5.136 -0.3112 -0.6903  0.4091
   21MOL   C89322533   8.184   2.440   5.101  0.8785 -0.4661 -0.0162
   21MOL   C89422534   7.992   2.151   5.159 -0.3686 -0.0232 -0.4943
   21MOL   C89522535   7.960   2.021   5.209  0.6935 -0.7986  0.1662
   21MOL   C89622536   7.904   1.613   5.246  0.8279  1.0517  0.2258
   21MOL   C89722537   7.994   1.507   5.231 -0.0048 -0.4712 -0.4237
   21MOL   H89822538   0.013   1.650   5.372  0.7853  1.2525  0.2024
   21MOL   H89922539   8.111   1.836   5.404  0.7392  0.1269  0.0423
   21MOL   H90022540   7.666   2.107   5.361 -0.4014  1.0323  0.9048
   21MOL   H90122541   7.735   2.337   5.283  1.5881  1.2584 -2.7065
   21MOL   H90222542   7.976   2.513   5.362 -0.8222 -2.1028 -1.6015
   21MOL   H90322543   8.153   2.644   5.426 -1.9210  0.9653 -0.9032
   21MOL   H90422544   0.197   2.745   5.081  0.6706 -0.5435  1.0848
   21MOL   H90522545   0.232   2.865   5.197  0.8461 -0.7828 -0.6004
   21MOL   H90622546   0.061   2.836   5.154 -0.4465  1.8746 -0.8139
   21MOL   H90722547   0.059   2.837   5.421  1.0768  1.9634  1.7791
   21MOL   H90822548   0.128   2.704   5.507  2.2268  0.3201  1.2372
   21MOL   H90922549   0.233   2.826   5.441 -0.2152  0.0380 -0.7043
   21MOL   H91022550   0.166   2.482   5.450  0.7091 -1.9812  0.5361
   21MOL   H91122551   0.357   2.326   5.498 -3.0024 -0.4266 -0.6285
   21MOL   H91222552   0.575   2.524   5.181 -0.7868  0.6533 -0.6551
   21MOL   H91322553   0.404   2.689   5.167 -1.1795  1.1493  0.6035
   21MOL   H91422554   0.127   2.518   5.068 -0.3152 -0.6681  0.4056
   21MOL   H91522555   8.196   2.388   5.007 -0.6610 -2.6103  0.9445
   21MOL   H91622556   8.082   2.164   5.101 -0.3164  0.4110 -0.3221
   21MOL   H91722557   8.019   1.934   5.187 -2.2567 -2.8670  0.2356
   21MOL   H91822558   7.802   1.601   5.213  0.1232  0.5471  2.4591
   21MOL   H91922559   7.960   1.423   5.172  1.9991 -2.4232  1.1352
   21MOL   C92022560   0.663   2.365   5.469 -0.2642  0.1876 -0.1763
   21MOL   C92122561   0.788   2.418   5.435 -0.4042  0.6558 -0.9887
   21MOL   C92222562   0.860   2.495   5.533  0.3342  0.7438  0.0470
   21MOL   C92322563   0.810   2.504   5.667  0.4101  0.4166 -0.1272
   21MOL   S92422564   0.916   2.591   5.789  0.1639  0.1724 -0.1530
   21MOL   O92522565   0.844   2.585   5.915  0.3033  0.1590  0.3270
   21MOL   O92622566   0.967   2.717   5.731  0.3562  0.1359  0.6370
   21MOL   C92722567   1.058   2.485   5.820  0.1359 -0.5943  1.1385
   21MOL   C92822568   1.148   2.517   5.922 -0.3492 -0.0178  0.6661
   21MOL   C92922569   1.252   2.428   5.952 -0.4103 -0.3110 -0.3501
   21MOL   C93022570   1.277   2.311   5.875  0.9811  0.3174  0.1734
   21MOL   O93122571   1.376   2.219   5.910  0.0489  0.6671  0.2376
   21MOL   C93222572   1.334   2.104   5.966 -0.0088  0.4129  0.0899
   21MOL   C93322573   1.241   2.105   6.074  0.0961 -0.4208  0.2350
   21MOL   C93422574   1.195   1.983   6.128 -0.0967  0.2913  0.4857
   21MOL   C93522575   1.244   1.861   6.080 -0.2803  0.7104  0.1458
   21MOL   C93622576   1.188   1.731   6.145  0.1176 -0.2395 -0.5016
   21MOL   C93722577   1.246   1.601   6.086  0.3459 -0.5411  0.0146
   21MOL   C93822578   1.233   1.727   6.293  0.0209 -0.3965  0.1679
   21MOL   C93922579   1.036   1.717   6.125 -0.0783  0.4327 -0.5642
   21MOL   C94022580   0.963   1.638   6.215 -0.4157 -0.0423 -0.5646
   21MOL   C94122581   0.824   1.612   6.199  0.6442 -0.0466  0.5776
   21MOL   C94222582   0.758   1.668   6.089  0.3733 -0.1313  0.7460
   21MOL   O94322583   0.627   1.621   6.064  0.1414 -0.1506 -0.4177
   21MOL   C94422584   0.827   1.749   6.003  0.0672 -0.1303 -0.0825
   21MOL   C94522585   0.964   1.777   6.018  0.0899  0.2244 -0.1160
   21MOL   C94622586   1.341   1.859   5.978 -0.5722 -0.1907 -0.2463
   21MOL   C94722587   1.386   1.979   5.919  0.0332 -0.6310 -0.9587
   21MOL   C94822588   1.189   2.276   5.774 -0.6080  0.3457  0.5043
   21MOL   C94922589   1.081   2.360   5.755 -0.4295  0.7072  0.2486
   21MOL   C95022590   0.692   2.442   5.700 -0.4245 -0.2889 -0.1873
   21MOL   C95122591   0.613   2.377   5.599  0.3558  0.4630  0.4916
   21MOL   H95222592   0.812   2.420   5.330 -0.6758  0.2580 -1.0620
   21MOL   H95322593   0.956   2.535   5.507  0.8100 -0.9788 -0.9657
   21MOL   H95422594   1.128   2.604   5.984  2.4787 -0.3689  2.1331
   21MOL   H95522595   1.308   2.446   6.043 -1.2119 -0.3593  0.1627
   21MOL   H95622596   1.211   2.201   6.112 -0.1006 -0.8193  1.0843
   21MOL   H95722597   1.126   1.982   6.211 -0.0814  1.0855  0.5119
   21MOL   H95822598   1.350   1.593   6.118  0.4727  0.1172 -0.2262
   21MOL   H95922599   1.233   1.591   5.978  1.6509  2.5936 -0.4918
   21MOL   H96022600   1.198   1.522   6.144 -0.8597  1.9897  2.6082
   21MOL   H96122601   1.186   1.809   6.349  1.4965  2.3039 -2.3771
   21MOL   H96222602   1.208   1.642   6.356 -0.5292  0.8121  1.6182
   21MOL   H96322603   1.339   1.748   6.295 -0.2489  1.2295 -1.0647
   21MOL   H96422604   1.008   1.588   6.300 -0.1894  4.1401  1.9415
   21MOL   H96522605   0.773   1.538   6.258 -0.5371 -1.1017 -1.6904
   21MOL   H96622606   0.775   1.797   5.920 -0.3582  1.1010  0.8840
   21MOL   H96722607   1.009   1.848   5.951 -1.2777  0.5305 -0.7372
   21MOL   H96822608   1.371   1.763   5.939  2.2358  1.1092 -1.4455
   21MOL   H96922609   1.456   1.977   5.836  0.1160 -1.8823 -0.8752
   21MOL   H97022610   1.188   2.181   5.722 -2.3579  0.4571  0.3202
   21MOL   H97122611   0.999   2.328   5.693 -1.9448 -2.3137  3.6083
   21MOL   H97222612   0.649   2.452   5.799 -0.2334 -1.7657  0.0520
   21MOL   H97322613   0.517   2.330   5.614  0.5800  0.0579  0.6552
   21MOL   C97422614   0.597   1.515   5.981  0.2023  0.4044  0.7047
   21MOL   C97522615   0.497   1.424   6.009  0.0258  0.7396 -0.7458
   21MOL   C97622616   0.466   1.317   5.926 -0.2235 -0.1704  0.4042
   21MOL   C97722617   0.546   1.287   5.816  0.3431 -0.0966  0.6511
   21MOL   S97822618   0.509   1.155   5.704 -0.2544  0.2138  0.2893
   21MOL   O97922619   0.600   1.161   5.591 -0.1852 -0.7139 -0.0087
   21MOL   O98022620   0.363   1.154   5.690 -0.2455 -0.3585 -0.0904
   21MOL   C98122621   0.555   1.001   5.791 -0.0673 -0.2639  0.4688
   21MOL   C98222622   0.695   0.965   5.796 -0.4661 -0.2082 -0.0831
   21MOL   C98322623   0.727   0.844   5.854 -0.3575 -0.8953  0.3559
   21MOL   C98422624   0.636   0.760   5.910 -0.3477  0.2166 -0.4994
   21MOL   O98522625   0.676   0.636   5.962  0.2048 -0.2831 -0.3094
   21MOL   C98622626   0.618   0.530   5.898 -0.6956 -0.1644  0.3657
   21MOL   C98722627   0.565   0.420   5.966 -0.0953  0.4886  0.2325
   21MOL   C98822628   0.502   0.311   5.906 -0.9133 -0.4652  0.2253
   21MOL   C98922629   0.494   0.309   5.763 -0.2983  0.0077  0.2148
   21MOL   C99022630   0.428   0.189   5.693 -0.5434  0.1049  0.5823
   21MOL   C99122631   0.496   0.061   5.740 -0.3104  0.4631  0.2065
   21MOL   C99222632   0.280   0.184   5.729 -0.2004  0.0335  0.0789
   21MOL   C99322633   0.447   0.198   5.542  0.5463 -0.3813  0.7915
   21MOL   C99422634   0.334   0.220   5.454 -0.0718  0.4248 -0.1541
   21MOL   C99522635   0.353   0.220   5.313 -0.2710  0.2400  0.0263
   21MOL   C99622636   0.476   0.200   5.257 -0.8094  0.5642 -0.6233
   21MOL   O99722637   0.490   0.208   5.123  0.2124 -0.1462 -0.4095
   21MOL   C99822638   0.586   0.175   5.349 -0.1732 -0.0712  0.3546
   21MOL   C99922639   0.568   0.181   5.488 -0.3774  0.3555 -0.1451
   21MOL     C122640   0.557   0.411   5.692  0.1735  0.6285 -0.0557
   21MOL     C222641   0.618   0.522   5.760  0.2073 -0.0808 -0.4482
   21MOL     C322642   0.502   0.803   5.911 -0.4461  0.3332 -0.6762
   21MOL     C422643   0.459   0.921   5.852  0.4494 -0.0503 -0.2011
   21MOL     C522644   0.655   1.371   5.783 -1.4944 -0.5072  0.6336
   21MOL     C622645   0.687   1.484   5.868  0.2227  0.1840 -0.0144
   21MOL     H722646   0.430   1.452   6.090  2.7554  1.2103  1.4120
   21MOL     H822647   0.389   1.247   5.957 -2.7920  1.8802 -1.1815
   21MOL     H922648   0.770   1.025   5.747 -2.2095  1.0167 -1.3168
   21MOL    H1022649   0.833   0.823   5.866 -0.2430  1.2395  3.8839
   21MOL    H1122650   0.568   0.432   6.074  1.5453  1.5687  0.0905
   21MOL    H1222651   0.455   0.236   5.967 -0.8782 -0.9721 -0.3577
   21MOL    H1322652   0.603   0.059   5.718 -0.6640 -0.0499 -1.5735
   21MOL    H1422653   0.442   8.223   5.713 -0.5224  0.6555 -0.0208
   21MOL    H1522654   0.496   0.054   5.848 -2.7431  1.5319  0.2984
   21MOL    H1622655   0.224   0.269   5.689 -0.3097 -1.7392 -3.7200
   21MOL    H1722656   0.234   0.102   5.675  0.8750  0.2148 -1.1299
   21MOL    H1822657   0.260   0.188   5.836  3.0366  0.3605  0.7284
   21MOL    H1922658   0.230   0.232   5.482 -0.3597  0.9653 -1.4216
   21MOL    H2022659   0.271   0.232   5.243 -1.4509 -0.6206  1.2414
   21MOL    H2122660   0.685   0.163   5.307 -0.9182 -0.3437 -1.3435
   21MOL    H2222661   0.654   0.162   5.552 -1.5654 -0.7223  1.1743
   21MOL    H2322662   0.554   0.420   5.584 -0.5795 -2.4476 -0.3336
   21MOL    H2422663   0.657   0.600   5.696  0.5179 -0.8993 -1.2759
   21MOL    H2522664   0.435   0.733   5.961 -0.5501  0.5994 -0.4400
   21MOL    H2622665   0.358   0.959   5.858  0.4310 -0.3852  1.7872
   21MOL    H2722666   0.712   1.338   5.696 -2.0681  0.7411 -0.2258
   21MOL    H2822667   0.773   1.548   5.851 -0.7833  1.8747  1.0554
   21MOL    C2922668   0.617   0.218   5.066 -0.0502 -0.0283 -0.2102
   21MOL    C3022669   0.684   0.341   5.057  0.2690 -0.6648 -0.8339
   21MOL    C3122670   0.803   0.358   4.984  0.2648  0.2995 -0.2641
   21MOL    C3222671   0.860   0.245   4.919  0.0032 -0.0509  0.8776
   21MOL    S3322672   1.007   0.262   4.813 -0.1780 -0.3555  0.2186
   21MOL    O3422673   1.070   0.134   4.795 -0.0821  0.0854  0.4237
   21MOL    O3522674   1.083   0.376   4.870 -0.1023  0.4083  0.1764
   21MOL    C3622675   0.935   0.326   4.664  0.6385  0.1561 -0.3193
   21MOL    C3722676   0.993   0.447   4.618  0.2254 -0.1286 -0.4512
   21MOL    C3822677   0.922   0.515   4.512 -0.2752 -0.1269 -0.0954
   21MOL    C3922678   0.815   0.458   4.446 -0.3246 -0.3057 -0.0981
   21MOL    O4022679   0.753   0.524   4.348  0.4713  0.0769  0.9752
   21MOL    C4122680   0.818   0.528   4.226 -1.0484  0.2020  0.5269
   21MOL    C4222681   0.801   0.414   4.142 -0.3236  0.3753  0.5938
   21MOL    C4322682   0.843   0.415   4.007  0.2372 -0.2120 -0.0995
   21MOL    C4422683   0.927   0.515   3.959 -0.4277 -0.7559  1.4136
   21MOL    C4522684   0.978   0.535   3.811 -1.0815  0.6922 -0.3147
   21MOL    C4622685   0.938   0.408   3.724 -0.2936 -0.1388  0.1720
   21MOL    C4722686   0.904   0.656   3.753 -0.1909  0.2348  0.1727
   21MOL    C4822687   1.131   0.545   3.813  0.6951 -0.6299  0.2841
   21MOL    C4922688   1.194   0.672   3.783 -0.7841  0.6910 -0.1243
   21MOL    C5022689   1.339   0.672   3.786 -0.0300  0.4275  0.1194
   21MOL    C5122690   1.416   0.559   3.817 -0.0923  0.2054 -0.5305
   21MOL    O5222691   1.545   0.587   3.840  0.0241 -0.1939 -0.2576
   21MOL    C5322692   1.355   0.435   3.837  0.1228  0.3231  0.5579
   21MOL    C5422693   1.212   0.431   3.834  0.6543  0.4786 -0.2612
   21MOL    C5522694   0.962   0.624   4.050  0.4062  0.7144 -0.2566
   21MOL    C5622695   0.904   0.629   4.180 -1.0006  0.6709  0.4244
   21MOL    C5722696   0.768   0.333   4.492 -0.2659  0.1583  0.2826
   21MOL    C5822697   0.821   0.263   4.602  0.0868  0.2168  0.6271
   21MOL    C5922698   0.798   0.117   4.940 -0.7320 -1.1110  0.3086
   21MOL    C6022699   0.675   0.103   5.010 -0.2076  0.8865  0.1863
   21MOL    H6122700   0.640   0.430   5.101 -0.6251 -1.0741 -0.8971
   21MOL    H6222701   0.852   0.454   4.983  0.1922  0.3427  0.0618
   21MOL    H6322702   1.081   0.494   4.659  1.5776 -0.9992 -2.2542
   21MOL    H6422703   0.973   0.604   4.479 -0.6157  0.2807  0.4579
   21MOL    H6522704   0.741   0.332   4.179 -0.3087  0.0343 -0.1363
   21MOL    H6622705   0.812   0.332   3.945  0.2347 -0.3139  0.0381
   21MOL    H6722706   0.960   0.314   3.774 -0.8371  0.6082  1.8449
   21MOL    H6822707   0.976   0.417   3.622 -1.7410  1.2601 -0.2604
   21MOL    H6922708   0.831   0.415   3.705 -0.2410  1.1628  0.3358
   21MOL    H7022709   0.908   0.746   3.815  2.0970 -0.2005  0.6774
   21MOL    H7122710   0.915   0.669   3.646  1.2673  4.0717  0.7255
   21MOL    H7222711   0.803   0.624   3.778 -0.2318  0.0408 -0.2426
   21MOL    H7322712   1.146   0.768   3.772 -1.8009  0.3023  0.8253
   21MOL    H7422713   1.383   0.770   3.775  2.2050 -0.4490  0.9688
   21MOL    H7522714   1.409   0.342   3.848 -1.6315 -0.6319  1.2962
   21MOL    H7622715   1.161   0.337   3.852  0.0993  0.7561 -0.3867
   21MOL    H7722716   1.017   0.710   4.015  0.3818  0.2761 -1.3937
   21MOL    H7822717   0.923   0.707   4.253 -1.1726  0.5851  0.5602
   21MOL    H7922718   0.680   0.300   4.438 -1.4253  0.4236  1.9644
   21MOL    H8022719   0.772   0.168   4.619  2.3639 -1.1419 -0.1005
   21MOL    H8122720   0.846   0.033   4.892 -1.5416 -1.9182  0.8984
   21MOL    H8222721   0.621   0.011   5.022  0.0853  0.6592 -0.2192
   21MOL    H8322722   1.589   0.532   3.903 -1.0265 -1.0404 -0.2350
   22MOL     C122723   1.471   3.024   6.757  0.0391 -0.0628  0.2999
   22MOL     C222724   1.419   2.919   6.674 -0.2926 -0.0766  0.5797
   22MOL     C322725   1.314   2.840   6.718 -0.4084 -0.0596  0.0082
   22MOL     C422726   1.267   2.852   6.851 -0.3380  0.0320 -0.1342
   22MOL     S522727   1.159   2.736   6.925 -0.2054  0.2717  0.1818
   22MOL     O622728   1.075   2.676   6.817  0.1309 -0.2115 -0.8419
   22MOL     O722729   1.101   2.793   7.045  0.0714 -0.5640 -0.1153
   22MOL     C822730   1.276   2.608   6.980  0.5777  0.8091 -0.5304
   22MOL     C922731   1.315   2.607   7.117  0.1294 -0.6312 -0.1369
   22MOL    C1022732   1.403   2.511   7.164  0.4929 -0.0544 -0.5512
   22MOL    C1122733   1.464   2.420   7.076 -0.2197 -0.4536  0.2429
   22MOL    O1222734   1.560   2.328   7.121  0.1022 -0.0169  0.3002
   22MOL    C1322735   1.519   2.204   7.124 -0.3779 -0.5950 -0.4193
   22MOL    C1422736   1.422   2.158   7.217 -0.3850 -0.7425  0.4131
   22MOL    C1522737   1.392   2.020   7.224 -0.2056 -0.3615  0.5912
   22MOL    C1622738   1.453   1.928   7.132  0.1721 -0.6401  0.6958
   22MOL    C1722739   1.416   1.780   7.139  0.7579  0.1260 -0.5638
   22MOL    C1822740   1.299   1.755   7.237 -0.1984 -0.9662  0.6303
   22MOL    C1922741   1.377   1.746   6.992  0.1933  0.1986  0.3122
   22MOL    C2022742   1.538   1.691   7.174 -0.0804 -0.1421 -0.3675
   22MOL    C2122743   1.552   1.551   7.154  0.0045  0.7352 -0.2166
   22MOL    C2222744   1.663   1.481   7.208 -0.8504 -0.3636  0.0223
   22MOL    C2322745   1.771   1.546   7.272  0.1056 -0.4635 -0.1843
   22MOL    O2422746   1.886   1.477   7.303  0.3948  0.1555 -0.0416
   22MOL    C2522747   1.761   1.685   7.289  0.3328  0.2805 -0.0176
   22MOL    C2622748   1.648   1.755   7.242 -0.2562  0.0004  0.0060
   22MOL    C2722749   1.552   1.975   7.038  0.1441 -0.1557  0.5641
   22MOL    C2822750   1.583   2.115   7.032 -0.7040  0.0010  0.2022
   22MOL    C2922751   1.437   2.426   6.935 -0.3965 -0.5403 -0.2555
   22MOL    C3022752   1.335   2.509   6.894  0.0032  0.5246 -0.6770
   22MOL    C3122753   1.321   2.946   6.935  0.2993 -0.0351  0.6505
   22MOL    C3222754   1.418   3.033   6.885 -0.9974  0.9654  0.6681
   22MOL    H3322755   1.464   2.918   6.576 -1.4863 -0.3690  0.0218
   22MOL    H3422756   1.276   2.761   6.655  0.1905  0.9114 -1.6247
   22MOL    H3522757   1.267   2.672   7.188  1.2626 -1.3920  1.3594
   22MOL    H3622758   1.423   2.504   7.270 -4.7064  0.2868  0.5970
   22MOL    H3722759   1.376   2.227   7.287 -0.6000 -1.0801  0.6059
   22MOL    H3822760   1.316   2.007   7.299 -0.7958  3.1499  0.6927
   22MOL    H3922761   1.218   1.828   7.227  0.1411 -0.3559  2.2564
   22MOL    H4022762   1.328   1.751   7.342  3.5277  1.9559 -0.1635
   22MOL    H4122763   1.257   1.655   7.234 -1.5364 -0.3910 -0.4945
   22MOL    H4222764   1.301   1.815   6.956 -0.0005  0.2268  0.7798
   22MOL    H4322765   1.462   1.752   6.925  0.1163  2.8970  0.3791
   22MOL    H4422766   1.342   1.643   6.989 -3.6022  1.3051  2.8649
   22MOL    H4522767   1.477   1.481   7.118  0.2711 -0.0876  0.7893
   22MOL    H4622768   1.661   1.374   7.194 -0.1566 -0.4619  0.6550
   22MOL    H4722769   1.849   1.733   7.331  0.0466  0.9095 -0.1224
   22MOL    H4822770   1.663   1.862   7.250 -1.2894  0.0779  1.1147
   22MOL    H4922771   1.596   1.905   6.969 -1.0822 -1.5045  1.1292
   22MOL    H5022772   1.660   2.154   6.967 -0.4267  0.3174  0.7207
   22MOL    H5122773   1.494   2.373   6.861  0.0286  0.5018 -0.6834
   22MOL    H5222774   1.312   2.515   6.788  0.1776 -0.4408 -0.7747
   22MOL    H5322775   1.285   2.943   7.037  0.1516  0.5877  0.6162
   22MOL    H5422776   1.453   3.110   6.953 -0.5545  1.4405 -0.0853
   22MOL    H5522777   1.533   3.105   6.723 -1.3824  0.8611 -0.1509
   22MOL    C5622778   1.946   1.489   7.429  0.1036  0.1234  0.2376
   22MOL    C5722779   2.084   1.512   7.432  0.7656 -0.5997 -0.0470
   22MOL    C5822780   2.150   1.540   7.556  0.5078 -0.4825 -0.0675
   22MOL    C5922781   2.069   1.570   7.670 -0.1219  0.7805  0.1742
   22MOL    S6022782   2.141   1.637   7.818  0.2265 -0.3220 -0.1258
   22MOL    O6122783   2.121   1.786   7.821  0.3482 -0.4983 -0.0923
   22MOL    O6222784   2.277   1.581   7.832 -0.2485  0.1040  0.1064
   22MOL    C6322785   2.041   1.572   7.954 -0.2512  0.1088  0.2315
   22MOL    C6422786   2.010   1.437   7.954  1.1553 -0.7376  0.2757
   22MOL    C6522787   1.920   1.377   8.049 -0.0468 -0.0814 -0.0985
   22MOL    C6622788   1.874   1.463   8.156  0.1811  0.1668  0.0765
   22MOL    O6722789   1.793   1.408   8.252 -0.1594  0.4246 -0.4883
   22MOL    C6822790   1.830   1.437   0.124 -0.7841  0.4350 -0.1175
   22MOL    C6922791   1.749   1.523   0.199  0.7324 -0.0862 -0.3784
   22MOL    C7022792   1.791   1.547   0.329 -0.2728 -0.3720 -0.6012
   22MOL    C7122793   1.908   1.497   0.391 -0.2802  0.6620 -0.1482
   22MOL    C7222794   1.954   1.525   0.537 -0.4489  0.0223 -0.1613
   22MOL    C7322795   1.989   1.394   0.608  0.3642  0.1578  0.4292
   22MOL    C7422796   2.082   1.604   0.535 -0.1150 -1.0199  0.2748
   22MOL    C7522797   1.839   1.590   0.614  0.3057  0.0335 -0.2776
   22MOL    C7622798   1.839   1.728   0.643  0.1836 -0.4949 -0.3401
   22MOL    C7722799   1.734   1.787   0.716 -0.0269  0.1869 -0.3093
   22MOL    C7822800   1.634   1.715   0.780  0.1941  0.0810  0.2313
   22MOL    O7922801   1.537   1.781   0.852 -0.2834 -0.1671  0.5001
   22MOL    C8022802   1.625   1.578   0.739 -0.0523 -0.3744 -0.8155
   22MOL    C8122803   1.734   1.512   0.670 -0.6132  0.3098  0.4504
   22MOL    C8222804   1.992   1.414   0.315 -0.1349  0.0719  0.5039
   22MOL    C8322805   1.955   1.383   0.178  0.3048  0.0604  0.5932
   22MOL    C8422806   1.914   1.597   8.159 -0.9132 -0.2383 -0.0848
   22MOL    C8522807   1.990   1.653   8.054  0.1740 -0.1497  0.1472
   22MOL    C8622808   1.933   1.543   7.665  1.5741 -0.2368  0.5610
   22MOL    C8722809   1.875   1.505   7.547  0.1369 -0.0554 -0.2362
   22MOL    H8822810   2.134   1.515   7.337 -0.3704 -0.1644 -0.6478
   22MOL    H8922811   2.257   1.557   7.566  0.5639 -0.5116 -0.6286
   22MOL    H9022812   2.061   1.378   7.880 -0.7451 -0.0996 -1.6024
   22MOL    H9122813   1.904   1.270   8.043  2.7419 -0.5500  0.3796
   22MOL    H9222814   1.663   1.571   0.155  1.0750  2.5738  1.7602
   22MOL    H9322815   1.726   1.603   0.395  0.4808  1.8410 -1.6542
   22MOL    H9422816   2.085   1.350   0.579  0.5280  1.2748 -0.7635
   22MOL    H9522817   1.916   1.318   0.579  0.8959 -0.4282  0.5939
   22MOL    H9622818   1.986   1.414   0.715 -0.5585  0.8290  0.2776
   22MOL    H9722819   2.145   1.581   0.450 -0.6271 -1.1867 -0.0641
   22MOL    H9822820   2.061   1.707   0.507  0.1637 -0.4123  2.2337
   22MOL    H9922821   2.145   1.593   0.623  1.5150  0.0314 -0.7269
   22MOL   H10022822   1.918   1.798   0.617  0.3370 -0.4160  0.3238
   22MOL   H10122823   1.749   1.890   0.745 -0.0491 -0.3032  1.5586
   22MOL   H10222824   1.537   1.524   0.769 -0.4036 -0.0590 -1.2791
   22MOL   H10322825   1.733   1.407   0.646 -0.0966  0.1146  1.2524
   22MOL   H10422826   2.074   1.365   0.364 -1.1849 -0.6971  1.5306
   22MOL   H10522827   2.011   1.320   0.111  0.2969 -1.1294  1.6848
   22MOL   H10622828   1.886   1.662   8.241  0.6096 -0.8818  0.9607
   22MOL   H10722829   2.010   1.759   8.049 -4.1739  0.6816 -1.7225
   22MOL   H10822830   1.866   1.569   7.747  0.3155  0.7133 -0.7389
   22MOL   H10922831   1.770   1.477   7.548 -0.3874  1.6563 -2.2256
   22MOL   C11022832   1.566   1.807   0.988  0.2855  0.6274  1.0367
   22MOL   C11122833   1.608   1.934   1.025  0.2702  0.1802 -1.0899
   22MOL   C11222834   1.628   1.965   1.159  0.3206  0.5010 -0.9821
   22MOL   C11322835   1.601   1.866   1.256  0.6273  0.7119 -0.5300
   22MOL   S11422836   1.606   1.912   1.425  0.3080 -0.2609 -0.0036
   22MOL   O11522837   1.570   2.052   1.428  0.2725  0.3935 -0.0180
   22MOL   O11622838   1.731   1.870   1.486  0.6101  0.2070  0.4169
   22MOL   C11722839   1.481   1.822   1.524 -0.4750  0.5729  0.3146
   22MOL   C11822840   1.522   1.779   1.654  0.0430 -0.2978  0.0356
   22MOL   C11922841   1.434   1.697   1.723  0.3431  0.5943 -0.8765
   22MOL   C12022842   1.315   1.648   1.667 -0.6624  0.4227  0.6154
   22MOL   O12122843   1.229   1.563   1.738 -0.2593 -0.8097  0.7035
   22MOL   C12222844   1.104   1.612   1.765 -0.2487  0.1191  0.1550
   22MOL   C12322845   1.023   1.510   1.812  0.2472  0.9102 -0.7914
   22MOL   C12422846   0.898   1.535   1.870 -0.0130  0.3170 -0.4277
   22MOL   C12522847   0.848   1.666   1.866 -0.5442 -0.6082  0.1117
   22MOL   C12622848   0.711   1.702   1.918 -0.2456  0.3754 -0.3477
   22MOL   C12722849   0.690   1.850   1.923  0.1212 -0.1888  0.2209
   22MOL   C12822850   0.610   1.656   1.813  0.4488 -0.0935  0.0927
   22MOL   C12922851   0.697   1.645   2.056 -0.1230 -0.0117 -0.1816
   22MOL   C13022852   0.594   1.549   2.094 -0.7792  0.5531  0.2643
   22MOL   C13122853   0.589   1.488   2.222 -0.4096 -1.1762  0.1164
   22MOL   C13222854   0.682   1.523   2.320  0.6134  0.1874  0.0217
   22MOL   O13322855   0.675   1.462   2.438  0.5252  0.1469 -0.0678
   22MOL   C13422856   0.786   1.616   2.283  0.0221 -0.4538  0.2611
   22MOL   C13522857   0.792   1.670   2.156 -0.5293 -0.0060 -0.4374
   22MOL   C13622858   0.929   1.769   1.810 -1.0009  0.4392  0.0902
   22MOL   C13722859   1.064   1.745   1.768 -0.0780  0.4768 -0.0922
   22MOL   C13822860   1.278   1.686   1.534  0.3658  0.1660  0.2144
   22MOL   C13922861   1.356   1.783   1.472 -0.3760 -0.3093 -0.1365
   22MOL   C14022862   1.562   1.733   1.226 -0.0525  0.8291  0.2841
   22MOL   C14122863   1.543   1.705   1.087  0.9470 -0.1611  0.8691
   22MOL   H14222864   1.647   2.010   0.958 -0.1382 -0.3213 -1.9034
   22MOL   H14322865   1.663   2.061   1.194 -0.9134  0.5913  0.0339
   22MOL   H14422866   1.613   1.813   1.702  0.0346  0.9753 -0.8076
   22MOL   H14522867   1.470   1.658   1.817 -1.1821  1.3445  0.0330
   22MOL   H14622868   1.072   1.414   1.813 -1.2499  0.1412  0.1068
   22MOL   H14722869   0.844   1.451   1.911  0.6430 -0.6560 -1.5198
   22MOL   H14822870   0.588   1.868   1.959 -0.1321 -0.8575 -0.1636
   22MOL   H14922871   0.694   1.883   1.819  1.3487  0.0002  0.3227
   22MOL   H15022872   0.770   1.900   1.978  2.3127  1.4995 -4.2131
   22MOL   H15122873   0.507   1.688   1.834  0.9526  1.5019  0.1775
   22MOL   H15222874   0.634   1.692   1.714  1.4872  1.0690  0.7563
   22MOL   H15322875   0.613   1.548   1.829 -2.2459 -0.3486 -0.7430
   22MOL   H15422876   0.513   1.515   2.031  0.1486 -0.8198 -0.1975
   22MOL   H15522877   0.508   1.421   2.244 -1.8348  0.1740 -0.8909
   22MOL   H15622878   0.861   1.659   2.349  1.9520  0.2609 -2.3256
   22MOL   H15722879   0.875   1.734   2.131 -0.9105 -0.4006 -2.8446
   22MOL   H15822880   0.887   1.867   1.794 -1.2868  0.1813 -0.7449
   22MOL   H15922881   1.116   1.828   1.723  0.8221 -0.2313 -0.3586
   22MOL   H16022882   1.187   1.654   1.487  0.7809  0.0876 -0.5450
   22MOL   H16122883   1.334   1.820   1.373 -2.0894 -0.1289  0.2956
   22MOL   H16222884   1.553   1.656   1.301  0.5988 -0.8024 -1.2832
   22MOL   H16322885   1.502   1.609   1.058 -1.8197  1.0839  0.4717
   22MOL   C16422886   0.599   1.519   2.533  0.1191 -0.9059 -0.7532
   22MOL   C16522887   0.623   1.643   2.587  0.2607  1.1539 -0.1197
   22MOL   C16622888   0.533   1.698   2.682 -0.2723  0.5438 -0.7038
   22MOL   C16722889   0.426   1.622   2.731 -0.2556  0.1654 -0.0936
   22MOL   S16822890   0.321   1.685   2.857 -0.0304 -0.0019 -0.4194
   22MOL   O16922891   0.329   1.832   2.847  0.4694 -0.5375 -0.4408
   22MOL   O17022892   0.364   1.606   2.978 -0.1321  0.3565 -0.1524
   22MOL   C17122893   0.155   1.637   2.798 -0.4795 -0.5965  0.0499
   22MOL   C17222894   0.092   1.719   2.699  0.2379  0.6650 -0.1304
   22MOL   C17322895   8.225   1.684   2.639  0.1949 -0.4383 -0.1170
   22MOL   C17422896   8.166   1.562   2.680 -0.4271  0.8651  0.4580
   22MOL   O17522897   8.041   1.529   2.638 -0.1280 -0.2345 -0.4850
   22MOL   C17622898   7.936   1.565   2.710 -0.0371  0.4216 -0.2993
   22MOL   C17722899   7.905   1.510   2.834 -1.0443  0.0196 -0.0166
   22MOL   C17822900   7.787   1.556   2.902 -0.6044  0.3171  0.2208
   22MOL   C17922901   7.703   1.656   2.848  0.6625  0.4862  0.4179
   22MOL   C18022902   7.580   1.698   2.931 -0.0870  0.5088  0.5388
   22MOL   C18122903   7.643   1.773   3.058  0.2868  0.0384  0.0342
   22MOL   C18222904   7.500   1.799   2.851 -0.3362 -0.2320 -0.4210
   22MOL   C18322905   7.491   1.581   2.975 -0.1686 -0.3401 -0.0475
   22MOL   C18422906   7.495   1.451   2.916 -0.2919  0.5667  0.1622
   22MOL   C18522907   7.403   1.347   2.956 -0.1546 -0.2810 -0.0875
   22MOL   C18622908   7.297   1.378   3.046  0.2888 -0.3552 -0.2544
   22MOL   O18722909   7.206   1.283   3.076  0.3369 -0.5939 -0.0268
   22MOL   C18822910   7.298   1.504   3.110  0.0202  0.4037  0.9375
   22MOL   C18922911   7.385   1.605   3.067  0.8492  0.4110 -0.3896
   22MOL   C19022912   7.737   1.705   2.713  0.0962  0.5591 -0.3284
   22MOL   C19122913   7.847   1.659   2.650 -0.0980 -0.0493 -0.3887
   22MOL   C19222914   8.236   1.468   2.772 -0.0002 -0.4714  0.2269
   22MOL   C19322915   0.096   1.517   2.834  0.2145  0.4020  0.0897
   22MOL   C19422916   0.411   1.494   2.684 -0.7733 -0.8195 -0.2750
   22MOL   C19522917   0.498   1.436   2.586  0.3951 -0.1506  1.4599
   22MOL   H19622918   0.707   1.702   2.554 -0.0392  0.9330 -1.2866
   22MOL   H19722919   0.557   1.797   2.720 -0.6360 -0.6443  2.8265
   22MOL   H19822920   0.129   1.815   2.668 -0.4358  0.1679 -2.6009
   22MOL   H19922921   8.175   1.743   2.563  0.2115 -1.6655 -1.0890
   22MOL   H20022922   7.964   1.433   2.881 -3.3001 -1.1101  1.0741
   22MOL   H20122923   7.764   1.508   2.997 -0.6786 -0.8017 -0.3529
   22MOL   H20222924   7.560   1.817   3.114  0.4995  0.5452 -0.0463
   22MOL   H20322925   7.715   1.846   3.021  1.0284 -0.7240 -0.0382
   22MOL   H20422926   7.703   1.702   3.116 -0.6886 -1.9596 -1.3228
   22MOL   H20522927   7.462   1.747   2.763  0.5392 -1.5131 -0.0560
   22MOL   H20622928   7.418   1.853   2.899  1.2223  1.1912  0.6716
   22MOL   H20722929   7.563   1.879   2.813  0.4066  0.7049  2.7024
   22MOL   H20822930   7.574   1.421   2.850  0.8838 -2.1529  2.7275
   22MOL   H20922931   7.412   1.245   2.920  1.1678 -0.6171  1.1324
   22MOL   H21022932   7.213   1.541   3.165 -0.8635 -0.8329  0.4518
   22MOL   H21122933   7.361   1.702   3.109 -1.5211 -0.6863  0.8126
   22MOL   H21222934   7.670   1.772   2.661  0.3391 -0.4789 -1.9923
   22MOL   H21322935   7.869   1.693   2.550  0.3145  0.0803 -0.2561
   22MOL   H21422936   8.199   1.370   2.796 -0.2119  0.0979  2.3410
   22MOL   H21522937   0.146   1.458   2.910 -2.6093 -0.7490  1.1123
   22MOL   H21622938   0.335   1.433   2.729 -0.2166 -0.9063  0.5556
   22MOL   H21722939   0.489   1.335   2.548  0.6857  0.5802 -0.6050
   22MOL   C21822940   7.093   1.269   2.992 -0.3283 -0.7335  0.3919
   22MOL   C21922941   7.039   1.142   2.991  0.5156  0.2232 -0.0663
   22MOL   C22022942   6.927   1.122   2.908 -0.0254 -0.3212 -0.6343
   22MOL   C22122943   6.868   1.228   2.829 -0.3168 -0.3825 -0.8368
   22MOL   S22222944   6.738   1.191   2.712  0.0781  0.1873 -0.4283
   22MOL   O22322945   6.607   1.211   2.784 -0.8475  0.7297  0.3955
   22MOL   O22422946   6.780   1.060   2.660 -0.4042  0.2615 -0.2285
   22MOL   C22522947   6.749   1.288   2.572 -0.4616 -0.3684  0.6066
   22MOL   C22622948   6.867   1.306   2.499 -0.3428 -0.8494  0.4005
   22MOL   C22722949   6.870   1.409   2.398 -0.1023  0.9408  0.9392
   22MOL   C22822950   6.745   1.467   2.349 -0.3873 -0.1112  0.5836
   22MOL   O22922951   6.746   1.558   2.245  0.0828  0.6130 -0.4249
   22MOL   C23022952   6.844   1.654   2.249 -0.4290  0.0007  0.3497
   22MOL   C23122953   6.932   1.686   2.143 -0.1964  0.0304 -0.2470
   22MOL   C23222954   7.022   1.790   2.164  0.1299 -0.2686  0.3852
   22MOL   C23322955   7.031   1.868   2.284  1.3018 -0.0558 -0.5713
   22MOL   C23422956   7.135   1.975   2.308 -0.5267 -0.2699 -0.0548
   22MOL   C23522957   7.251   1.909   2.384  0.1473 -0.5102 -0.5202
   22MOL   C23622958   7.213   2.023   2.179  0.1945  0.2957 -0.5964
   22MOL   C23722959   7.063   2.095   2.378 -0.2385  0.2323  0.5599
   22MOL   C23822960   7.062   2.110   2.517 -0.4475  0.5987 -0.2439
   22MOL   C23922961   7.009   2.226   2.579  0.1168  0.0399 -0.4470
   22MOL   C24022962   6.947   2.325   2.497 -0.8878  0.7687  0.3590
   22MOL   O24122963   6.906   2.441   2.561 -0.3308 -0.0839 -0.3068
   22MOL   C24222964   6.948   2.312   2.362  0.0044 -0.0897  0.1312
   22MOL   C24322965   7.001   2.197   2.299  0.7124  0.4235  0.2881
   22MOL   C24422966   6.944   1.839   2.386 -0.0239 -0.2846  0.3506
   22MOL   C24522967   6.846   1.737   2.369  0.3362  0.2355 -0.3644
   22MOL   C24622968   6.628   1.434   2.409 -0.7665  0.1840 -0.1564
   22MOL   C24722969   6.631   1.351   2.521  0.3382  0.1957 -1.0540
   22MOL   C24822970   6.923   1.357   2.843  0.4733 -0.6962 -0.1216
   22MOL   C24922971   7.032   1.377   2.923 -0.3700  0.3960 -0.7609
   22MOL   H25022972   7.076   1.058   3.048 -0.3393 -0.7045 -0.8594
   22MOL   H25122973   6.876   1.027   2.905 -1.2386  0.3397 -0.8454
   22MOL   H25222974   6.958   1.257   2.530  0.6895  1.7638  1.6441
   22MOL   H25322975   6.968   1.426   2.355  0.7305 -2.6199  1.2948
   22MOL   H25422976   6.923   1.622   2.057  0.4606  0.2728 -0.4930
   22MOL   H25522977   7.088   1.819   2.084  0.8171  1.4894  1.5548
   22MOL   H25622978   7.298   1.821   2.339  0.8170 -1.2380  1.5639
   22MOL   H25722979   7.224   1.878   2.485 -0.5790 -0.0799 -0.5858
   22MOL   H25822980   7.330   1.983   2.395  0.4415 -0.4198 -2.8696
   22MOL   H25922981   7.163   2.084   2.104  0.8592  0.0872 -1.2140
   22MOL   H26022982   7.288   2.100   2.202  2.4068 -1.9741 -0.0080
   22MOL   H26122983   7.262   1.950   2.115  0.6845  0.3096 -0.2462
   22MOL   H26222984   7.114   2.042   2.582  1.6986  1.6571 -0.7935
   22MOL   H26322985   7.008   2.244   2.686  1.3566  1.3645 -0.6439
   22MOL   H26422986   6.918   2.390   2.293 -0.4080 -2.3951 -2.3677
   22MOL   H26522987   6.987   2.194   2.192 -0.0460  1.6772  0.3415
   22MOL   H26622988   6.934   1.891   2.480 -1.1889 -0.0073  0.0899
   22MOL   H26722989   6.778   1.712   2.450  2.2357  0.1794  1.2653
   22MOL   H26822990   6.538   1.481   2.372 -0.0486  1.7643  0.0548
   22MOL   H26922991   6.543   1.339   2.582  1.9368  1.0723  1.5462
   22MOL   H27022992   6.878   1.443   2.797  3.2225 -0.0014 -1.6225
   22MOL   H27122993   7.071   1.477   2.931  1.7106 -0.4773  0.6033
   22MOL   C27222994   6.836   2.541   2.500  0.5956 -0.5433  0.5795
   22MOL   C27322995   6.894   2.674   2.496  0.4345 -0.6138  0.2081
   22MOL   C27422996   6.824   2.775   2.431  0.4055  0.1034 -0.3770
   22MOL   C27522997   6.698   2.752   2.376  0.7000  0.1745  0.1351
   22MOL   S27622998   6.621   2.882   2.277  0.2855  0.1642 -0.1708
   22MOL   O27722999   6.684   3.011   2.314  0.1754 -0.5118  0.2309
   22MOL   O27823000   6.478   2.873   2.307 -0.8432 -0.3368  0.0383
   22MOL   C27923001   6.667   2.844   2.104  0.4210  0.8351 -0.2631
   22MOL   C28023002   6.572   2.849   2.005  0.6857  0.6982  0.4236
   22MOL   C28123003   6.599   2.802   1.875 -0.8766  0.1887 -0.0770
   22MOL   C28223004   6.724   2.745   1.849 -0.2785  0.0565 -0.1610
   22MOL   O28323005   6.753   2.691   1.728 -0.1861 -0.5335  0.2143
   22MOL   C28423006   6.669   2.594   1.678  0.2527  0.9365 -0.2576
   22MOL   C28523007   6.630   2.484   1.758  0.3974 -0.3537 -0.4445
   22MOL   C28623008   6.586   2.362   1.699  0.2903 -0.2899 -0.0634
   22MOL   C28723009   6.564   2.350   1.563  0.4273 -0.1530 -0.6891
   22MOL   C28823010   6.504   2.228   1.496  0.3661 -0.3937 -0.1879
   22MOL   C28923011   6.467   2.117   1.600 -0.1077  0.1407  0.1566
   22MOL   C29023012   6.380   2.272   1.418  0.0605 -0.4946 -0.0701
   22MOL   C29123013   6.604   2.164   1.400  0.8729  0.7580 -0.0330
   22MOL   C29223014   6.744   2.194   1.417  0.5183  0.0829 -0.7469
   22MOL   C29323015   6.840   2.118   1.343  0.7184 -0.3100 -0.7383
   22MOL   C29423016   6.792   2.024   1.246 -0.7821  0.5225  0.3591
   22MOL   O29523017   6.880   1.948   1.181  0.0822 -0.3100  0.7513
   22MOL   C29623018   6.652   2.007   1.219 -0.4566 -0.2895  0.0636
   22MOL   C29723019   6.561   2.082   1.294  0.4203 -0.4345 -0.3245
   22MOL   C29823020   6.606   2.463   1.484 -1.3046  0.0670 -0.0605
   22MOL   C29923021   6.654   2.585   1.540 -0.4290 -0.4354  0.5434
   22MOL   C30023022   6.828   2.753   1.945  0.2455  0.2110  0.0755
   22MOL   C30123023   6.799   2.802   2.072  0.2160  0.2752 -0.1631
   22MOL   C30223024   6.631   2.623   2.384 -0.4348  0.2054  0.1353
   22MOL   C30323025   6.702   2.519   2.449  0.2738 -0.3155  0.3608
   22MOL   H30423026   6.984   2.701   2.550  0.1374 -1.6523  1.2300
   22MOL   H30523027   6.871   2.872   2.428  2.2270 -0.6237  2.4717
   22MOL   H30623028   6.471   2.884   2.020 -0.2340 -1.9527  0.7609
   22MOL   H30723029   6.522   2.812   1.800 -1.4468  1.8532  0.7062
   22MOL   H30823030   6.656   2.472   1.862  0.0597  0.8786 -0.2170
   22MOL   H30923031   6.580   2.280   1.769 -0.3108  0.0304  0.2655
   22MOL   H31023032   6.403   2.148   1.682 -0.3659 -2.1439  0.8455
   22MOL   H31123033   6.562   2.087   1.644  1.2674  3.8393 -0.0599
   22MOL   H31223034   6.417   2.030   1.559  1.0071 -0.4175 -0.0166
   22MOL   H31323035   6.314   2.328   1.484  0.8247  0.2351  0.0982
   22MOL   H31423036   6.414   2.336   1.336  0.4774  0.0226  0.4971
   22MOL   H31523037   6.320   2.186   1.389 -1.5897 -0.0232  1.9064
   22MOL   H31623038   6.783   2.261   1.493 -0.7698  0.9013 -0.7858
   22MOL   H31723039   6.946   2.134   1.359  0.5361 -0.3797  0.6122
   22MOL   H31823040   6.619   1.931   1.150 -1.1120  0.1781 -0.1506
   22MOL   H31923041   6.455   2.063   1.283  0.7841 -2.2689 -0.7561
   22MOL   H32023042   6.599   2.449   1.377  1.5678  0.3994 -0.3326
   22MOL   H32123043   6.701   2.663   1.481 -0.4222 -0.0083  1.1130
   22MOL   H32223044   6.926   2.711   1.924 -0.3707 -0.6752 -1.0889
   22MOL   H32323045   6.878   2.782   2.142 -0.6785 -2.0144  0.2313
   22MOL   H32423046   6.532   2.613   2.342  0.2504 -1.8301 -1.1117
   22MOL   H32523047   6.652   2.426   2.468 -0.2376 -0.1308 -0.0759
   22MOL   C32623048   6.933   2.009   1.065 -0.3255  0.0481 -0.5465
   22MOL   C32723049   6.869   2.040   0.945 -0.1070  0.1533  0.0701
   22MOL   C32823050   6.936   2.114   0.849  0.4238 -0.0436  0.5801
   22MOL   C32923051   7.070   2.151   0.858  0.1499 -0.0126  0.1467
   22MOL   S33023052   7.150   2.248   0.739  0.0564 -0.0400 -0.0911
   22MOL   O33123053   7.148   2.183   0.608 -0.5198  0.1704  0.8799
   22MOL   O33223054   7.277   2.278   0.802 -0.1468  0.7562  0.0518
   22MOL   C33323055   7.052   2.400   0.716 -0.1821 -0.8315  0.0457
   22MOL   C33423056   6.928   2.400   0.657  0.4976  0.0307  0.2768
   22MOL   C33523057   6.872   2.523   0.627 -0.5872 -0.4485 -0.4531
   22MOL   C33623058   6.935   2.643   0.664  0.0048 -0.2125 -0.5669
   22MOL   O33723059   6.868   2.758   0.635 -0.0803 -0.0094  0.2358
   22MOL   C33823060   6.832   2.834   0.749  0.0731 -0.1095  0.2388
   22MOL   C33923061   6.708   2.806   0.803  0.4779 -0.0567 -0.3435
   22MOL   C34023062   6.666   2.873   0.921 -0.9281 -0.9280 -0.2369
   22MOL   C34123063   6.741   2.981   0.969 -0.3628 -0.1777  0.3354
   22MOL   C34223064   6.694   3.066   1.090 -0.2899  0.0704  0.4653
   22MOL   C34323065   6.729   3.215   1.053 -0.0382 -0.3433  1.2452
   22MOL   C34423066   6.546   3.065   1.117  0.3914 -0.1841 -0.0372
   22MOL   C34523067   6.760   3.027   1.223  0.1117  0.2281  0.3648
   22MOL   C34623068   6.757   3.109   1.335  1.0356  0.2816  0.2198
   22MOL   C34723069   6.819   3.071   1.459 -0.1679  0.2497 -0.1382
   22MOL   C34823070   6.884   2.944   1.471  0.7134  1.0915  0.2690
   22MOL   O34923071   6.942   2.901   1.587  0.5846  0.5521  0.1810
   22MOL   C35023072   6.880   2.854   1.358 -0.1436  0.7031  0.2956
   22MOL   C35123073   6.814   2.894   1.240  0.1859  0.9616 -0.4051
   22MOL   C35223074   6.868   3.002   0.914  0.5296  0.3429 -0.4726
   22MOL   C35323075   6.914   2.931   0.809  0.2639  0.8712  0.0445
   22MOL   C35423076   7.054   2.639   0.731 -0.0939  0.1167  0.1241
   22MOL   C35523077   7.122   2.520   0.744  0.6353  0.3311  0.0312
   22MOL   C35623078   7.143   2.103   0.972  0.4055 -0.0856 -0.8003
   22MOL   C35723079   7.071   2.039   1.080  0.4137 -0.0119  0.1406
   22MOL   H35823080   6.769   1.998   0.936  0.8741 -2.1240 -0.6683
   22MOL   H35923081   6.884   2.145   0.759 -0.0064 -1.3687  0.3652
   22MOL   H36023082   6.886   2.315   0.608  3.4231 -0.6440 -1.1714
   22MOL   H36123083   6.783   2.526   0.565 -1.2337 -0.0345  0.4642
   22MOL   H36223084   6.650   2.726   0.760  0.8686 -1.2998  1.3995
   22MOL   H36323085   6.570   2.856   0.968 -1.4434  2.1310 -0.0950
   22MOL   H36423086   6.673   3.287   1.112  0.9607  1.9214 -0.4811
   22MOL   H36523087   6.709   3.233   0.947  0.8902  1.4014  1.3424
   22MOL   H36623088   6.836   3.236   1.061  0.5847 -2.9704  0.4449
   22MOL   H36723089   6.485   3.092   1.030  1.6646 -0.1687 -0.9318
   22MOL   H36823090   6.524   2.961   1.138 -0.0767  0.0315  0.5710
   22MOL   H36923091   6.516   3.125   1.203  0.6070  0.4278 -0.3815
   22MOL   H37023092   6.721   3.210   1.339  0.4181  0.1517 -1.7399
   22MOL   H37123093   6.822   3.144   1.538 -1.9732 -0.1794  0.3472
   22MOL   H37223094   6.933   2.760   1.364  1.5272  1.6096  0.1310
   22MOL   H37323095   6.815   2.826   1.156  1.4843  0.6613 -0.1679
   22MOL   H37423096   6.934   3.084   0.939  2.5143 -0.9989 -1.2360
   22MOL   H37523097   7.006   2.959   0.760 -0.8797  3.2004 -0.8344
   22MOL   H37623098   7.106   2.725   0.770  0.9342 -0.2204 -0.4904
   22MOL   H37723099   7.223   2.525   0.781  0.1462 -0.6566  1.5832
   22MOL   H37823100   7.248   2.130   0.975  0.2963  0.1766  2.0767
   22MOL   H37923101   7.122   2.013   1.172  0.4372 -1.7526 -0.3394
   22MOL   C38023102   6.994   2.988   1.679 -0.0529  0.4448 -0.2071
   22MOL   C38123103   6.916   3.039   1.779 -0.0851  0.1742 -0.1018
   22MOL   C38223104   6.977   3.110   1.881  0.3225  0.0063 -0.7400
   22MOL   C38323105   7.117   3.140   1.876 -0.6713  0.0397 -0.0640
   22MOL   S38423106   7.190   3.243   2.008  0.1862  0.1042  0.1053
   22MOL   O38523107   7.301   3.305   1.931  0.0634  0.2681 -0.1382
   22MOL   O38623108   7.230   3.150   2.114  0.2990  0.0226  0.2393
   22MOL   C38723109   7.076   3.367   2.065  0.3791  0.3395 -0.3469
   22MOL   C38823110   7.038   3.378   2.200 -0.6719  0.1332  0.0457
   22MOL   C38923111   6.944   3.479   2.232  0.6180  0.6322 -0.2488
   22MOL   C39023112   6.894   3.563   2.128  0.3704 -0.0214  0.0851
   22MOL   O39123113   6.796   3.657   2.160 -0.1946  0.2660 -0.1723
   22MOL   C39223114   6.687   3.618   2.228  0.0205 -0.0243  0.0599
   22MOL   C39323115   6.578   3.572   2.154 -0.8165 -0.2330 -0.3056
   22MOL   C39423116   6.460   3.535   2.220 -0.2922 -0.1392  0.7858
   22MOL   C39523117   6.455   3.558   2.358 -0.7400 -0.3867  0.2138
   22MOL   C39623118   6.320   3.526   2.440 -0.1755  0.0090  0.1149
   22MOL   C39723119   6.273   3.648   2.513  0.1424  0.1730 -0.5998
   22MOL   C39823120   6.204   3.502   2.346 -0.0565  0.4031  0.1425
   22MOL   C39923121   6.337   3.401   2.527 -0.2099  0.9747  0.1788
   22MOL   C40023122   6.332   3.401   2.667 -0.3932  0.0033 -0.0775
   22MOL   C40123123   6.357   3.285   2.741 -0.3195  0.3894  0.6091
   22MOL   C40223124   6.367   3.156   2.683 -0.4630  0.2568 -0.6477
   22MOL   O40323125   6.364   3.037   2.760  0.2781 -0.5299 -0.3184
   22MOL   C40423126   6.370   3.154   2.544  0.3988  0.6204 -0.7900
   22MOL   C40523127   6.365   3.276   2.469 -0.1419 -0.0156  0.2946
   22MOL   C40623128   6.568   3.602   2.434  0.3720 -0.1292 -0.2353
   22MOL   C40723129   6.683   3.627   2.369 -0.3601 -0.9255 -0.5089
   22MOL   C40823130   6.931   3.544   1.995 -0.3085 -0.9092  0.9748
   22MOL   C40923131   7.026   3.448   1.962 -0.5143 -0.4576 -0.2193
   22MOL   C41023132   7.187   3.111   1.762 -0.0355  0.1969 -0.3685
   22MOL   C41123133   7.130   3.028   1.668  0.0111 -0.2316  0.0763
   22MOL   H41223134   6.815   3.003   1.786 -1.3224  3.4794 -0.0849
   22MOL   H41323135   6.922   3.135   1.971  0.8498 -0.9842 -0.1342
   22MOL   H41423136   7.073   3.313   2.279 -1.5514  0.3974  0.6646
   22MOL   H41523137   6.913   3.497   2.334 -2.1096 -0.2716 -0.8846
   22MOL   H41623138   6.583   3.561   2.047  1.0169  1.2676 -0.3924
   22MOL   H41723139   6.383   3.494   2.156 -0.0264 -0.3910  0.6286
   22MOL   H41823140   6.265   3.731   2.443 -1.5984  0.3487 -0.2228
   22MOL   H41923141   6.354   3.676   2.580 -0.6874  2.7338 -0.6328
   22MOL   H42023142   6.185   3.643   2.576 -0.5502 -0.4552 -1.5878
   22MOL   H42123143   6.114   3.480   2.403 -0.6196  2.3392  0.0454
   22MOL   H42223144   6.187   3.593   2.289  0.5788  0.1865 -0.3926
   22MOL   H42323145   6.209   3.408   2.292  0.6743  0.5406 -0.0313
   22MOL   H42423146   6.321   3.489   2.729  3.8626 -0.3018  1.2890
   22MOL   H42523147   6.351   3.271   2.848  0.1987 -2.0855  0.3337
   22MOL   H42623148   6.387   3.060   2.493  0.5417 -0.1620  0.6857
   22MOL   H42723149   6.367   3.289   2.362 -2.6701  1.3235  0.3718
   22MOL   H42823150   6.554   3.616   2.540 -0.0422  1.0220 -0.4362
   22MOL   H42923151   6.769   3.671   2.417 -0.6825  0.3852 -1.0891
   22MOL   H43023152   6.886   3.612   1.924 -0.2800 -1.0160  0.8537
   22MOL   H43123153   7.060   3.438   1.861 -0.7292 -0.5956 -0.2786
   22MOL   H43223154   7.288   3.150   1.758 -0.5704  1.5606 -0.6048
   22MOL   H43323155   7.194   2.992   1.588  1.8435  0.3396  1.2579
   22MOL   C43423156   6.474   3.032   2.848 -0.4133  0.0729 -0.4189
   22MOL   C43523157   6.447   3.070   2.979 -0.2018 -0.3011  0.2603
   22MOL   C43623158   6.549   3.069   3.074 -1.2268 -0.3766 -0.0683
   22MOL   C43723159   6.678   3.049   3.028 -0.3410 -0.2179 -0.0263
   22MOL   S43823160   6.802   3.050   3.158 -0.2718  0.1829  0.2958
   22MOL   O43923161   6.739   3.005   3.282  0.6928  0.0089  0.0808
   22MOL   O44023162   6.863   3.185   3.156 -0.3582 -0.0724  0.2727
   22MOL   C44123163   6.921   2.932   3.115 -0.2665  0.3562 -0.2318
   22MOL   C44223164   6.894   2.797   3.115  0.1398 -0.0065 -0.2230
   22MOL   C44323165   6.997   2.703   3.097  0.4579  0.4202 -0.4929
   22MOL   C44423166   7.124   2.746   3.057  0.1198  0.4178 -0.0804
   22MOL   O44523167   7.228   2.658   3.044 -0.0249  0.6312  0.1527
   22MOL   C44623168   7.274   2.609   2.927  0.0369  0.5893  0.3178
   22MOL   C44723169   7.402   2.636   2.879 -1.0129  0.4238  0.5740
   22MOL   C44823170   7.449   2.585   2.754 -0.2164  0.1730 -0.7970
   22MOL   C44923171   7.364   2.497   2.680  0.6401  0.3900  0.0892
   22MOL   C45023172   7.403   2.421   2.555 -0.6310 -0.5518  0.3277
   22MOL   C45123173   7.558   2.439   2.535 -0.5214 -0.2959  0.6550
   22MOL   C45223174   7.376   2.270   2.562 -0.4150  0.0313 -0.5578
   22MOL   C45323175   7.332   2.481   2.429  0.3084 -0.3296 -0.3577
   22MOL   C45423176   7.316   2.407   2.311  0.2880 -0.4795 -0.3319
   22MOL   C45523177   7.262   2.465   2.195  0.3060  0.3428 -0.1154
   22MOL   C45623178   7.236   2.601   2.186  0.3314  0.1608 -0.7336
   22MOL   O45723179   7.186   2.650   2.067 -0.0831  0.2178  0.1323
   22MOL   C45823180   7.233   2.669   2.316 -0.0470  0.0734  0.1058
   22MOL   C45923181   7.275   2.607   2.430 -0.2473  0.7061 -0.8187
   22MOL   C46023182   7.231   2.476   2.724  0.1697 -0.5938  0.1626
   22MOL   C46123183   7.188   2.528   2.846  0.5778 -0.1790 -0.1532
   22MOL   C46223184   7.157   2.883   3.053  0.1433 -0.2086 -0.3533
   22MOL   C46323185   7.051   2.972   3.075 -0.6038  0.2591 -1.0668
   22MOL   C46423186   6.712   3.008   2.894 -0.3687  0.3744 -0.3664
   22MOL   C46523187   6.605   3.003   2.801  0.2792  0.2239 -0.2851
   22MOL   H46623188   6.345   3.098   2.998 -0.4082 -0.5277 -0.4744
   22MOL   H46723189   6.537   3.093   3.178 -0.5380 -1.4555  0.2671
   22MOL   H46823190   6.796   2.763   3.146  0.0691 -0.2759 -0.7334
   22MOL   H46923191   6.976   2.597   3.098 -0.4381  0.5791 -1.0233
   22MOL   H47023192   7.478   2.678   2.943 -0.6876 -1.8227  1.7148
   22MOL   H47123193   7.551   2.609   2.729 -0.4314  1.3744 -0.5797
   22MOL   H47223194   7.578   2.546   2.522 -1.2107 -0.3758 -1.3133
   22MOL   H47323195   7.593   2.384   2.448 -1.6493  0.6705 -0.4272
   22MOL   H47423196   7.619   2.403   2.618  1.3545 -0.4206 -0.7522
   22MOL   H47523197   7.438   2.213   2.493 -0.1609 -0.9119  0.4226
   22MOL   H47623198   7.400   2.245   2.665  2.5297  0.8552 -1.0135
   22MOL   H47723199   7.268   2.252   2.554 -0.0161 -1.1905 -4.0073
   22MOL   H47823200   7.354   2.306   2.304 -0.7442 -0.8640 -0.3589
   22MOL   H47923201   7.249   2.406   2.106 -1.1650  1.3252 -0.5759
   22MOL   H48023202   7.193   2.769   2.329  0.3653 -0.1378  3.4218
   22MOL   H48123203   7.263   2.671   2.516  0.4577 -1.1598  0.7038
   22MOL   H48223204   7.166   2.412   2.666  3.5000 -0.6842 -3.6669
   22MOL   H48323205   7.087   2.504   2.874  0.3589  2.0204  1.0849
   22MOL   H48423206   7.260   2.913   3.039  0.2421 -0.8213 -0.9844
   22MOL   H48523207   7.074   3.077   3.062  0.8160  0.0453 -0.3047
   22MOL   H48623208   6.816   2.998   2.866 -0.0047 -0.7261  1.2659
   22MOL   H48723209   6.628   2.971   2.701  1.5307 -0.4168  0.1874
   22MOL   C48823210   7.280   2.722   1.993  0.0280 -0.5986  0.4548
   22MOL   C48923211   7.331   2.665   1.873 -0.1983  0.3765  0.0233
   22MOL   C49023212   7.439   2.729   1.807 -0.7215 -0.4053  0.2264
   22MOL   C49123213   7.469   2.862   1.841 -0.0739  0.2660  0.3014
   22MOL   S49223214   7.572   2.956   1.727 -0.0342  0.4156 -0.5661
   22MOL   O49323215   7.473   3.024   1.641  0.2616  0.2429 -0.4638
   22MOL   O49423216   7.678   2.866   1.680 -0.3687 -0.0602 -0.7218
   22MOL   C49523217   7.638   3.076   1.845  0.1387  0.0784  0.2106
   22MOL   C49623218   7.630   3.213   1.818 -0.1470  0.7191  0.0344
   22MOL   C49723219   7.699   3.310   1.894 -0.2571 -0.0424 -0.0811
   22MOL   C49823220   7.763   3.269   2.012 -0.5031 -0.2794  0.0289
   22MOL   O49923221   7.823   3.364   2.088 -0.5469  0.0936  0.0264
   22MOL   C50023222   7.754   3.417   2.194 -0.2893 -0.9991 -0.3955
   22MOL   C50123223   7.823   3.442   2.313  0.6399  0.0166 -0.0082
   22MOL   C50223224   7.761   3.501   2.426  0.1426  0.6475  0.2220
   22MOL   C50323225   7.628   3.547   2.422 -0.4620 -1.1432  0.1800
   22MOL   C50423226   7.574   3.632   2.539  0.5087  0.3963 -0.2078
   22MOL   C50523227   7.683   3.715   2.603  0.0271  0.9323  0.3998
   22MOL   C50623228   7.473   3.733   2.486  0.2876 -0.2283 -0.4948
   22MOL   C50723229   7.503   3.542   2.644  1.3282  0.4029 -0.1858
   22MOL   C50823230   7.524   3.547   2.783  0.5818 -0.4699 -0.1368
   22MOL   C50923231   7.457   3.468   2.873  0.0239  0.0140  0.4753
   22MOL   C51023232   7.382   3.364   2.821 -0.1544 -0.0614 -0.7943
   22MOL   O51123233   7.331   3.273   2.918 -0.4842 -0.0247 -0.5193
   22MOL   C51223234   7.356   3.345   2.686  0.4864  1.0207 -0.1308
   22MOL   C51323235   7.416   3.437   2.600 -0.1860  0.7835 -0.1974
   22MOL   C51423236   7.556   3.527   2.304  0.2141 -0.4867  0.4592
   22MOL   C51523237   7.616   3.462   2.190  0.3718 -0.7713  0.3159
   22MOL   C51623238   7.775   3.135   2.046  0.8777  0.5532 -0.7039
   22MOL   C51723239   7.710   3.036   1.962 -0.1931  0.0780  0.2461
   22MOL   C51823240   7.405   2.929   1.942  0.3869  0.2754  0.2574
   22MOL   C51923241   7.308   2.858   2.026 -0.5458 -0.6759 -0.2796
   22MOL   H52023242   7.305   2.570   1.829  1.5630 -0.1804  0.1615
   22MOL   H52123243   7.487   2.682   1.723 -0.8564  0.8036 -0.5357
   22MOL   H52223244   7.574   3.251   1.735 -1.0053  0.0575  0.3036
   22MOL   H52323245   7.696   3.413   1.862 -0.8649 -0.6047 -1.8368
   22MOL   H52423246   7.921   3.401   2.332  0.9419  0.9406  0.4626
   22MOL   H52523247   7.824   3.514   2.512  1.0903 -0.7384 -0.2540
   22MOL   H52623248   7.632   3.777   2.676 -0.2453 -0.2092  1.1899
   22MOL   H52723249   7.721   3.789   2.532 -1.0853  1.2772  0.1453
   22MOL   H52823250   7.771   3.667   2.645 -1.2796  0.0138  2.1329
   22MOL   H52923251   7.384   3.688   2.442 -1.1153  1.1583  0.8047
   22MOL   H53023252   7.445   3.805   2.564  0.5178 -1.9319  1.1857
   22MOL   H53123253   7.521   3.787   2.405  2.1631  0.5908  1.1291
   22MOL   H53223254   7.564   3.638   2.826 -0.6108  0.2884 -0.6167
   22MOL   H53323255   7.477   3.472   2.979  0.6573 -0.8367  0.3949
   22MOL   H53423256   7.297   3.261   2.653  1.4318  0.8753 -1.4821
   22MOL   H53523257   7.377   3.421   2.501 -0.4869 -0.3485  0.0982
   22MOL   H53623258   7.453   3.558   2.303  0.8153  1.5848 -0.3576
   22MOL   H53723259   7.563   3.464   2.096 -0.5787  2.6135  0.8527
   22MOL   H53823260   7.828   3.095   2.132 -0.8992  0.2299  0.2504
   22MOL   H53923261   7.716   2.929   1.973  0.7410 -0.1765 -2.2448
   22MOL   H54023262   7.421   3.031   1.975  1.2886  0.7906 -1.7092
   22MOL   H54123263   7.271   2.901   2.117 -0.8122  0.2446 -0.8128
   22MOL   C54223264   7.424   3.203   2.992  0.2393  0.0106  0.2170
   22MOL   C54323265   7.496   3.095   2.929  0.5302 -0.3469  0.0454
   22MOL   C54423266   7.585   3.026   3.010 -0.1502 -0.1436  0.8609
   22MOL   C54523267   7.603   3.060   3.146 -0.0949 -1.1085  0.0338
   22MOL   S54623268   7.723   2.969   3.245 -0.0119  0.2826  0.0510
   22MOL   O54723269   7.840   2.958   3.154  0.5864 -1.0676 -0.1416
   22MOL   O54823270   7.646   2.851   3.292  0.0228 -1.0269 -0.5669
   22MOL   C54923271   7.759   3.076   3.383  0.0859  0.6849 -0.2672
   22MOL   C55023272   7.700   3.044   3.506  0.0619 -0.5142 -0.0269
   22MOL   C55123273   7.713   3.136   3.609  0.7448  0.0360 -0.6266
   22MOL   C55223274   7.786   3.255   3.586  0.2016  0.2716 -0.3340
   22MOL   O55323275   7.780   3.358   3.677  0.4443 -0.4873 -0.0333
   22MOL   C55423276   7.807   3.335   3.812  0.1016 -0.1011  0.0060
   22MOL   C55523277   7.930   3.305   3.873  0.2603  0.1347  0.0073
   22MOL   C55623278   7.944   3.314   4.012 -0.1978 -0.0267  0.5442
   22MOL   C55723279   7.838   3.343   4.099 -0.0740 -0.7439 -0.0290
   22MOL   C55823280   7.852   3.334   4.251  0.1622 -0.1771 -0.7254
   22MOL   C55923281   7.994   3.297   4.305 -0.2372  0.7326  0.2955
   22MOL   C56023282   7.820   3.465   4.309  0.6296 -0.1572 -0.0840
   22MOL   C56123283   7.765   3.218   4.302  0.3759 -0.4589  0.2453
   22MOL   C56223284   7.671   3.237   4.408 -0.4208 -0.5387 -0.3264
   22MOL   C56323285   7.597   3.133   4.459 -0.1997  0.4047  0.5279
   22MOL   C56423286   7.617   3.001   4.411 -0.6574  0.1294 -0.3859
   22MOL   O56523287   7.563   2.898   4.479 -0.1270  0.0218  0.2844
   22MOL   C56623288   7.710   2.973   4.309  0.5265  0.0907  0.5034
   22MOL   C56723289   7.781   3.083   4.249  0.4588 -0.2349 -0.1532
   22MOL   C56823290   7.710   3.366   4.041 -0.1249  0.2058 -0.2540
   22MOL   C56923291   7.698   3.361   3.899  0.5204 -0.2979  0.4811
   22MOL   C57023292   7.848   3.284   3.458  0.0965 -0.7403  0.0114
   22MOL   C57123293   7.828   3.190   3.356  0.5303  0.1122  0.0594
   22MOL   C57223294   7.519   3.159   3.211  0.4063  0.0844 -0.0875
   22MOL   C57323295   7.422   3.227   3.135  0.8594  0.5341 -0.0968
   22MOL   H57423296   7.486   3.059   2.827 -0.8817  0.1649 -0.0107
   22MOL   H57523297   7.638   2.945   2.962  1.0499  1.9810 -1.4759
   22MOL   H57623298   7.643   2.954   3.520  0.0957 -0.5659 -0.2093
   22MOL   H57723299   7.674   3.107   3.706  1.2410 -0.4810 -0.5744
   22MOL   H57823300   8.018   3.294   3.811  0.6505  0.2486  0.5314
   22MOL   H57923301   8.040   3.299   4.058  0.1372  0.4446  0.0012
   22MOL   H58023302   8.010   3.203   4.252 -1.0977  2.1073 -2.4928
   22MOL   H58123303   7.987   3.266   4.410 -0.7313 -0.2072 -0.0080
   22MOL   H58223304   8.071   3.372   4.288  2.0780 -1.5718  0.3190
   22MOL   H58323305   7.893   3.546   4.301 -1.7087  2.2529  1.9429
   22MOL   H58423306   7.730   3.509   4.267 -0.6655 -0.6604  2.0603
   22MOL   H58523307   7.810   3.449   4.417  0.2335 -0.3318 -0.1445
   22MOL   H58623308   7.652   3.342   4.425  1.2523 -0.1977 -0.4559
   22MOL   H58723309   7.521   3.168   4.527 -0.3671  0.9618  0.0631
   22MOL   H58823310   7.728   2.872   4.274  0.7622  0.8201 -1.5575
   22MOL   H58923311   7.852   3.060   4.172 -0.7998  1.8831 -1.9870
   22MOL   H59023312   7.619   3.380   4.098  0.8028 -1.1555  1.6359
   22MOL   H59123313   7.601   3.390   3.861  1.1223 -0.0568 -0.9168
   22MOL   H59223314   7.882   3.386   3.454  2.8280 -1.4446  3.1652
   22MOL   H59323315   7.858   3.214   3.255 -2.7377 -0.8451 -1.1937
   22MOL   H59423316   7.525   3.180   3.317 -1.4637  1.3204 -0.1992
   22MOL   H59523317   7.350   3.296   3.174  0.7154  0.5046 -0.3137
   22MOL   C59623318   7.632   2.836   4.579 -0.0007 -0.3125  0.6010
   22MOL   C59723319   7.598   2.876   4.708  0.2169  0.1019  0.0399
   22MOL   C59823320   7.658   2.806   4.813 -0.4968  0.2378 -0.3329
   22MOL   C59923321   7.755   2.705   4.788 -0.4687  0.8405  0.3707
   22MOL   S60023322   7.852   2.607   4.906 -0.2333 -0.0665  0.0310
   22MOL   O60123323   7.989   2.665   4.903 -0.0344  0.3250  0.8034
   22MOL   O60223324   7.841   2.464   4.883 -0.4400  0.4695  0.1989
   22MOL   C60323325   7.781   2.642   5.062 -0.3051  0.3033 -0.3914
   22MOL   C60423326   7.858   2.700   5.162 -0.0765  0.1919  0.4655
   22MOL   C60523327   7.804   2.720   5.293 -0.1612 -0.2575 -0.0635
   22MOL   C60623328   7.672   2.668   5.320  0.2321  0.0359 -0.8106
   22MOL   O60723329   7.625   2.673   5.448 -0.3602 -0.9548  0.3413
   22MOL   C60823330   7.579   2.558   5.508  0.6055  0.4041 -0.1352
   22MOL   C60923331   7.441   2.538   5.522 -0.0689  0.0334  0.3687
   22MOL   C61023332   7.398   2.410   5.570  0.0069 -0.3595  0.9371
   22MOL   C61123333   7.492   2.308   5.609  0.7133  0.3992 -0.1412
   22MOL   C61223334   7.458   2.164   5.666 -0.0371  0.3051  0.4135
   22MOL   C61323335   7.309   2.154   5.695 -0.8256 -0.8252  0.0817
   22MOL   C61423336   7.475   2.054   5.555  0.9261 -0.4702  0.0633
   22MOL   C61523337   7.539   2.130   5.798  0.4652  0.0488 -0.5966
   22MOL   C61623338   7.662   2.057   5.802 -0.0164 -0.0762  0.2726
   22MOL   C61723339   7.729   2.036   5.926 -0.2999  0.3665 -1.1605
   22MOL   C61823340   7.686   2.094   6.046  0.3398  0.6674 -0.1184
   22MOL   O61923341   7.762   2.075   6.160  0.7555 -0.5212 -0.6389
   22MOL   C62023342   7.566   2.168   6.041 -0.2665  0.2213 -0.3042
   22MOL   C62123343   7.494   2.177   5.925 -0.3214  0.6954 -0.2787
   22MOL   C62223344   7.630   2.331   5.593  0.0198 -0.5806 -0.0116
   22MOL   C62323345   7.671   2.458   5.541  0.5857 -0.1073  0.1936
   22MOL   C62423346   7.595   2.615   5.216  0.1065  0.6415 -0.1055
   22MOL   C62523347   7.653   2.598   5.090  0.2065 -0.1519  0.2254
   22MOL   C62623348   7.781   2.673   4.658 -0.1038  0.6576  0.6987
   22MOL   C62723349   7.723   2.735   4.548  0.1912  0.0522 -0.8278
   22MOL   H62823350   7.528   2.956   4.727 -2.0221 -2.0359  1.0574
   22MOL   H62923351   7.634   2.834   4.915 -1.5733  3.4921 -1.4192
   22MOL   H63023352   7.959   2.734   5.145 -0.3447  0.0049 -1.6393
   22MOL   H63123353   7.867   2.764   5.369  1.2485  1.9896 -2.4444
   22MOL   H63223354   7.364   2.612   5.501  1.2530  1.3283  0.0163
   22MOL   H63323355   7.291   2.395   5.570  0.0271 -0.5185 -0.0534
   22MOL   H63423356   7.282   2.060   5.743  0.0763 -0.3180  1.6142
   22MOL   H63523357   7.252   2.170   5.604 -0.7946  0.0225  0.2075
   22MOL   H63623358   7.282   2.238   5.760 -0.2496 -0.7170  0.1840
   22MOL   H63723359   7.580   2.036   5.534  0.7307  0.0842 -1.4766
   22MOL   H63823360   7.429   1.963   5.595 -0.3269 -0.0492 -0.4062
   22MOL   H63923361   7.423   2.076   5.462 -0.5484  1.6434  1.3341
   22MOL   H64023362   7.702   1.999   5.720 -0.2294  1.9818 -1.3218
   22MOL   H64123363   7.821   1.978   5.932  0.2164  1.4392  2.6598
   22MOL   H64223364   7.520   2.215   6.126 -1.7679  4.0792 -3.1098
   22MOL   H64323365   7.400   2.231   5.922  0.7548  2.8068  1.9144
   22MOL   H64423366   7.709   2.264   5.625 -0.2694 -1.4073 -1.0115
   22MOL   H64523367   7.776   2.471   5.520 -0.0084  2.5498 -1.3826
   22MOL   H64623368   7.497   2.579   5.243  0.2841 -1.5506 -2.2056
   22MOL   H64723369   7.598   2.545   5.013 -2.5377  2.2729  0.4585
   22MOL   H64823370   7.851   2.591   4.646 -1.4296 -0.5721  1.2926
   22MOL   H64923371   7.742   2.701   4.448 -1.4955 -2.0293 -0.4771
   22MOL   C65023372   7.797   1.946   6.191  0.6100  0.2074  1.5679
   22MOL   C65123373   7.934   1.920   6.178  0.5832 -0.4759 -0.3101
   22MOL   C65223374   7.987   1.797   6.218  0.4667  0.4841  0.0004
   22MOL   C65323375   7.896   1.695   6.234 -0.0334  0.7441  0.3738
   22MOL   S65423376   7.961   1.529   6.232 -0.3930 -0.0114 -0.3027
   22MOL   O65523377   8.057   1.522   6.119 -0.6790 -0.2316  0.4137
   22MOL   O65623378   7.848   1.430   6.227 -0.5659 -0.6175 -0.3583
   22MOL   C65723379   8.065   1.501   6.384 -0.1013  0.1156 -0.2362
   22MOL   C65823380   8.145   1.594   6.447 -0.7050 -0.9914 -0.3129
   22MOL   C65923381   8.222   1.556   6.563  0.1963 -0.7727 -0.0063
   22MOL   C66023382   8.227   1.423   6.603 -0.2425  0.2275 -0.4974
   22MOL   O66123383   0.051   1.386   6.712  0.1453 -0.0877  0.0259
   22MOL   C66223384   0.187   1.407   6.717 -0.0012  0.9924  0.2376
   22MOL   C66323385   0.260   1.468   6.617 -0.6669  0.4529  0.3751
   22MOL   C66423386   0.398   1.480   6.632  0.6018  0.3474  0.8002
   22MOL   C66523387   0.466   1.429   6.749 -1.9696  0.0987 -1.0812
   22MOL   C66623388   0.616   1.448   6.756 -0.1309  0.0945 -0.1099
   22MOL   C66723389   0.667   1.422   6.900 -0.8675  0.5328  0.3329
   22MOL   C66823390   0.671   1.348   6.660 -0.0473 -0.2788  0.4217
   22MOL   C66923391   0.652   1.594   6.727  0.1324  0.3269  0.5655
   22MOL   C67023392   0.602   1.698   6.804 -0.8536 -0.8660 -0.1523
   22MOL   C67123393   0.644   1.829   6.785  0.0042  0.4535 -0.9102
   22MOL   C67223394   0.727   1.860   6.674  0.3647 -0.0196  0.1706
   22MOL   O67323395   0.763   1.989   6.641  0.2841 -0.2311  0.9972
   22MOL   C67423396   0.764   1.761   6.585 -0.9922 -0.0240 -0.8188
   22MOL   C67523397   0.722   1.626   6.610 -0.5344 -0.5074  0.5286
   22MOL   C67623398   0.394   1.365   6.846 -0.4581 -0.2960  0.3299
   22MOL   C67723399   0.251   1.353   6.829 -0.0895  0.8034 -0.4844
   22MOL   C67823400   8.148   1.326   6.541 -0.1128 -0.7693  0.5317
   22MOL   C67923401   8.062   1.369   6.434 -0.0084  0.0202  0.0744
   22MOL   C68023402   7.755   1.710   6.234 -0.7845  0.2157  0.1525
   22MOL   C68123403   7.710   1.840   6.217  0.6571  0.0584 -0.1261
   22MOL   H68223404   7.990   2.007   6.148  0.3017  0.4132  1.6191
   22MOL   H68323405   8.091   1.771   6.203  0.6232  0.9140  0.3598
   22MOL   H68423406   8.151   1.693   6.405  0.4652 -0.9914 -0.1787
   22MOL   H68523407   0.041   1.621   6.610  0.7716 -0.2381 -1.6058
   22MOL   H68623408   0.211   1.508   6.529 -1.0725 -3.1820 -1.1304
   22MOL   H68723409   0.458   1.527   6.555  0.3531 -2.2982 -1.0703
   22MOL   H68823410   0.622   1.484   6.977 -0.1807  1.7839 -0.2484
   22MOL   H68923411   0.774   1.439   6.907 -0.7568  0.8834 -1.8064
   22MOL   H69023412   0.653   1.320   6.936  0.1920 -0.4277 -1.9153
   22MOL   H69123413   0.633   1.352   6.557  1.0985  0.0222  0.0122
   22MOL   H69223414   0.779   1.349   6.668 -0.0619  3.7576  1.1309
   22MOL   H69323415   0.655   1.245   6.693 -2.0633 -0.2268 -0.3174
   22MOL   H69423416   0.529   1.684   6.883 -2.2817  0.6099 -1.1737
   22MOL   H69523417   0.621   1.910   6.853 -1.1175 -1.5788  1.1759
   22MOL   H69623418   0.817   1.780   6.493  0.9697 -0.4367  0.2101
   22MOL   H69723419   0.771   1.553   6.546 -0.7970 -0.3750  0.1764
   22MOL   H69823420   0.431   1.336   6.943 -0.1574  1.2775  0.7022
   22MOL   H69923421   0.197   1.290   6.898 -1.9331  0.7301 -1.9788
   22MOL   H70023422   8.156   1.223   6.571 -0.2367 -0.2297  2.4731
   22MOL   H70123423   7.988   1.298   6.402 -1.8892  0.0196  4.1656
   22MOL   H70223424   7.689   1.627   6.252 -2.0039  0.2250 -3.8442
   22MOL   H70323425   7.605   1.864   6.224 -0.1269 -2.3898 -2.7700
   22MOL   C70423426   0.662   2.083   6.638  0.1649 -0.0610 -0.6491
   22MOL   C70523427   0.677   2.213   6.693  0.1859  0.2592 -0.2293
   22MOL   C70623428   0.571   2.308   6.692  0.8969  0.7467 -0.0799
   22MOL   C70723429   0.447   2.272   6.639  0.5337 -0.3055 -0.9649
   22MOL   S70823430   0.317   2.396   6.635  0.2682  0.0272  0.2141
   22MOL   O70923431   0.347   2.489   6.523  0.4847  0.1973 -0.0640
   22MOL   O71023432   0.307   2.447   6.774  0.4058 -0.2272 -0.1512
   22MOL   C71123433   0.158   2.313   6.601  0.2314  0.1736  0.1874
   22MOL   C71223434   0.135   2.272   6.464 -0.2120 -0.1614 -0.1471
   22MOL   C71323435   0.016   2.208   6.428  0.0135  0.4524 -0.2813
   22MOL   C71423436   8.161   2.213   6.519 -0.3391  0.1811 -0.1640
   22MOL   O71523437   8.043   2.165   6.477 -0.5084  0.1098 -0.3203
   22MOL   C71623438   7.986   2.059   6.544  0.0591 -0.1500 -0.1470
   22MOL   C71723439   7.853   2.070   6.569  0.1241  0.2193  0.2593
   22MOL   C71823440   7.785   1.964   6.630  0.2609  0.2951  0.2643
   22MOL   C71923441   7.851   1.850   6.671  0.1308  0.1662 -0.7660
   22MOL   C72023442   7.771   1.728   6.724  0.4323  0.2365  1.8458
   22MOL   C72123443   7.864   1.622   6.793  0.1781  0.4412  0.2131
   22MOL   C72223444   7.696   1.781   6.843  0.1384  0.1267  0.5891
   22MOL   C72323445   7.676   1.672   6.617 -0.4068 -0.3154 -0.0814
   22MOL   C72423446   7.561   1.739   6.575 -0.6411 -0.5805 -0.6415
   22MOL   C72523447   7.463   1.684   6.491  0.0835  0.4543  0.3313
   22MOL   C72623448   7.483   1.554   6.440 -0.1029  0.4131 -0.2963
   22MOL   O72723449   7.387   1.493   6.359 -0.9934  0.1397  0.5204
   22MOL   C72823450   7.605   1.484   6.475  0.4377 -1.0667  0.2585
   22MOL   C72923451   7.700   1.547   6.557 -0.4366  0.6715 -0.7119
   22MOL   C73023452   7.988   1.847   6.659 -0.4724 -0.1809  0.7414
   22MOL   C73123453   8.057   1.948   6.590  0.0006  0.0544 -0.0849
   22MOL   C73223454   8.176   2.267   6.645  0.1971 -0.1304 -0.1610
   22MOL   C73323455   0.046   2.321   6.692  0.2639 -0.4324 -0.0344
   22MOL   C73423456   0.425   2.144   6.584  0.7235  1.1949 -0.1566
   22MOL   C73523457   0.533   2.049   6.581 -0.0529 -0.0131  0.0035
   22MOL   H73623458   0.772   2.258   6.720  0.5676  1.2922 -3.0586
   22MOL   H73723459   0.591   2.410   6.719  0.6726  0.6367  0.5227
   22MOL   H73823460   0.220   2.271   6.397  0.9359 -0.1586  1.2787
   22MOL   H73923461   0.009   2.167   6.329  1.9081  0.7375 -0.5608
   22MOL   H74023462   7.800   2.162   6.549  0.1419  0.0720 -0.4476
   22MOL   H74123463   7.680   1.985   6.643 -0.7000 -2.5339 -2.2454
   22MOL   H74223464   7.926   1.678   6.863  0.9064 -1.1456  0.8868
   22MOL   H74323465   7.926   1.561   6.727  1.3265  1.8609 -0.0345
   22MOL   H74423466   7.799   1.556   6.850  0.8838 -0.0335  0.4877
   22MOL   H74523467   7.612   1.845   6.814  0.5603  0.7106  0.6533
   22MOL   H74623468   7.655   1.698   6.901  0.7301 -1.8300 -1.7306
   22MOL   H74723469   7.752   1.851   6.905 -0.7894  0.3438  1.2042
   22MOL   H74823470   7.551   1.845   6.595  2.7464 -0.7862  2.6805
   22MOL   H74923471   7.372   1.737   6.466 -0.6892  0.0764  2.1954
   22MOL   H75023472   7.621   1.382   6.443 -0.3874 -0.5747 -1.7796
   22MOL   H75123473   7.784   1.482   6.577 -1.1345  0.2289  0.8056
   22MOL   H75223474   8.040   1.756   6.687 -0.2447 -0.5441 -0.8005
   22MOL   H75323475   8.158   1.931   6.558 -0.4505  0.1643 -1.6032
   22MOL   H75423476   8.089   2.267   6.708 -2.5921  2.1151 -3.8627
   22MOL   H75523477   0.057   2.369   6.789 -1.7617 -1.2163  0.6291
   22MOL   H75623478   0.331   2.115   6.540  0.8816  1.4249 -0.6528
   22MOL   H75723479   0.518   1.951   6.536  0.4845  0.9466 -2.3184
   22MOL   C75823480   7.392   1.545   6.230  0.5458  0.8209  0.5886
   22MOL   C75923481   7.331   1.663   6.199 -0.0530  0.1221 -0.1817
   22MOL   C76023482   7.348   1.708   6.068 -0.0253  0.0741 -0.0956
   22MOL   C76123483   7.415   1.637   5.968  0.0788 -0.1784  0.1802
   22MOL   S76223484   7.420   1.708   5.804 -0.0361 -0.0179 -0.1399
   22MOL   O76323485   7.411   1.853   5.826 -0.5722 -0.2524 -0.0153
   22MOL   O76423486   7.314   1.635   5.726  0.4295  0.0248  0.0273
   22MOL   C76523487   7.583   1.657   5.746  0.1671 -0.0587  0.9811
   22MOL   C76623488   7.598   1.559   5.643  0.6993  0.5764 -0.1828
   22MOL   C76723489   7.724   1.507   5.615 -0.4589 -0.5219  0.3375
   22MOL   C76823490   7.843   1.554   5.682 -0.2546 -0.4645 -0.4747
   22MOL   O76923491   7.963   1.503   5.653  0.7042 -0.1379 -0.3522
   22MOL   C77023492   8.020   1.401   5.728 -0.0247  0.6005 -0.4775
   22MOL   C77123493   8.134   1.340   5.680 -0.1608  0.5240  0.3233
   22MOL   C77223494   8.198   1.239   5.757  0.0481 -0.2355 -0.2604
   22MOL   C77323495   8.146   1.192   5.876  0.2695  0.2005  0.6232
   22MOL   C77423496   8.229   1.080   5.950 -0.3147  0.4280  0.4535
   22MOL   C77523497   8.131   0.996   6.038 -0.1533  0.2750 -0.3353
   22MOL   C77623498   0.036   0.981   5.852  0.8886 -0.4172 -0.2317
   22MOL   C77723499   0.084   1.136   6.040 -0.2477 -0.4816 -0.3853
   22MOL   C77823500   0.045   1.254   6.117 -0.3023 -0.5460 -0.0090
   22MOL   C77923501   0.126   1.300   6.225 -0.7358  0.1895 -0.2475
   22MOL   C78023502   0.242   1.225   6.255 -0.2838  0.0218  0.0350
   22MOL   O78123503   0.314   1.247   6.374  0.0019  0.1918  0.3802
   22MOL   C78223504   0.287   1.120   6.175  0.2153 -0.4421 -0.8305
   22MOL   C78323505   0.201   1.070   6.080  0.1208  0.1797  0.2320
   22MOL   C78423506   8.032   1.256   5.928 -0.6109  0.7335  0.1475
   22MOL   C78523507   7.966   1.352   5.852 -0.2795 -0.1936  0.2337
   22MOL   C78623508   7.828   1.645   5.788  0.3761 -0.2603  0.8870
   22MOL   C78723509   7.698   1.698   5.811 -0.0723 -0.5113 -0.4360
   22MOL   C78823510   7.467   1.508   5.999 -0.3184 -0.6367  0.3047
   22MOL   C78923511   7.458   1.471   6.134 -0.1883  0.4247 -0.1180
   22MOL   H79023512   7.281   1.728   6.270  0.5123 -1.6604  1.9253
   22MOL   H79123513   7.299   1.801   6.042 -0.7375 -0.3408 -0.2663
   22MOL   H79223514   7.505   1.530   5.597 -0.5779  0.8334  2.1429
   22MOL   H79323515   7.737   1.427   5.544 -1.9000  1.1676 -1.8690
   22MOL   H79423516   8.173   1.366   5.583 -0.6876 -0.0942 -0.0541
   22MOL   H79523517   0.035   1.202   5.710  0.1600  0.0404 -0.2616
   22MOL   H79623518   8.098   1.060   6.120  0.3988  1.3857 -0.9735
   22MOL   H79723519   8.187   0.915   6.085 -0.1409 -0.2352 -1.2100
   22MOL   H79823520   8.044   0.961   5.982  0.1683  1.5606 -1.6652
   22MOL   H79923521   8.218   0.948   5.776  0.5648  0.3254 -0.2507
   22MOL   H80023522   0.117   1.021   5.791  0.1608 -0.5946 -1.3210
   22MOL   H80123523   0.075   0.891   5.900  3.6245  0.4106 -0.8222
   22MOL   H80223524   8.209   1.311   6.095 -1.0212 -2.4024 -2.0343
   22MOL   H80323525   0.091   1.377   6.293 -1.5939 -0.6559  0.2775
   22MOL   H80423526   0.371   1.063   6.213  0.4163 -0.8509 -1.8700
   22MOL   H80523527   0.227   0.978   6.030 -1.3291 -0.3447  0.3963
   22MOL   H80623528   7.996   1.218   6.022  2.1053 -2.2460  0.0879
   22MOL   H80723529   7.873   1.391   5.892  1.2884  2.6367  1.2281
   22MOL   H80823530   7.923   1.672   5.832  1.6031 -0.6635 -1.4235
   22MOL   H80923531   7.693   1.753   5.904  1.2009 -1.3400  0.1391
   22MOL   H81023532   7.515   1.453   5.919 -1.4148 -0.3412 -0.5631
   22MOL   H81123533   7.517   1.387   6.166  2.0940  1.4707 -1.4850
   22MOL   C81223534   0.318   1.153   6.472 -0.5929  0.2526  0.1067
   22MOL   C81323535   0.200   1.076   6.506 -0.3469  0.1940 -0.0871
   22MOL   C81423536   0.205   0.984   6.608  0.7134 -0.1477  0.3760
   22MOL   C81523537   0.327   0.951   6.672 -0.0248 -0.1703  0.2634
   22MOL   S81623538   0.331   0.824   6.799  0.3619  0.2827 -0.0018
   22MOL   O81723539   0.472   0.772   6.809 -0.2670 -0.1990  0.2565
   22MOL   O81823540   0.211   0.740   6.778  0.1367  0.0278  0.4540
   22MOL   C81923541   0.291   0.905   6.961 -0.4642 -0.6756  0.8122
   22MOL   C82023542   0.344   1.030   6.985  0.3004  0.0469 -0.6872
   22MOL   C82123543   0.324   1.093   7.105 -0.0612  0.3035 -0.3878
   22MOL   C82223544   0.258   1.027   7.208  0.2792  0.0663  0.3444
   22MOL   O82323545   0.239   1.090   7.323 -0.1269 -0.1023 -0.4508
   22MOL   C82423546   0.322   1.057   7.431  0.4667  0.4758 -0.8775
   22MOL   C82523547   0.380   0.930   7.445  0.1184 -0.0626 -1.2275
   22MOL   C82623548   0.468   0.904   7.554  0.3443 -0.2159  0.0290
   22MOL   C82723549   0.490   1.004   7.653 -0.3647 -0.1965 -0.1427
   22MOL   C82823550   0.581   0.974   7.779  0.0256 -0.1527  0.0724
   22MOL   C82923551   0.526   0.845   7.855 -0.0982 -0.8380 -0.2846
   22MOL   C83023552   0.722   0.929   7.729  0.1464  0.3101 -0.0442
   22MOL   C83123553   0.592   1.096   7.873 -0.0455 -0.2989  0.6298
   22MOL   C83223554   0.705   1.181   7.876 -0.7702  1.0248 -0.0643
   22MOL   C83323555   0.719   1.283   7.969  0.1860  0.3600  0.2141
   22MOL   C83423556   0.619   1.306   8.059 -0.0507 -0.6810  0.3129
   22MOL   O83523557   0.630   1.406   8.155 -0.3990 -0.2279 -0.2558
   22MOL   C83623558   0.507   1.219   8.065  0.4231 -0.3400  0.6485
   22MOL   C83723559   0.491   1.116   7.972  0.0741  0.0717 -0.3021
   22MOL   C83823560   0.426   1.130   7.636  0.0407 -1.0034 -0.1509
   22MOL   C83923561   0.348   1.155   7.522 -0.4295  0.5783  0.2105
   22MOL   C84023562   0.198   0.899   7.188  0.1256  0.3674  0.1035
   22MOL   C84123563   0.211   0.839   7.059  0.0432 -0.2656  0.2219
   22MOL   C84223564   0.441   1.022   6.635 -0.0186  0.3230 -0.0028
   22MOL   C84323565   0.435   1.117   6.538  0.0953 -0.2781  0.1103
   22MOL   H84423566   0.108   1.088   6.451 -2.5192 -1.9266  2.8941
   22MOL   H84523567   0.119   0.930   6.645 -0.5512 -0.1448 -2.3933
   22MOL   H84623568   0.386   1.083   6.900  0.5360  0.5909 -0.2352
   22MOL   H84723569   0.361   1.192   7.127  1.0675 -0.2810  0.4022
   22MOL   H84823570   0.357   0.849   7.378  0.3769 -0.5283 -0.7506
   22MOL   H84923571   0.495   0.801   7.574 -2.3534 -0.8734  0.4889
   22MOL   H85023572   0.420   0.853   7.881 -0.2883 -1.3834 -0.8986
   22MOL   H85123573   0.592   0.826   7.939  1.2097  0.8769 -0.8753
   22MOL   H85223574   0.540   0.752   7.800 -0.4899 -0.6448 -0.7094
   22MOL   H85323575   0.801   0.923   7.804  0.7250  1.4243 -0.5576
   22MOL   H85423576   0.710   0.835   7.675  0.8464 -0.0367  0.3902
   22MOL   H85523577   0.767   1.001   7.662 -1.4274  1.7464  0.4093
   22MOL   H85623578   0.782   1.164   7.802 -2.8868 -1.1848 -1.8383
   22MOL   H85723579   0.810   1.341   7.965  0.7147 -0.5895 -2.3290
   22MOL   H85823580   0.437   1.219   8.147 -1.1526  1.6425 -0.6492
   22MOL   H85923581   0.409   1.046   7.966  0.9802 -1.0987  0.6322
   22MOL   H86023582   0.432   1.219   7.697  0.3289  0.4494 -2.2556
   22MOL   H86123583   0.308   1.256   7.525 -0.5809  0.4769  2.1947
   22MOL   H86223584   0.141   0.861   7.271  1.2374  1.1257  1.2158
   22MOL   H86323585   0.170   0.743   7.028  0.9548 -1.4168  2.4695
   22MOL   H86423586   0.534   0.997   6.683  0.3272 -1.5284 -1.5643
   22MOL   H86523587   0.522   1.156   6.489  1.6678  0.3102  3.2311
   22MOL   C86623588   0.573   1.525   8.126 -0.5439 -0.3268 -0.0808
   22MOL   C86723589   0.444   1.540   8.067  0.3445  0.4776  0.6498
   22MOL   C86823590   0.396   1.669   8.049  0.0308 -1.1123 -0.5618
   22MOL   C86923591   0.469   1.783   8.081  0.1831  0.6543 -0.2039
   22MOL   S87023592   0.402   1.938   8.046  0.1353 -0.4998  0.1098
   22MOL   O87123593   0.344   1.942   7.909 -0.1292 -0.3812 -0.2371
   22MOL   O87223594   0.506   2.032   8.084 -0.0241 -0.7861 -0.3954
   22MOL   C87323595   0.270   1.956   8.170 -0.0115  0.2872 -0.4102
   22MOL   C87423596   0.138   1.990   8.133  0.2563  0.0766 -0.6558
   22MOL   C87523597   0.044   2.020   8.234  0.6172  0.3915  0.1292
   22MOL   C87623598   0.076   2.002   0.118  0.4319 -0.0567  0.4707
   22MOL   O87723599   8.230   2.037   0.205  0.1362  0.0927 -0.1585
   22MOL   C87823600   8.232   1.993   0.331 -0.4009  0.3641 -0.5080
   22MOL   C87923601   0.068   2.057   0.421 -0.0118  0.1685  0.6875
   22MOL   C88023602   0.049   2.031   0.558  0.3408 -0.2874 -0.2852
   22MOL   C88123603   8.209   1.932   0.608 -0.6010  0.3957 -0.1959
   22MOL   C88223604   8.202   1.898   0.760 -0.6949 -0.2768 -0.0979
   22MOL   C88323605   0.063   1.956   0.848  0.0248 -0.0939  0.2246
   22MOL   C88423606   8.085   1.976   0.816  0.1510 -0.1195 -0.0307
   22MOL   C88523607   8.192   1.750   0.786 -0.0710 -0.1954  0.4389
   22MOL   C88623608   0.039   1.663   0.728  0.1292 -0.0750 -1.0750
   22MOL   C88723609   0.012   1.529   0.718 -0.2400  0.4809  0.3411
   22MOL   C88823610   8.141   1.476   0.749  0.0461 -0.0707 -0.1772
   22MOL   O88923611   8.113   1.348   0.713 -0.3007 -0.5038  0.0239
   22MOL   C89023612   8.047   1.556   0.812  0.7656 -0.1866  0.3937
   22MOL   C89123613   8.076   1.693   0.832  0.3224  0.0362  0.0532
   22MOL   C89223614   8.123   1.868   0.515  0.2361 -0.5366 -0.0293
   22MOL   C89323615   8.134   1.898   0.377 -0.8196 -0.0822 -0.4711
   22MOL   C89423616   0.206   1.959   0.146 -0.0127  0.2298 -0.6978
   22MOL   C89523617   0.303   1.936   0.053  0.2618 -0.3386  0.3026
   22MOL   C89623618   0.597   1.771   8.129  0.2006 -0.1994  0.4602
   22MOL   C89723619   0.648   1.641   8.156 -0.1346  0.7104  0.0379
   22MOL   H89823620   0.374   1.462   8.042  0.0414  0.8637  0.2800
   22MOL   H89923621   0.299   1.682   8.002 -0.4665 -1.3066  0.3840
   22MOL   H90023622   0.110   2.014   8.031 -1.5799  1.0676  0.0458
   22MOL   H90123623   8.204   2.064   8.205  0.4393 -0.1590 -0.1417
   22MOL   H90223624   0.141   2.126   0.383 -0.6701  0.1515 -0.6221
   22MOL   H90323625   0.124   2.080   0.619  0.7253  0.2335 -1.1752
   22MOL   H90423626   0.159   1.915   0.817 -0.8045 -0.8222 -1.4984
   22MOL   H90523627   0.055   1.936   0.954  3.2149  2.1184  0.9563
   22MOL   H90623628   0.069   2.065   0.837  0.2245  0.0938  2.1042
   22MOL   H90723629   8.082   1.977   0.925 -0.0693  0.7867 -0.0464
   22MOL   H90823630   8.091   2.079   0.783 -1.6785 -0.3081 -1.0548
   22MOL   H90923631   7.991   1.940   0.774  0.7174  0.0866 -1.5050
   22MOL   H91023632   0.136   1.704   0.702 -1.5167  2.6912 -3.1713
   22MOL   H91123633   0.080   1.455   0.679 -1.7145 -0.3065 -0.7576
   22MOL   H91223634   7.958   1.504   0.845  0.0990  0.8801  0.3029
   22MOL   H91323635   7.998   1.755   0.874 -2.3386 -1.4118 -2.4963
   22MOL   H91423636   8.058   1.787   0.542 -0.4651  0.6324  1.9438
   22MOL   H91523637   8.066   1.854   0.305  0.1988 -0.9533 -0.9198
   22MOL   H91623638   0.235   1.935   0.247 -3.3695 -0.2859  0.2164
   22MOL   H91723639   0.403   1.908   0.083  0.0094 -0.1849  1.2980
   22MOL   H91823640   0.654   1.860   8.149 -0.9892  0.7904 -0.4456
   22MOL   H91923641   0.752   1.630   8.182 -0.1789 -1.7141 -0.7237
   22MOL   C92023642   8.084   1.342   0.583 -0.0384 -0.0141  0.2723
   22MOL   C92123643   8.148   1.247   0.504  0.3417 -0.6529 -0.0455
   22MOL   C92223644   8.100   1.220   0.372 -0.5062 -0.2395  0.3354
   22MOL   C92323645   7.989   1.295   0.322 -0.0377  0.3521  0.0003
   22MOL   S92423646   7.950   1.266   0.149  0.0800 -0.0444  0.2826
   22MOL   O92523647   8.028   1.157   0.090  0.0610 -0.2995 -0.4685
   22MOL   O92623648   7.944   1.398   0.092 -0.0578 -0.2872 -0.0714
   22MOL   C92723649   7.784   1.204   0.153  0.2487 -0.1803 -0.4829
   22MOL   C92823650   7.684   1.283   0.094  0.0071  0.0250 -0.3945
   22MOL   C92923651   7.547   1.245   0.105 -0.8435  0.3539 -0.2336
   22MOL   C93023652   7.514   1.126   0.177 -0.2998  0.6236  0.5158
   22MOL   O93123653   7.381   1.084   0.185 -0.0695  0.1676  0.6849
   22MOL   C93223654   7.323   0.988   0.101 -0.0954  0.5369 -0.3258
   22MOL   C93323655   7.364   0.974   8.220 -0.1963  0.1809 -0.9211
   22MOL   C93423656   7.294   0.882   8.141  0.1193 -0.1408  0.2206
   22MOL   C93523657   7.183   0.806   8.184 -0.6934  0.0972 -0.3847
   22MOL   C93623658   7.109   0.724   8.077 -0.2664  0.4890 -0.3595
   22MOL   C93723659   7.156   0.586   8.099  0.7918 -0.0124  0.3355
   22MOL   C93823660   6.960   0.731   8.103 -0.4064 -0.4062 -0.1421
   22MOL   C93923661   7.129   0.771   7.930 -0.2536  0.6178 -0.1120
   22MOL   C94023662   7.106   0.910   7.899 -0.4070  0.7569  0.2493
   22MOL   C94123663   7.110   0.962   7.769 -0.3896  0.0258  0.5078
   22MOL   C94223664   7.142   0.871   7.662 -0.4991  0.6040  0.5343
   22MOL   O94323665   7.160   0.915   7.531 -0.1054 -0.3790  0.4380
   22MOL   C94423666   7.165   0.732   7.690  0.3754 -0.0607 -0.5652
   22MOL   C94523667   7.146   0.681   7.825  0.1736 -0.4077  0.6958
   22MOL   C94623668   7.149   0.822   0.067  0.1071  0.4863  0.6593
   22MOL   C94723669   7.215   0.915   0.151 -0.3416  0.4148  0.1082
   22MOL   C94823670   7.616   1.044   0.240  0.0614  0.2504  0.5794
   22MOL   C94923671   7.745   1.090   0.227 -0.1743 -0.6977  0.3324
   22MOL   C95023672   7.924   1.391   0.402  0.2161 -0.0933  0.4955
   22MOL   C95123673   7.973   1.415   0.534  0.2077 -0.6128  0.1428
   22MOL   H95223674   8.231   1.198   0.551  2.0907  2.0412 -0.2398
   22MOL   H95323675   8.151   1.140   0.321  0.8261  1.0345 -0.3857
   22MOL   H95423676   7.721   1.368   0.038  0.3498 -0.0900 -0.3426
   22MOL   H95523677   7.471   1.291   0.043 -1.8937  0.7808  1.3495
   22MOL   H95623678   7.436   1.036   8.168  0.0494  0.3012 -0.4418
   22MOL   H95723679   7.329   0.890   8.039 -2.2697 -0.8270 -0.6837
   22MOL   H95823680   7.100   0.508   8.047  1.4680  0.0640 -0.5127
   22MOL   H95923681   7.146   0.556   8.203  3.0340 -1.9355  0.0445
   22MOL   H96023682   7.260   0.578   8.066  0.8855  0.1717  0.5871
   22MOL   H96123683   6.896   0.675   8.035 -1.3907  2.7568 -1.9450
   22MOL   H96223684   6.944   0.699   8.206  0.3671 -0.7769 -0.1314
   22MOL   H96323685   6.926   0.834   8.095  2.5519  0.5319 -1.2347
   22MOL   H96423686   7.080   0.981   7.975 -0.3831 -0.7016  1.6335
   22MOL   H96523687   7.071   1.060   7.746  0.5299  0.3616  0.3371
   22MOL   H96623688   7.189   0.660   7.614  0.1215 -2.2707  1.3774
   22MOL   H96723689   7.143   0.577   7.853  2.3977 -0.3227  1.3313
   22MOL   H96823690   7.065   0.771   0.112  0.5826 -0.0932  0.8913
   22MOL   H96923691   7.179   0.942   0.249  1.0088  1.7750  0.2440
   22MOL   H97023692   7.589   0.953   0.292 -0.9497  0.5225  0.5340
   22MOL   H97123693   7.830   1.043   0.275  2.2277  1.7108 -1.4018
   22MOL   H97223694   7.838   1.447   0.368  0.8582 -0.4326 -1.7047
   22MOL   H97323695   7.921   1.493   0.589 -2.4237 -2.3751  0.2236
   22MOL   C97423696   7.051   0.923   7.448  0.0400  0.6098 -0.5148
   22MOL   C97523697   6.997   0.810   7.384 -0.1332  0.0721  0.8021
   22MOL   C97623698   6.867   0.819   7.323 -0.0189  0.1505 -0.1608
   22MOL   C97723699   6.802   0.944   7.321 -0.3431  1.1191 -0.3711
   22MOL   S97823700   6.626   0.941   7.252  0.1411 -0.0923  0.0354
   22MOL   O97923701   6.537   0.897   7.360 -0.6838 -0.5865 -0.3730
   22MOL   O98023702   6.625   0.861   7.125  0.1098 -0.1268 -0.4768
   22MOL   C98123703   6.582   1.112   7.195 -0.2874  0.0594  1.0244
   22MOL   C98223704   6.481   1.185   7.254  0.2012 -0.2723 -0.6106
   22MOL   C98323705   6.462   1.321   7.217  0.3911 -0.0853  0.1496
   22MOL   C98423706   6.523   1.384   7.106 -0.0488  0.0247  0.0714
   22MOL   O98523707   6.486   1.511   7.072 -0.1538  0.2405 -0.3780
   22MOL   C98623708   6.373   1.521   7.000  0.1949 -0.2881 -0.3570
   22MOL   C98723709   6.377   1.536   6.861 -0.4400  0.4584 -0.2688
   22MOL   C98823710   6.257   1.557   6.784  0.0706 -0.3423  0.6351
   22MOL   C98923711   6.130   1.549   6.843  0.1677  0.1446  0.1971
   22MOL   C99023712   6.005   1.574   6.761 -0.2723 -0.3074  0.3390
   22MOL   C99123713   5.872   1.528   6.830 -0.2481 -1.0486  0.0113
   22MOL   C99223714   6.003   1.733   6.734 -0.5133  0.0283  0.2027
   22MOL   C99323715   6.013   1.502   6.624 -0.3974 -0.0366  0.2302
   22MOL   C99423716   6.088   1.383   6.605  0.0882  0.1388 -0.1282
   22MOL   C99523717   6.084   1.316   6.481  0.8976  0.1337  0.3793
   22MOL   C99623718   6.004   1.357   6.375 -1.0880 -0.1431  0.7066
   22MOL   O99723719   5.995   1.279   6.260  1.1255 -0.1068  0.1879
   22MOL   C99823720   5.931   1.482   6.388 -0.4891  0.2616 -0.1777
   22MOL   C99923721   5.943   1.552   6.511  0.1882  0.4207  0.0532
   22MOL     C123722   6.124   1.532   6.983  0.6570 -0.2303  0.1638
   22MOL     C223723   6.242   1.520   7.053  0.3441 -0.1949  0.3310
   22MOL     C323724   6.620   1.303   7.041 -0.2789  0.1867  0.6900
   22MOL     C423725   6.648   1.169   7.082 -0.2823 -0.1932 -0.1536
   22MOL     C523726   6.856   1.055   7.376 -0.1281 -0.4571  0.3667
   22MOL     C623727   6.982   1.047   7.443 -0.6718 -0.1360  0.3008
   22MOL     H723728   7.046   0.715   7.397 -0.9116 -0.8672 -2.7333
   22MOL     H823729   6.820   0.733   7.276 -0.2403 -0.1674  0.6370
   22MOL     H923730   6.430   1.143   7.340  1.8519  1.4836  1.2802
   22MOL    H1023731   6.388   1.381   7.267 -1.0702 -2.6172  1.1130
   22MOL    H1123732   6.472   1.525   6.810 -0.2815  0.8578 -0.0641
   22MOL    H1223733   6.254   1.591   6.682 -0.7625 -0.7598  0.5226
   22MOL    H1323734   5.884   1.422   6.849  1.4504 -0.9483 -0.3857
   22MOL    H1423735   5.783   1.545   6.770  0.2324 -0.5265 -0.5577
   22MOL    H1523736   5.853   1.572   6.928 -1.3211 -0.7269 -0.3380
   22MOL    H1623737   5.914   1.776   6.689 -0.9415 -0.2259  0.8086
   22MOL    H1723738   6.004   1.769   6.836 -0.8335 -3.5021  1.5367
   22MOL    H1823739   6.094   1.772   6.687 -0.4321  0.1917  0.4957
   22MOL    H1923740   6.141   1.329   6.682 -0.9060 -3.9034 -2.0809
   22MOL    H2023741   6.130   1.219   6.483  0.8581  0.1321  1.7031
   22MOL    H2123742   5.872   1.532   6.314  1.1106 -0.2863 -1.8683
   22MOL    H2223743   5.871   1.632   6.525 -0.1709  0.4420 -1.7447
   22MOL    H2323744   6.034   1.519   7.041  1.5060 -2.2003  1.0902
   22MOL    H2423745   6.241   1.497   7.159 -0.0876  1.4544  0.7011
   22MOL    H2523746   6.666   1.328   6.946  0.5556  0.7440  1.2398
   22MOL    H2623747   6.725   1.117   7.027  2.2057  2.4773  0.6559
   22MOL    H2723748   6.815   1.154   7.362  0.6172 -0.1958 -0.0065
   22MOL    H2823749   7.013   1.133   7.501  0.0368  0.2742 -0.6814
   22MOL    C2923750   6.112   1.251   6.199  0.3908 -0.0346  0.2549
   22MOL    C3023751   6.147   1.343   6.094 -0.6751 -0.3159 -0.2257
   22MOL    C3123752   6.272   1.323   6.040  0.5125  0.0860 -0.2038
   22MOL    C3223753   6.361   1.218   6.089  0.8195 -0.5249  0.5286
   22MOL    S3323754   6.524   1.200   6.020 -0.2185  0.0029 -0.4447
   22MOL    O3423755   6.553   1.055   6.005 -0.0800  0.2061  0.0703
   22MOL    O3523756   6.618   1.283   6.095  0.0122  0.1042  0.3930
   22MOL    C3623757   6.511   1.272   5.853  0.3550 -0.5359 -0.4346
   22MOL    C3723758   6.609   1.369   5.811  0.0066  0.2045  0.3739
   22MOL    C3823759   6.586   1.431   5.687  0.8903 -0.0055  0.2192
   22MOL    C3923760   6.485   1.380   5.601 -0.8164 -0.1101 -0.8614
   22MOL    O4023761   6.475   1.443   5.480 -0.1155  0.2922  0.1439
   22MOL    C4123762   6.401   1.377   5.388  0.2475  0.7388  0.2487
   22MOL    C4223763   6.264   1.400   5.379  0.4974 -0.2910 -0.2899
   22MOL    C4323764   6.181   1.312   5.304 -0.3322 -0.1127  0.2909
   22MOL    C4423765   6.244   1.201   5.242  0.4971  0.2163 -0.2406
   22MOL    C4523766   6.153   1.125   5.146  0.2568 -0.0057 -0.3519
   22MOL    C4623767   6.156   1.203   5.013  0.4581  0.3038 -1.0848
   22MOL    C4723768   6.221   0.989   5.109  0.8448 -0.5319  0.4386
   22MOL    C4823769   6.009   1.093   5.192  0.1451  0.7893 -0.1021
   22MOL    C4923770   5.969   1.088   5.332 -0.3474  0.3448  0.3270
   22MOL    C5023771   5.834   1.091   5.366  0.0808 -0.3262 -0.3310
   22MOL    C5123772   5.736   1.075   5.264  0.4863  0.2231 -0.0662
   22MOL    O5223773   5.605   1.095   5.287  0.1381  0.0050  0.6187
   22MOL    C5323774   5.773   1.050   5.130  0.4243  0.5758 -0.1838
   22MOL    C5423775   5.904   1.065   5.096 -0.2366 -1.0049  0.5688
   22MOL    C5523776   6.383   1.168   5.262 -0.1664  0.4510  0.2606
   22MOL    C5623777   6.461   1.263   5.328 -0.2847 -0.3863  0.4265
   22MOL    C5723778   6.392   1.285   5.643 -0.4732 -0.0078 -0.1424
   22MOL    C5823779   6.408   1.226   5.769 -0.2019 -0.1428 -0.0827
   22MOL    C5923780   6.314   1.117   6.172 -0.0459  0.5175 -0.9835
   22MOL    C6023781   6.186   1.135   6.226 -0.5612  0.1263  0.1889
   22MOL    H6123782   6.083   1.429   6.077  2.0169  1.7756 -0.1769
   22MOL    H6223783   6.303   1.395   5.966  1.5946 -2.1950 -2.0432
   22MOL    H6323784   6.680   1.401   5.886  1.3772 -0.1162 -0.7784
   22MOL    H6423785   6.657   1.506   5.655  0.8211 -0.5538 -1.2617
   22MOL    H6523786   6.224   1.485   5.433 -1.4848 -0.9038 -0.7497
   22MOL    H6623787   6.076   1.332   5.288 -0.2982  0.7683  1.0872
   22MOL    H6723788   6.117   1.144   4.931  1.2630  0.4769 -1.5990
   22MOL    H6823789   6.261   1.225   4.990  0.6323  1.4540  0.6699
   22MOL    H6923790   6.091   1.291   5.011 -1.5365 -1.0830  0.5267
   22MOL    H7023791   6.162   0.930   5.039  2.4578 -2.5660  0.7559
   22MOL    H7123792   6.314   1.007   5.056 -0.3490  0.8032 -1.2660
   22MOL    H7223793   6.227   0.919   5.192  1.2617 -1.7191 -0.5804
   22MOL    H7323794   6.038   1.082   5.416 -0.2249  2.2066  0.3780
   22MOL    H7423795   5.803   1.107   5.469  0.3521 -1.7845 -0.0160
   22MOL    H7523796   5.699   1.052   5.051 -0.3847  0.1372  0.5608
   22MOL    H7623797   5.932   1.082   4.993  2.1837  0.0990  1.3690
   22MOL    H7723798   6.425   1.072   5.233 -0.8720  0.4939 -0.9532
   22MOL    H7823799   6.563   1.242   5.356 -0.9498 -0.7787  2.6666
   22MOL    H7923800   6.313   1.249   5.579 -1.5581  2.8960 -0.5028
   22MOL    H8023801   6.334   1.159   5.811  0.4680 -0.4114  0.6712
   22MOL    H8123802   6.376   1.031   6.191 -1.3352 -0.4919 -1.3410
   22MOL    H8223803   6.148   1.063   6.297 -1.9226  0.2888 -0.3597
   22MOL    H8323804   5.554   1.125   5.213  0.9875 -1.5109 -0.6169
   23MOL     C123805   5.005   7.750   7.196  0.5259 -0.4362 -0.4127
   23MOL     C223806   5.113   7.833   7.246 -0.1484 -0.0429 -0.4437
   23MOL     C323807   5.082   7.937   7.336 -0.5238  0.3166 -0.2816
   23MOL     C423808   4.947   7.968   7.363  0.5941  0.3396 -0.1605
   23MOL     S523809   4.904   8.098   7.486 -0.3676  0.3361 -0.2751
   23MOL     O623810   5.007   8.084   7.594  0.2094 -0.0990  0.7451
   23MOL     O723811   4.762   8.082   7.534  0.3043 -0.7241 -0.3353
   23MOL     C823812   4.927   8.250   7.403  0.2690 -0.1892 -0.5473
   23MOL     C923813   4.990   0.096   7.480  0.5191 -0.2412  0.3528
   23MOL    C1023814   5.021   0.217   7.414  0.0457 -0.4066 -0.4421
   23MOL    C1123815   4.979   0.235   7.283 -0.4445 -0.2837 -0.1889
   23MOL    O1223816   5.002   0.358   7.230 -0.0492 -0.2193  0.0507
   23MOL    C1323817   4.972   0.474   7.301 -0.3287 -0.9110  0.7022
   23MOL    C1423818   5.070   0.570   7.307 -0.2943  0.8258 -0.5651
   23MOL    C1523819   5.048   0.690   7.375  0.4809 -0.1104 -0.3331
   23MOL    C1623820   4.923   0.721   7.440 -0.5961  0.5110  0.4341
   23MOL    C1723821   4.895   0.852   7.503  0.4514 -0.5762  0.9799
   23MOL    C1823822   4.781   0.924   7.438  0.6056 -0.3122  0.1440
   23MOL    C1923823   4.838   0.825   7.643 -0.1338  0.1248  0.2340
   23MOL    C2023824   5.024   0.940   7.505  0.0218 -0.3532  0.0940
   23MOL    C2123825   5.064   1.020   7.393 -0.0481 -0.6598  0.0673
   23MOL    C2223826   5.183   1.092   7.390 -0.1770 -0.0928  0.4142
   23MOL    C2323827   5.281   1.074   7.496  0.1867  1.0279 -0.0209
   23MOL    O2423828   5.403   1.129   7.483  0.1886 -0.4262  0.4331
   23MOL    C2523829   5.244   0.997   7.608  0.5234  0.1804 -0.0694
   23MOL    C2623830   5.121   0.922   7.608 -0.3169  0.2985  0.6198
   23MOL    C2723831   4.822   0.618   7.425  0.4969 -0.3830 -0.4104
   23MOL    C2823832   4.850   0.495   7.363  0.0012  0.5530 -0.4046
   23MOL    C2923833   4.921   0.129   7.206 -0.0579 -0.1185 -0.1257
   23MOL    C3023834   4.891   0.007   7.265  0.5456  0.0410  0.1739
   23MOL    C3123835   4.847   7.888   7.305  0.1737  0.1265 -0.5529
   23MOL    C3223836   4.873   7.780   7.218 -0.9448  0.4790 -0.4167
   23MOL    H3323837   5.217   7.808   7.232 -0.1946 -0.5422  0.1217
   23MOL    H3423838   5.160   7.992   7.386 -1.5859  1.1307  0.4959
   23MOL    H3523839   5.029   0.073   7.578  1.2445 -0.1646  0.0856
   23MOL    H3623840   5.060   0.301   7.470  0.4929 -0.6917 -0.3206
   23MOL    H3723841   5.166   0.550   7.261 -1.2817 -1.4450 -1.7504
   23MOL    H3823842   5.128   0.762   7.386  0.8827 -0.2849 -2.0017
   23MOL    H3923843   4.764   1.017   7.492  0.9064  0.2699 -0.7500
   23MOL    H4023844   4.685   0.874   7.433 -0.1265  1.0084  0.8245
   23MOL    H4123845   4.805   0.955   7.336  0.6349 -0.5358  0.0825
   23MOL    H4223846   4.742   0.773   7.638  1.1083 -2.1306 -1.5064
   23MOL    H4323847   4.910   0.758   7.691 -0.6687 -0.3896  0.3239
   23MOL    H4423848   4.827   0.913   7.706 -0.0529 -0.2048  0.7108
   23MOL    H4523849   5.005   1.034   7.304 -2.0473 -1.1650  1.2825
   23MOL    H4623850   5.207   1.157   7.307 -0.6754  0.1275  0.4407
   23MOL    H4723851   5.313   0.981   7.690 -0.4059 -2.2108  0.2770
   23MOL    H4823852   5.092   0.856   7.688  1.8676 -0.3971  0.8642
   23MOL    H4923853   4.724   0.636   7.465  1.2566  1.3429  0.7349
   23MOL    H5023854   4.776   0.417   7.355  2.2388 -1.7911  0.8522
   23MOL    H5123855   4.895   0.134   7.101  0.4417  0.9801 -0.2042
   23MOL    H5223856   4.850   8.178   7.208  0.0595  0.0311  0.5414
   23MOL    H5323857   4.744   7.904   7.333  0.2693  0.8204 -0.5937
   23MOL    H5423858   4.792   7.723   7.176 -2.2256  2.2778 -0.4519
   23MOL    H5523859   5.028   7.667   7.131  0.6495  0.1712 -1.1530
   23MOL    C5623860   5.433   1.235   7.563  0.1550 -0.3641 -0.4392
   23MOL    C5723861   5.367   1.356   7.539 -0.2733  0.0954 -0.5984
   23MOL    C5823862   5.406   1.465   7.622 -0.4924  0.3482  0.1612
   23MOL    C5923863   5.513   1.454   7.720 -0.3669 -0.4586 -0.1470
   23MOL    S6023864   5.565   1.610   7.802 -0.0041  0.0438  0.3580
   23MOL    O6123865   5.452   1.695   7.804  0.5999 -0.5411 -0.3685
   23MOL    O6223866   5.690   1.649   7.738  0.0545  0.0498 -0.0429
   23MOL    C6323867   5.594   1.569   7.978  0.0953 -0.5425  0.2175
   23MOL    C6423868   5.712   1.619   8.043 -0.4405  0.1090 -0.1740
   23MOL    C6523869   5.737   1.562   8.170  0.1488 -0.3642  0.3201
   23MOL    C6623870   5.633   1.486   8.238 -0.4154 -0.8781  0.5589
   23MOL    O6723871   5.649   1.439   0.113  0.0073 -0.0672  0.0113
   23MOL    C6823872   5.771   1.405   0.163  0.4911  0.3716  1.0082
   23MOL    C6923873   5.846   1.300   0.105  0.1584  0.1187  1.0026
   23MOL    C7023874   5.973   1.265   0.155 -0.5056 -0.3734 -1.0323
   23MOL    C7123875   6.036   1.337   0.257 -0.6312 -0.4610  0.5451
   23MOL    C7223876   6.186   1.329   0.272  0.3409 -0.4852 -0.4914
   23MOL    C7323877   6.247   1.413   0.386  0.0751  0.2453 -0.0248
   23MOL    C7423878   6.202   1.180   0.322  0.1577 -1.1504 -0.3852
   23MOL    C7523879   6.250   1.367   0.141 -0.1746  0.2037 -0.3264
   23MOL    C7623880   6.229   1.499   0.087  0.3171  0.5624 -0.1518
   23MOL    C7723881   6.279   1.540   8.220 -0.4030 -0.7751  0.2258
   23MOL    C7823882   6.368   1.447   8.151 -1.0918  0.4331  0.6627
   23MOL    O7923883   6.428   1.499   8.041 -0.0188 -0.0084  0.4302
   23MOL    C8023884   6.375   1.312   8.187  0.6197  0.1147 -0.4418
   23MOL    C8123885   6.321   1.279   0.060  0.2627  0.7326 -0.5235
   23MOL    C8223886   5.959   1.442   0.313 -0.4630  0.5497  0.2772
   23MOL    C8323887   5.826   1.471   0.273  0.0707  0.5068  0.5335
   23MOL    C8423888   5.508   1.456   8.172 -0.5368  1.0254 -0.3738
   23MOL    C8523889   5.494   1.491   8.037 -0.2047 -0.7476 -0.5265
   23MOL    C8623890   5.576   1.331   7.737 -0.3749 -0.4345  0.2525
   23MOL    C8723891   5.532   1.220   7.666 -0.6503 -0.3996  0.1375
   23MOL    H8823892   5.297   1.369   7.458 -0.6369  2.1911  0.0144
   23MOL    H8923893   5.347   1.555   7.611 -0.4532  0.4448  0.7315
   23MOL    H9023894   5.793   1.671   7.993  0.7034 -0.9118  0.5995
   23MOL    H9123895   5.833   1.578   8.215 -0.9091  2.4921  1.6911
   23MOL    H9223896   5.806   1.245   0.020  0.1816  0.8102  0.5391
   23MOL    H9323897   6.030   1.185   0.108  1.2654  0.6322 -0.6520
   23MOL    H9423898   6.354   1.394   0.386  0.0792  0.2534  1.5109
   23MOL    H9523899   6.219   1.379   0.485 -1.0228  0.0171 -0.4048
   23MOL    H9623900   6.221   1.519   0.384  1.3525  0.5600 -0.1536
   23MOL    H9723901   6.310   1.165   0.319  0.2486 -0.6588  0.1261
   23MOL    H9823902   6.174   1.170   0.427  0.9424 -0.9494 -0.1491
   23MOL    H9923903   6.153   1.107   0.258  0.8036 -1.0430 -1.0022
   23MOL   H10023904   6.173   1.581   0.128 -2.3270 -0.1811 -2.1129
   23MOL   H10123905   6.265   1.642   8.188  0.5461 -0.2289  1.5023
   23MOL   H10223906   6.417   1.245   8.114  1.6833  1.6471 -1.2859
   23MOL   H10323907   6.341   1.178   0.094  1.4512  0.2294 -2.6628
   23MOL   H10423908   6.007   1.507   0.385  0.1888 -0.9269  1.2109
   23MOL   H10523909   5.777   1.560   0.310 -0.7339  0.5879 -0.7035
   23MOL   H10623910   5.438   1.394   8.225  1.1459  0.1284  0.8731
   23MOL   H10723911   5.414   1.445   7.981 -0.2274 -1.5515  0.1464
   23MOL   H10823912   5.668   1.324   7.795 -0.2822 -1.0836  0.0223
   23MOL   H10923913   5.591   1.132   7.688  0.1892  0.4279  1.2833
   23MOL   C11023914   6.355   1.530   7.925  0.8984  0.3558 -1.1469
   23MOL   C11123915   6.378   1.451   7.813 -0.3539 -0.1017  0.7211
   23MOL   C11223916   6.326   1.482   7.687 -0.6149  0.4599 -0.1972
   23MOL   C11323917   6.262   1.604   7.670  0.5896  0.0348 -0.1134
   23MOL   S11423918   6.206   1.634   7.501 -0.1780 -0.0534  0.1307
   23MOL   O11523919   6.067   1.687   7.503 -0.0388 -0.1378 -0.0320
   23MOL   O11623920   6.222   1.516   7.417  0.1822  0.2667  0.0180
   23MOL   C11723921   6.315   1.769   7.432 -0.7231  0.2144 -0.0005
   23MOL   C11823922   6.348   1.774   7.298 -0.1520 -0.2919  0.6057
   23MOL   C11923923   6.436   1.881   7.250  0.1186 -0.5240 -0.4166
   23MOL   C12023924   6.482   1.982   7.335  0.3497  0.4080  0.4673
   23MOL   O12123925   6.563   2.081   7.283  0.4900 -0.1242 -0.5854
   23MOL   C12223926   6.512   2.203   7.260  0.1503 -1.1389 -0.3457
   23MOL   C12323927   6.375   2.238   7.279 -0.1039 -0.3837 -0.2836
   23MOL   C12423928   6.328   2.370   7.247 -0.6615  0.6944 -0.4614
   23MOL   C12523929   6.424   2.464   7.195  1.1117 -0.0206 -0.4602
   23MOL   C12623930   6.364   2.605   7.159  0.2391 -0.0151  0.0799
   23MOL   C12723931   6.292   2.667   7.282 -0.2589  0.1278 -0.9228
   23MOL   C12823932   6.474   2.711   7.129  1.3375 -0.5457  0.1022
   23MOL   C12923933   6.274   2.580   7.035 -0.1805 -0.1287 -0.3091
   23MOL   C13023934   6.135   2.601   7.028 -0.4296  0.5706  0.0109
   23MOL   C13123935   6.051   2.570   6.919 -0.1351 -0.6739  1.0478
   23MOL   C13223936   6.117   2.527   6.803  0.5295 -0.1846  0.6020
   23MOL   O13323937   6.050   2.509   6.683 -0.2879  0.5000  0.2193
   23MOL   C13423938   6.259   2.513   6.804 -0.3241  0.5034 -0.3722
   23MOL   C13523939   6.338   2.527   6.922 -0.8469  0.3055 -0.5853
   23MOL   C13623940   6.560   2.435   7.184 -0.6185  0.3975  0.6080
   23MOL   C13723941   6.600   2.301   7.213  0.5278  0.7196 -0.1419
   23MOL   C13823942   6.441   1.981   7.473 -0.0131 -0.0847  0.0812
   23MOL   C13923943   6.363   1.876   7.518  0.3277 -0.1130 -0.1363
   23MOL   C14023944   6.219   1.677   7.778 -0.5330 -0.4836  0.1377
   23MOL   C14123945   6.267   1.644   7.909  0.2186  0.9921 -0.5159
   23MOL   H14223946   6.446   1.367   7.827 -1.1558 -0.9971 -0.6550
   23MOL   H14323947   6.349   1.432   7.594  0.5956  2.1870 -0.8547
   23MOL   H14423948   6.321   1.694   7.231 -2.1723  1.1400 -0.3417
   23MOL   H14523949   6.458   1.885   7.144  0.0267  2.2205 -0.3652
   23MOL   H14623950   6.297   2.177   7.322 -1.1865  2.7918  2.5271
   23MOL   H14723951   6.225   2.395   7.270 -0.8572  1.1442 -1.7795
   23MOL   H14823952   6.250   2.765   7.257  2.0109  1.7198  1.2183
   23MOL   H14923953   6.361   2.667   7.367  0.1110 -0.0048 -1.2222
   23MOL   H15023954   6.206   2.611   7.319 -0.5255  1.3469  0.3656
   23MOL   H15123955   6.523   2.739   7.222  2.8919  3.5281 -1.8280
   23MOL   H15223956   6.542   2.680   7.051  0.3375 -0.0681 -0.9737
   23MOL   H15323957   6.428   2.803   7.094  0.3345 -1.4204 -0.9305
   23MOL   H15423958   6.097   2.634   7.124  1.3436  1.0187  0.5790
   23MOL   H15523959   5.945   2.591   6.921 -0.0747 -0.2429  0.2456
   23MOL   H15623960   6.303   2.482   6.710 -2.2767  0.2319 -1.2179
   23MOL   H15723961   6.442   2.500   6.919 -0.4958  1.1816  2.0752
   23MOL   H15823962   6.636   2.510   7.167  1.2408 -1.5099  0.2120
   23MOL   H15923963   6.704   2.277   7.198  0.6462  0.8323  0.5263
   23MOL   H16023964   6.469   2.067   7.532 -1.2230 -0.5381  1.3528
   23MOL   H16123965   6.341   1.870   7.624  0.0438  1.8647 -0.0701
   23MOL   H16223966   6.162   1.767   7.757 -0.3071 -0.4434 -0.3053
   23MOL   H16323967   6.249   1.714   7.990 -1.7327 -1.0973  0.9117
   23MOL   C16423968   6.056   2.384   6.626 -0.0768  0.1718  0.2633
   23MOL   C16523969   5.973   2.275   6.668  0.0218  0.4689 -0.1931
   23MOL   C16623970   5.965   2.157   6.599 -0.2517 -0.4695  0.4171
   23MOL   C16723971   6.047   2.139   6.482 -0.6696  0.0174  0.1566
   23MOL   S16823972   6.049   1.988   6.387 -0.2326 -0.1652  0.5975
   23MOL   O16923973   6.024   1.876   6.473  0.0669 -0.2123  0.2803
   23MOL   O17023974   6.168   1.995   6.298 -0.7639 -0.8104 -0.4076
   23MOL   C17123975   5.900   2.002   6.283 -0.7795  0.4600 -0.7788
   23MOL   C17223976   5.787   1.936   6.326 -0.6246 -0.2484 -0.3434
   23MOL   C17323977   5.667   1.957   6.264 -0.5790  0.0053 -0.3947
   23MOL   C17423978   5.662   2.048   6.157 -0.8929 -0.2377 -0.2656
   23MOL   O17523979   5.551   2.070   6.085  0.1761  0.0008  0.1642
   23MOL   C17623980   5.470   2.174   6.129  0.4828 -0.3805 -0.0744
   23MOL   C17723981   5.495   2.310   6.091  0.5794  0.0662 -0.8339
   23MOL   C17823982   5.411   2.410   6.135  0.2949 -0.5767 -0.8140
   23MOL   C17923983   5.294   2.384   6.213 -0.4286  0.2655  0.3559
   23MOL   C18023984   5.196   2.500   6.249  0.5423 -0.4984  1.1361
   23MOL   C18123985   5.058   2.461   6.185  0.4111 -0.1891 -0.5491
   23MOL   C18223986   5.181   2.513   6.408 -0.3509 -0.1019 -0.8719
   23MOL   C18323987   5.242   2.641   6.197 -0.7028  0.4457  0.0783
   23MOL   C18423988   5.345   2.715   6.270  0.0837 -0.3375 -0.2907
   23MOL   C18523989   5.397   2.836   6.215  0.1430  0.9409  0.5046
   23MOL   C18623990   5.334   2.893   6.108 -0.9322  0.3501 -0.4256
   23MOL   O18723991   5.365   3.024   6.071 -0.6744  0.0664  0.6097
   23MOL   C18823992   5.234   2.821   6.038 -0.3098  1.0925  0.0349
   23MOL   C18923993   5.185   2.696   6.082 -0.3946 -0.1164  0.3502
   23MOL   C19023994   5.268   2.250   6.249  0.3550  0.4931 -0.1596
   23MOL   C19123995   5.355   2.152   6.208  0.4507  0.3403 -0.3961
   23MOL   C19223996   5.780   2.110   6.107 -0.2883 -0.8708  0.2326
   23MOL   C19323997   5.905   2.084   6.170  0.5054 -0.2108 -0.3205
   23MOL   C19423998   6.144   2.243   6.456 -0.1023  0.2445  0.3524
   23MOL   C19523999   6.145   2.365   6.524 -0.1244 -0.0334  0.1714
   23MOL   H19624000   5.901   2.296   6.746 -0.8573  1.1949 -1.1743
   23MOL   H19724001   5.894   2.086   6.638  2.0247 -2.2581  1.4199
   23MOL   H19824002   5.799   1.864   6.406  2.2352 -0.0758 -0.5580
   23MOL   H19924003   5.575   1.915   6.302  0.8318 -1.5892  1.3610
   23MOL   H20024004   5.586   2.343   6.044  1.2381 -1.7024 -0.8330
   23MOL   H20124005   5.429   2.515   6.116 -0.0356 -0.3108  0.3184
   23MOL   H20224006   4.976   2.528   6.212 -1.1901 -2.2069 -0.2551
   23MOL   H20324007   5.013   2.370   6.225 -1.0990  0.5315 -0.5539
   23MOL   H20424008   5.059   2.442   6.078 -4.5035  0.5589 -0.8551
   23MOL   H20524009   5.139   2.428   6.461 -0.8568  1.4100  1.1876
   23MOL   H20624010   5.280   2.521   6.452 -1.2956 -0.1771  1.3117
   23MOL   H20724011   5.123   2.603   6.429  0.8066  0.4704 -0.1247
   23MOL   H20824012   5.394   2.665   6.352 -0.2957 -0.4238 -0.1152
   23MOL   H20924013   5.469   2.898   6.267  1.4605 -0.1076 -0.0560
   23MOL   H21024014   5.180   2.860   5.954  0.2623 -0.5533 -1.1307
   23MOL   H21124015   5.106   2.648   6.026  0.1959  0.9588 -1.4215
   23MOL   H21224016   5.186   2.242   6.319 -0.0131  2.7952 -0.2947
   23MOL   H21324017   5.317   2.057   6.244  0.8211  1.0367  1.9026
   23MOL   H21424018   5.751   2.174   6.025  2.3415 -1.3643 -1.1556
   23MOL   H21524019   5.996   2.121   6.127 -0.1120 -0.6498 -2.0472
   23MOL   H21624020   6.206   2.231   6.369  0.3663  0.8065  0.6028
   23MOL   H21724021   6.211   2.444   6.492 -2.3981  1.1378 -1.8008
   23MOL   C21824022   5.384   3.116   6.170 -0.3316  0.7530  0.0480
   23MOL   C21924023   5.517   3.142   6.219  0.2617 -0.4171  0.0214
   23MOL   C22024024   5.524   3.242   6.318 -0.3227  0.1519 -0.2037
   23MOL   C22124025   5.410   3.321   6.347 -0.2958 -0.4477  0.2158
   23MOL   S22224026   5.428   3.451   6.464  0.1066  0.1389 -0.1446
   23MOL   O22324027   5.431   3.388   6.595 -0.0805  0.3788  0.2420
   23MOL   O22424028   5.325   3.552   6.439  0.7684  0.4774  0.4422
   23MOL   C22524029   5.590   3.523   6.439  0.3347  0.0748  0.0989
   23MOL   C22624030   5.608   3.583   6.315 -0.2149  0.3816 -0.2042
   23MOL   C22724031   5.733   3.632   6.276 -0.1016 -0.1013  0.0383
   23MOL   C22824032   5.842   3.618   6.361 -0.4480 -0.2870 -0.8335
   23MOL   O22924033   5.969   3.649   6.316  0.3896 -0.1385 -0.0047
   23MOL   C23024034   6.066   3.548   6.310 -0.3810 -0.0241 -0.0209
   23MOL   C23124035   6.040   3.413   6.280  0.3210 -0.4315 -0.2315
   23MOL   C23224036   6.135   3.312   6.278  0.1607  0.0895  0.4793
   23MOL   C23324037   6.267   3.338   6.314 -0.6328 -0.1769  0.2576
   23MOL   C23424038   6.367   3.224   6.330 -0.8887 -0.8507  0.3590
   23MOL   C23524039   6.510   3.276   6.338  0.4143  0.8047 -0.5210
   23MOL   C23624040   6.340   3.162   6.467  0.6870  0.4562 -0.0708
   23MOL   C23724041   6.348   3.128   6.205  0.1171 -0.4896 -0.2811
   23MOL   C23824042   6.407   3.162   6.083 -0.1310  0.2247  0.4930
   23MOL   C23924043   6.412   3.069   5.981 -0.2892  0.4255  0.0509
   23MOL   C24024044   6.360   2.942   5.999 -0.6151 -0.4385 -0.1433
   23MOL   O24124045   6.379   2.847   5.899  0.0649 -0.0731 -0.1969
   23MOL   C24224046   6.283   2.911   6.109 -0.8686 -0.2642 -0.0314
   23MOL   C24324047   6.275   3.008   6.216 -0.2996 -0.2821 -0.9354
   23MOL   C24424048   6.299   3.470   6.353  0.0994  0.0336 -0.2871
   23MOL   C24524049   6.200   3.572   6.343  0.4043 -0.2849 -0.2842
   23MOL   C24624050   5.826   3.555   6.490 -0.1498  0.0070 -0.5041
   23MOL   C24724051   5.695   3.520   6.530 -0.3396  0.5786  0.1376
   23MOL   C24824052   5.284   3.293   6.292  0.2958  0.0674  0.3936
   23MOL   C24924053   5.275   3.189   6.203  0.2728  0.1294  0.1280
   23MOL   H25024054   5.601   3.080   6.191 -0.5138 -1.9116  0.9220
   23MOL   H25124055   5.609   3.274   6.376 -1.1719  0.6378  0.7997
   23MOL   H25224056   5.527   3.575   6.244 -1.2244  2.7930  0.6328
   23MOL   H25324057   5.748   3.676   6.178 -2.9010 -0.0610 -0.4040
   23MOL   H25424058   5.938   3.396   6.247 -0.2185  1.6934  0.2348
   23MOL   H25524059   6.096   3.217   6.244  1.1236 -0.3446  0.5474
   23MOL   H25624060   6.577   3.191   6.341  1.1178  1.3917  1.0373
   23MOL   H25724061   6.533   3.331   6.429  0.8512 -0.6328  0.2406
   23MOL   H25824062   6.531   3.340   6.252  3.2078  0.5563 -0.0548
   23MOL   H25924063   6.402   3.079   6.499 -1.0006 -0.9204 -0.3359
   23MOL   H26024064   6.341   3.243   6.540  2.1849  0.3925 -0.0087
   23MOL   H26124065   6.234   3.136   6.467  0.7790  0.0425 -1.8546
   23MOL   H26224066   6.462   3.254   6.067 -3.3917  1.9870 -1.0153
   23MOL   H26324067   6.481   3.092   5.902  0.8587  1.7182  1.3981
   23MOL   H26424068   6.233   2.815   6.113  0.6190 -1.0524  0.0680
   23MOL   H26524069   6.210   2.989   6.300  0.6592  1.2856  0.1853
   23MOL   H26624070   6.398   3.506   6.375 -0.4982 -0.0412  2.8414
   23MOL   H26724071   6.222   3.677   6.361  1.2728 -0.9740  3.0912
   23MOL   H26824072   5.913   3.545   6.554  0.0064 -0.5754 -0.8065
   23MOL   H26924073   5.685   3.477   6.629 -0.4711 -1.9578 -0.9505
   23MOL   H27024074   5.195   3.344   6.326  1.1741  0.6713  1.8468
   23MOL   H27124075   5.181   3.161   6.158  0.6126 -0.5179 -0.1886
   23MOL   C27224076   6.280   2.822   5.808  0.2726 -0.2781  0.2290
   23MOL   C27324077   6.149   2.775   5.840  0.4563  0.3178 -0.4626
   23MOL   C27424078   6.052   2.751   5.741  0.8360 -0.3025  0.0565
   23MOL   C27524079   6.073   2.779   5.606 -0.7977 -0.3903 -0.0608
   23MOL   S27624080   5.935   2.762   5.491 -0.2148  0.0081 -0.5201
   23MOL   O27724081   5.973   2.819   5.362 -0.1056 -0.2817 -0.0068
   23MOL   O27824082   5.823   2.824   5.566 -0.7837  0.3636 -0.1978
   23MOL   C27924083   5.895   2.589   5.470  0.0598 -0.0793  0.3974
   23MOL   C28024084   5.990   2.490   5.486  0.2588  0.1328 -0.1419
   23MOL   C28124085   5.960   2.350   5.492  0.8698  0.2304 -0.4756
   23MOL   C28224086   5.824   2.314   5.472  0.3360 -0.2144  0.2702
   23MOL   O28324087   5.768   2.193   5.476  0.0764 -0.0681  0.5151
   23MOL   C28424088   5.828   2.095   5.552 -0.5074 -0.8146  0.1349
   23MOL   C28524089   5.909   1.993   5.496  0.2983  0.5106 -0.1875
   23MOL   C28624090   5.988   1.909   5.581 -0.1310 -0.1019  0.1589
   23MOL   C28724091   5.975   1.927   5.720 -0.2494  0.1848 -0.0086
   23MOL   C28824092   6.053   1.822   5.807  0.0253 -0.2433 -0.2722
   23MOL   C28924093   6.032   1.862   5.957  0.6564  0.3686  0.1802
   23MOL   C29024094   5.997   1.677   5.784  0.3965 -0.3218 -0.1233
   23MOL   C29124095   6.207   1.833   5.791 -0.5313  0.4696 -0.3068
   23MOL   C29224096   6.264   1.937   5.710  0.3876 -0.3050 -0.0903
   23MOL   C29324097   6.401   1.963   5.697 -0.2179  0.1962 -0.5296
   23MOL   C29424098   6.488   1.870   5.752  0.2447 -0.0805 -0.5833
   23MOL   O29524099   6.624   1.875   5.732 -0.0011 -0.0324  0.9343
   23MOL   C29624100   6.442   1.757   5.821  0.7916 -0.7885 -0.0753
   23MOL   C29724101   6.304   1.739   5.852  0.4247  0.6864 -0.0085
   23MOL   C29824102   5.890   2.025   5.770 -0.3891  0.1478  0.4628
   23MOL   C29924103   5.813   2.108   5.686  0.1937 -0.3029 -0.0944
   23MOL   C30024104   5.725   2.413   5.459 -0.5593 -0.1337  0.3787
   23MOL   C30124105   5.758   2.548   5.455 -0.1990 -0.7258 -0.4232
   23MOL   C30224106   6.201   2.834   5.574 -1.0780  0.6738  0.2684
   23MOL   C30324107   6.301   2.849   5.673  0.3156  0.3320  0.1002
   23MOL   H30424108   6.129   2.747   5.942  0.3287 -1.0325 -0.8456
   23MOL   H30524109   5.954   2.718   5.772  0.9869 -0.6034  0.2154
   23MOL   H30624110   6.094   2.518   5.494  0.8815 -2.0403 -0.5031
   23MOL   H30724111   6.035   2.274   5.506  0.2942  0.0048  1.4122
   23MOL   H30824112   5.914   1.989   5.388 -1.0558 -0.1218 -0.2355
   23MOL   H30924113   6.032   1.821   5.536 -0.2489  0.5924 -1.3279
   23MOL   H31024114   5.930   1.853   5.995  1.8560 -2.0055  2.9996
   23MOL   H31124115   6.056   1.968   5.968 -0.7363  1.0249 -2.6969
   23MOL   H31224116   6.090   1.802   6.027 -0.1469  0.0064  0.5475
   23MOL   H31324117   6.006   1.632   5.685 -0.1279 -0.2219 -0.2190
   23MOL   H31424118   6.026   1.610   5.864  0.7848 -1.2688 -1.0477
   23MOL   H31524119   5.889   1.684   5.798  0.3632  1.6111 -1.2169
   23MOL   H31624120   6.200   2.007   5.659 -0.3257 -0.3716  0.6989
   23MOL   H31724121   6.447   2.044   5.642  0.3345  0.1595 -0.1306
   23MOL   H31824122   6.507   1.676   5.851  0.3430 -0.8786  0.6634
   23MOL   H31924123   6.268   1.661   5.916  0.4723  1.8066  1.4161
   23MOL   H32024124   5.882   2.047   5.876  3.8606 -1.6054  1.2342
   23MOL   H32124125   5.750   2.187   5.725  3.8273  1.5812  2.2520
   23MOL   H32224126   5.622   2.388   5.441 -0.2762 -1.6179  0.7883
   23MOL   H32324127   5.680   2.622   5.455  1.6931  1.3195  0.5778
   23MOL   H32424128   6.222   2.855   5.470 -0.0140  0.2735  0.3933
   23MOL   H32524129   6.393   2.875   5.622  1.4610 -2.7305  0.4646
   23MOL   C32624130   6.678   1.985   5.790 -0.4493  0.4226  0.1920
   23MOL   C32724131   6.698   2.006   5.929 -0.2562 -0.0732 -0.2604
   23MOL   C32824132   6.765   2.124   5.969 -0.3244  0.0880  0.2298
   23MOL   C32924133   6.804   2.220   5.879 -0.3911 -0.2215  0.6606
   23MOL   S33024134   6.878   2.372   5.946 -0.1790 -0.0067  0.1316
   23MOL   O33124135   6.770   2.439   6.021 -0.3025  0.2419 -0.1082
   23MOL   O33224136   6.945   2.441   5.836 -0.0832  0.8555  0.2390
   23MOL   C33324137   7.000   2.306   6.063 -0.5906 -0.0821  0.3169
   23MOL   C33424138   6.975   2.319   6.201  0.0712 -0.7250  0.4670
   23MOL   C33524139   7.070   2.273   6.298 -0.4898 -1.1328 -0.2486
   23MOL   C33624140   7.186   2.207   6.255 -0.2004 -0.2822 -0.6208
   23MOL   O33724141   7.270   2.147   6.343  0.3465  0.3754 -0.4211
   23MOL   C33824142   7.219   2.043   6.421  0.3679 -0.6329 -0.4639
   23MOL   C33924143   7.229   2.048   6.560  0.4798 -0.1219 -0.0740
   23MOL   C34024144   7.173   1.949   6.637 -0.3953  0.0780  0.5447
   23MOL   C34124145   7.111   1.837   6.585 -0.6923 -0.1429  0.0646
   23MOL   C34224146   7.040   1.747   6.689 -0.0921  0.4750 -0.4056
   23MOL   C34324147   6.939   1.834   6.761  0.2625 -1.0610 -0.2170
   23MOL   C34424148   6.961   1.632   6.624  0.7627 -0.4851  0.2314
   23MOL   C34524149   7.140   1.675   6.787  0.8418  0.5303  0.0446
   23MOL   C34624150   7.115   1.662   6.926 -0.3519 -0.2083 -0.5207
   23MOL   C34724151   7.201   1.586   7.005  0.4131  0.2544 -0.6819
   23MOL   C34824152   7.316   1.528   6.949  0.0854  0.5896 -0.3322
   23MOL   O34924153   7.402   1.451   7.026 -0.8294  0.0903 -0.0013
   23MOL   C35024154   7.353   1.552   6.821  0.0120 -0.1775  0.3979
   23MOL   C35124155   7.263   1.618   6.743  0.6408  0.4330  1.3405
   23MOL   C35224156   7.105   1.827   6.442 -0.4809  0.0119  0.4409
   23MOL   C35324157   7.144   1.940   6.361 -0.0871  0.2892  0.5252
   23MOL   C35424158   7.208   2.185   6.115  0.1760 -0.4028  0.1609
   23MOL   C35524159   7.112   2.232   6.023 -0.0934  0.0246  0.3519
   23MOL   C35624160   6.784   2.199   5.741  0.0573 -1.6270 -0.4210
   23MOL   C35724161   6.722   2.087   5.701  0.5566 -0.0476 -0.0484
   23MOL   H35824162   6.655   1.939   6.001 -1.0210 -1.2929 -1.8261
   23MOL   H35924163   6.776   2.138   6.075  1.4059 -0.5793  0.1535
   23MOL   H36024164   6.885   2.365   6.240 -0.1094 -0.4121 -0.2986
   23MOL   H36124165   7.056   2.291   6.404  1.8272  1.3726 -0.3142
   23MOL   H36224166   7.271   2.134   6.611  1.8802 -0.0644 -1.2913
   23MOL   H36324167   7.180   1.956   6.744 -1.0397 -1.6454  0.7247
   23MOL   H36424168   6.865   1.884   6.697 -0.4835  0.6796  1.9381
   23MOL   H36524169   6.990   1.914   6.815  0.2475 -0.0414 -1.6681
   23MOL   H36624170   6.872   1.777   6.825  0.0735 -1.1794 -0.5222
   23MOL   H36724171   6.900   1.665   6.539  0.5393 -0.3271  0.4531
   23MOL   H36824172   7.028   1.557   6.582  0.6325 -1.3538  1.5914
   23MOL   H36924173   6.900   1.580   6.697 -0.7163 -1.1366 -1.4203
   23MOL   H37024174   7.020   1.691   6.969  0.2082  0.0320  0.5479
   23MOL   H37124175   7.177   1.582   7.110 -1.1159  1.9717 -0.9237
   23MOL   H37224176   7.450   1.527   6.781  0.7811  2.4247  0.5539
   23MOL   H37324177   7.277   1.624   6.636 -0.4763  0.8536  1.2004
   23MOL   H37424178   7.058   1.743   6.393  0.5669 -0.1660 -0.2928
   23MOL   H37524179   7.135   1.942   6.253 -1.2537  0.0426  0.6119
   23MOL   H37624180   7.288   2.123   6.076 -1.6550 -2.4957 -0.4127
   23MOL   H37724181   7.123   2.213   5.918 -1.2942 -0.2259  0.2694
   23MOL   H37824182   6.825   2.268   5.669  1.3985 -0.8004  1.0730
   23MOL   H37924183   6.722   2.079   5.593 -2.4567  1.1915 -0.1940
   23MOL   C38024184   7.395   1.316   7.011  0.1320 -0.6771  0.4876
   23MOL   C38124185   7.281   1.243   7.068  0.3259  0.2760 -0.7119
   23MOL   C38224186   7.290   1.106   7.067 -0.6249  0.3003  0.2033
   23MOL   C38324187   7.393   1.039   7.004  0.2910 -0.2148 -0.2382
   23MOL   S38424188   7.401   0.864   7.016  0.1340 -0.0653 -0.1768
   23MOL   O38524189   7.514   0.808   6.941 -0.3203 -0.0252 -0.1519
   23MOL   O38624190   7.265   0.808   6.988 -0.6833 -0.3160  0.0431
   23MOL   C38724191   7.428   0.827   7.184  0.4167 -0.0293 -0.6111
   23MOL   C38824192   7.520   0.901   7.254  0.1809 -0.0714  0.1267
   23MOL   C38924193   7.548   0.858   7.382 -0.9885  0.1614  0.6586
   23MOL   C39024194   7.486   0.744   7.440  0.0527  0.1513 -0.1890
   23MOL   O39124195   7.515   0.696   7.567  0.7659  0.1521 -0.2819
   23MOL   C39224196   7.578   0.778   7.658  0.8096  0.1365  0.0310
   23MOL   C39324197   7.714   0.763   7.674  0.8209  0.5439  0.0081
   23MOL   C39424198   7.782   0.843   7.767 -0.3355 -0.1976 -0.6069
   23MOL   C39524199   7.714   0.941   7.842 -0.3332  0.9459 -0.4046
   23MOL   C39624200   7.777   1.037   7.947  0.3695 -0.2961 -0.3020
   23MOL   C39724201   7.727   0.988   8.082  0.2745 -0.2371 -0.6261
   23MOL   C39824202   7.937   1.035   7.953  1.1466 -0.2278  0.1903
   23MOL   C39924203   7.737   1.183   7.909  0.2411  0.2870 -0.6856
   23MOL   C40024204   7.643   1.256   7.986 -0.0842  0.1813 -0.1149
   23MOL   C40124205   7.582   1.368   7.937  0.1303  0.1017 -0.1211
   23MOL   C40224206   7.626   1.424   7.816  0.3746  0.5681  0.1381
   23MOL   O40324207   7.557   1.529   7.760  0.3383  0.2372  0.3796
   23MOL   C40424208   7.721   1.359   7.739 -0.0081 -0.4506 -0.0424
   23MOL   C40524209   7.766   1.232   7.781  0.2886 -0.1494 -1.1760
   23MOL   C40624210   7.575   0.952   7.820  0.5392  0.0717 -0.4704
   23MOL   C40724211   7.505   0.865   7.744 -0.2006 -0.2453  0.7881
   23MOL   C40824212   7.386   0.676   7.375 -0.0838  0.0091  0.2932
   23MOL   C40924213   7.361   0.715   7.239 -0.2458  0.3766 -0.0716
   23MOL   C41024214   7.497   1.105   6.938  0.7009 -0.2712 -0.5470
   23MOL   C41124215   7.492   1.248   6.935  0.1705  0.5461  0.3212
   23MOL   H41224216   7.207   1.306   7.117  0.7033  0.3839 -0.2777
   23MOL   H41324217   7.216   1.047   7.118  1.1691 -2.4089 -0.2554
   23MOL   H41424218   7.578   0.985   7.219 -1.6350  1.9803  1.8314
   23MOL   H41524219   7.621   0.910   7.441 -1.4997 -0.6727  2.0573
   23MOL   H41624220   7.751   0.679   7.618  0.5884  1.2013 -1.1491
   23MOL   H41724221   7.888   0.828   7.779 -0.6285 -1.7546  0.1028
   23MOL   H41824222   7.770   0.889   8.096  1.7262  0.3835 -0.5469
   23MOL   H41924223   7.620   0.973   8.070  0.0660  0.4064  0.3651
   23MOL   H42024224   7.751   1.047   8.171  1.0507 -2.2109  0.4857
   23MOL   H42124225   7.970   1.109   8.025  2.7932  1.4239 -2.2013
   23MOL   H42224226   7.978   0.938   7.980  0.5278 -0.6301 -0.3028
   23MOL   H42324227   7.987   1.068   7.862 -0.1473 -1.1872 -0.8914
   23MOL   H42424228   7.608   1.219   8.081 -0.0068  1.5823  0.4612
   23MOL   H42524229   7.513   1.417   8.004  1.0707  0.1610  0.8166
   23MOL   H42624230   7.733   1.398   7.639  1.5841  0.2018  0.3871
   23MOL   H42724231   7.826   1.169   7.717  1.1332  0.5139 -1.0545
   23MOL   H42824232   7.521   1.019   7.885  0.4236 -0.1794 -0.3077
   23MOL   H42924233   7.397   0.858   7.747 -0.1889 -0.2298  1.1670
   23MOL   H43024234   7.324   0.598   7.417 -1.7510  0.5415 -1.1414
   23MOL   H43124235   7.297   0.654   7.177  0.4561 -1.3609  0.8723
   23MOL   H43224236   7.575   1.047   6.890 -0.3073 -1.4334 -0.8080
   23MOL   H43324237   7.562   1.311   6.881 -0.5705  2.0336  1.0740
   23MOL   C43424238   7.622   1.651   7.757 -0.2367 -0.3826  1.1407
   23MOL   C43524239   7.694   1.695   7.642 -0.3803  0.1069 -0.0200
   23MOL   C43624240   7.753   1.824   7.635  0.4764 -0.8356 -0.7908
   23MOL   C43724241   7.752   1.906   7.750 -0.4535  0.1154 -0.3427
   23MOL   S43824242   7.822   2.070   7.730  0.0894  0.6602  0.0132
   23MOL   O43924243   7.913   2.062   7.611 -0.0952  0.2060 -0.7371
   23MOL   O44024244   7.868   2.109   7.866  0.3309  0.1794 -0.2253
   23MOL   C44124245   7.681   2.176   7.698 -0.2895 -0.1167  0.3377
   23MOL   C44224246   7.667   2.240   7.573  0.3956  0.9923  0.4965
   23MOL   C44324247   7.549   2.316   7.549  0.1717 -0.8135 -0.0019
   23MOL   C44424248   7.458   2.342   7.655  0.0188 -0.5323  0.0609
   23MOL   O44524249   7.351   2.430   7.653  0.4860  0.4098  0.1466
   23MOL   C44624250   7.350   2.544   7.726  0.0240 -0.1302 -0.5885
   23MOL   C44724251   7.246   2.559   7.818 -0.5243  0.0126  0.0679
   23MOL   C44824252   7.222   2.680   7.879 -0.2887 -0.4956  0.1042
   23MOL   C44924253   7.311   2.788   7.856  0.3691 -0.6813 -1.0148
   23MOL   C45024254   7.283   2.927   7.922 -0.0499 -0.4259 -0.0811
   23MOL   C45124255   7.142   2.978   7.866  0.8087 -0.2864  0.3838
   23MOL   C45224256   7.261   2.919   8.078  0.2409 -0.4960 -0.3065
   23MOL   C45324257   7.397   3.025   7.880  0.3669  0.3208 -0.0747
   23MOL   C45424258   7.377   3.123   7.776 -0.2499  0.0915  0.7291
   23MOL   C45524259   7.475   3.213   7.741 -0.3169  0.0090  0.9983
   23MOL   C45624260   7.591   3.219   7.812 -0.3137  0.4993  0.0616
   23MOL   O45724261   7.690   3.302   7.779 -0.3046 -0.1635 -0.3036
   23MOL   C45824262   7.619   3.120   7.910 -0.1327 -0.6821  0.1610
   23MOL   C45924263   7.517   3.029   7.948  1.3218  0.1018  0.2734
   23MOL   C46024264   7.421   2.769   7.771  0.0263  0.3882  0.3307
   23MOL   C46124265   7.435   2.651   7.700 -0.2249 -0.7473 -0.4636
   23MOL   C46224266   7.482   2.283   7.776 -0.2416 -0.4144 -0.1748
   23MOL   C46324267   7.593   2.200   7.800 -0.4018 -0.5350  0.4901
   23MOL   C46424268   7.693   1.861   7.873 -0.0025 -0.1279  0.8468
   23MOL   C46524269   7.615   1.741   7.868 -0.1858  0.2398  0.3499
   23MOL   H46624270   7.691   1.635   7.553 -0.8183 -0.7549  0.5703
   23MOL   H46724271   7.807   1.850   7.545 -2.9715 -0.5470 -2.8830
   23MOL   H46824272   7.741   2.227   7.495 -0.2617 -1.8553  0.2749
   23MOL   H46924273   7.531   2.356   7.450 -1.5484 -4.0702 -1.0976
   23MOL   H47024274   7.174   2.480   7.834 -1.8149  1.2359  0.3570
   23MOL   H47124275   7.133   2.700   7.936  0.4534  1.3742  0.6464
   23MOL   H47224276   7.049   2.927   7.892  0.0705  1.1876  0.7315
   23MOL   H47324277   7.140   2.950   7.761  1.0586  0.0281  0.2969
   23MOL   H47424278   7.131   3.082   7.898 -1.6496 -0.1019 -0.9064
   23MOL   H47524279   7.330   2.842   8.110  0.5227  0.0035  0.3086
   23MOL   H47624280   7.282   3.018   8.119 -0.9091 -1.0673  1.6948
   23MOL   H47724281   7.161   2.888   8.109  0.1964 -0.3449 -0.2980
   23MOL   H47824282   7.284   3.119   7.722  0.3920 -1.7451 -0.2911
   23MOL   H47924283   7.472   3.281   7.658 -1.2257 -1.9279 -0.6059
   23MOL   H48024284   7.710   3.117   7.967 -0.9525 -1.4537  1.4429
   23MOL   H48124285   7.545   2.963   8.029  0.1306 -0.9970 -0.1842
   23MOL   H48224286   7.494   2.845   7.748  0.7848 -1.2146 -2.8442
   23MOL   H48324287   7.518   2.654   7.631  0.4146  0.7179  0.3431
   23MOL   H48424288   7.420   2.310   7.860  0.2778 -1.6314  0.6180
   23MOL   H48524289   7.605   2.164   7.901  0.3183 -3.4225 -0.5860
   23MOL   H48624290   7.692   1.924   7.960  1.4862  0.1443  0.6858
   23MOL   H48724291   7.556   1.728   7.958 -0.3238 -0.9907  0.0824
   23MOL   C48824292   7.738   3.303   7.651 -0.7032 -0.0123 -0.3728
   23MOL   C48924293   7.792   3.423   7.596  0.2190  0.1706  0.1542
   23MOL   C49024294   7.831   3.433   7.464  0.4026  0.3060  0.4960
   23MOL   C49124295   7.833   3.312   7.387  0.2992 -1.0481 -0.0305
   23MOL   S49224296   7.887   3.313   7.220  0.8654 -0.0465  0.1722
   23MOL   O49324297   7.996   3.212   7.205 -0.6798 -0.6196 -0.3952
   23MOL   O49424298   7.906   3.458   7.185 -0.1592 -0.4630 -0.5825
   23MOL   C49524299   7.743   3.265   7.138 -0.0237 -0.3944  0.1409
   23MOL   C49624300   7.631   3.341   7.156 -0.2757  0.2289  0.5741
   23MOL   C49724301   7.504   3.292   7.117 -0.1758 -0.0446  0.3714
   23MOL   C49824302   7.499   3.165   7.052  0.1794  0.3296  0.0993
   23MOL   O49924303   7.384   3.113   7.003  0.6658  0.1076 -0.6394
   23MOL   C50024304   7.362   3.113   6.863 -0.4305  0.5333 -0.5692
   23MOL   C50124305   7.359   3.227   6.785 -0.3661 -0.2045 -0.3800
   23MOL   C50224306   7.364   3.212   6.649  0.2613 -0.3779 -0.3447
   23MOL   C50324307   7.364   3.090   6.584 -0.1159  0.1984  0.5147
   23MOL   C50424308   7.369   3.084   6.429  0.0052  0.0408  0.1719
   23MOL   C50524309   7.253   2.992   6.385  0.0526 -0.2468 -0.4318
   23MOL   C50624310   7.343   3.213   6.346 -0.3709  0.0498  0.1071
   23MOL   C50724311   7.505   3.024   6.387 -0.3481  0.9201  0.4113
   23MOL   C50824312   7.516   2.890   6.353  0.5300 -0.4457 -0.0364
   23MOL   C50924313   7.635   2.846   6.287  0.3020  0.1274 -0.0040
   23MOL   C51024314   7.747   2.925   6.271 -0.2113  0.0466 -0.2886
   23MOL   O51124315   7.856   2.873   6.201  0.1797 -0.0024  0.2470
   23MOL   C51224316   7.741   3.058   6.322  0.2968 -0.1646 -0.5211
   23MOL   C51324317   7.621   3.105   6.379  0.1138 -0.7782 -0.0451
   23MOL   C51424318   7.368   2.971   6.667 -0.6042  0.1791  0.0747
   23MOL   C51524319   7.371   2.983   6.807 -0.0877  0.5578 -0.2676
   23MOL   C51624320   7.623   3.090   7.028 -0.1858  0.0070  0.4981
   23MOL   C51724321   7.747   3.144   7.070  0.2625 -0.7331  0.7311
   23MOL   C51824322   7.795   3.185   7.439 -0.3910 -0.1257  1.0876
   23MOL   C51924323   7.744   3.183   7.571 -0.0002  0.0872  1.1692
   23MOL   H52024324   7.799   3.507   7.662 -0.9707 -0.2255  0.7983
   23MOL   H52124325   7.875   3.523   7.423  1.2618  0.6345  2.0845
   23MOL   H52224326   7.637   3.434   7.210 -0.9907  0.1575  0.7872
   23MOL   H52324327   7.412   3.348   7.127  0.2099  0.4601  1.1367
   23MOL   H52424328   7.351   3.322   6.837  1.4275  0.5471 -1.3972
   23MOL   H52524329   7.380   3.299   6.587 -0.9630 -0.3835 -0.6783
   23MOL   H52624330   7.248   2.895   6.435  1.5795 -0.2515 -0.2738
   23MOL   H52724331   7.251   2.979   6.277 -0.6561  0.4419 -0.5090
   23MOL   H52824332   7.159   3.040   6.412  0.8670  1.3175 -0.2899
   23MOL   H52924333   7.411   3.295   6.370 -1.6249  1.5517 -1.3781
   23MOL   H53024334   7.359   3.210   6.238 -1.0430 -1.2673  0.0364
   23MOL   H53124335   7.245   3.248   6.375  0.1046  1.1987  0.3484
   23MOL   H53224336   7.438   2.816   6.350  0.9562 -0.8460 -1.6966
   23MOL   H53324337   7.635   2.743   6.255  0.5389  0.1612 -0.1115
   23MOL   H53424338   7.826   3.124   6.311  0.5010 -0.2747  0.4131
   23MOL   H53524339   7.614   3.211   6.397  1.5457 -0.2939 -2.1471
   23MOL   H53624340   7.364   2.874   6.620 -1.2587  0.2468 -0.0125
   23MOL   H53724341   7.388   2.895   6.868 -0.2782  1.9465  1.8115
   23MOL   H53824342   7.618   3.000   6.968  0.5907  0.0986  0.2906
   23MOL   H53924343   7.835   3.087   7.046  1.4998  1.4766 -0.1129
   23MOL   H54024344   7.809   3.099   7.375  0.7300  1.0794 -0.3094
   23MOL   H54124345   7.710   3.093   7.621 -0.5021 -0.9596 -1.0315
   23MOL   C54224346   7.913   2.956   6.096  0.3041  0.3132  0.7028
   23MOL   C54324347   7.839   3.056   6.029 -0.2688 -0.2219 -0.1024
   23MOL   C54424348   7.895   3.142   5.934 -0.1754  0.2184  0.0787
   23MOL   C54524349   8.033   3.129   5.902 -0.3254 -0.4893  0.5142
   23MOL   S54624350   8.120   3.246   5.801  0.1794 -0.4138 -0.0981
   23MOL   O54724351   8.014   3.341   5.761  0.2558 -0.7119 -0.1153
   23MOL   O54824352   8.194   3.174   5.700  0.0114  0.7728 -0.4887
   23MOL   C54924353   8.245   3.336   5.899  0.2332  1.0968  0.0037
   23MOL   C55024354   0.062   3.270   6.008 -0.3287 -0.4621  0.0703
   23MOL   C55124355   0.152   3.341   6.093 -0.5894 -0.1301  0.1064
   23MOL   C55224356   0.177   3.478   6.059 -0.3742 -0.5400 -0.9813
   23MOL   O55324357   0.253   3.550   6.142 -0.5340 -0.4518  0.1368
   23MOL   C55424358   0.371   3.606   6.089 -0.7634 -0.7255 -0.3495
   23MOL   C55524359   0.469   3.523   6.026  0.5019  0.3696 -0.0179
   23MOL   C55624360   0.592   3.576   5.988  0.2428  0.0941  0.6311
   23MOL   C55724361   0.618   3.717   6.002 -0.4201  0.9439 -0.4284
   23MOL   C55824362   0.747   3.771   5.948 -0.3111  0.9957 -0.1556
   23MOL   C55924363   0.755   3.727   5.794 -0.4779  0.0528 -0.6050
   23MOL   C56024364   0.755   3.927   5.956  0.2234  0.2985  0.1553
   23MOL   C56124365   0.862   3.721   6.040 -0.2349  0.2448 -0.2107
   23MOL   C56224366   0.863   3.755   6.178  0.3300 -0.7141 -0.2787
   23MOL   C56324367   0.971   3.721   6.255 -0.1930 -0.3231  0.5687
   23MOL   C56424368   1.074   3.633   6.203 -0.2599  0.7006  0.3883
   23MOL   O56524369   1.172   3.587   6.285  0.2759 -0.0487 -0.0692
   23MOL   C56624370   1.070   3.599   6.065  0.1310  0.0338 -0.4551
   23MOL   C56724371   0.966   3.644   5.986  1.1318  0.7342 -0.2039
   23MOL   C56824372   0.515   3.800   6.054  0.9579  1.1317  0.3605
   23MOL   C56924373   0.390   3.748   6.098  0.6094  0.2417 -0.5193
   23MOL   C57024374   0.114   3.541   5.948  0.1605 -0.7428 -0.3721
   23MOL   C57124375   0.028   3.469   5.867  0.3742  0.3801 -0.8325
   23MOL   C57224376   8.109   3.029   5.965  0.0121  0.3744  0.0777
   23MOL   C57324377   8.046   2.944   6.055  0.3909  0.1744 -0.2315
   23MOL   H57424378   7.736   3.065   6.060 -0.0998 -1.8209  1.0148
   23MOL   H57524379   7.840   3.224   5.890  1.7803  1.3356 -0.3763
   23MOL   H57624380   0.039   3.168   6.035  0.1820 -0.3580  0.9243
   23MOL   H57724381   0.198   3.302   6.182  0.2269 -1.5034 -0.9025
   23MOL   H57824382   0.458   3.418   6.004 -4.0103  0.7088  0.1718
   23MOL   H57924383   0.665   3.511   5.943  0.1551 -1.3488  2.4854
   23MOL   H58024384   0.842   3.774   5.749 -1.3291  1.6767 -0.5930
   23MOL   H58124385   0.660   3.751   5.746 -0.3888 -1.4601 -1.5720
   23MOL   H58224386   0.769   3.620   5.782  1.4338  0.4004 -1.5969
   23MOL   H58324387   0.687   3.967   5.881 -1.5769 -1.8734  0.5888
   23MOL   H58424388   0.729   3.974   6.051  0.4195  2.6196 -0.9161
   23MOL   H58524389   0.856   3.955   5.925 -0.6491  1.5527 -1.6214
   23MOL   H58624390   0.788   3.827   6.209  1.9757  0.5876  0.7680
   23MOL   H58724391   0.979   3.750   6.359  1.6138 -1.1116  0.6691
   23MOL   H58824392   1.143   3.541   6.011  0.6516  0.0793  0.1811
   23MOL   H58924393   0.969   3.612   5.883  1.2366  2.7417 -0.8484
   23MOL   H59024394   0.526   3.907   6.057  1.0580  1.0856  3.2028
   23MOL   H59124395   0.306   3.808   6.132 -0.3568  0.0717 -2.5160
   23MOL   H59224396   0.140   3.644   5.927  0.3796 -1.1886 -2.3380
   23MOL   H59324397   8.222   3.526   5.796 -1.0596 -0.1293 -0.0619
   23MOL   H59424398   8.214   3.020   5.941  0.3140 -0.8159  1.7461
   23MOL   H59524399   8.108   2.864   6.093 -1.5143  0.0515  2.7988
   23MOL   C59624400   1.290   3.654   6.295  0.0715 -0.3315  0.8503
   23MOL   C59724401   1.415   3.586   6.261  0.8545 -0.2652  0.2037
   23MOL   C59824402   1.537   3.650   6.275  0.5113 -0.3311  0.0749
   23MOL   C59924403   1.539   3.782   6.332 -0.3256 -0.5507  0.2634
   23MOL   S60024404   1.697   3.865   6.356 -0.1343  0.0178  0.1013
   23MOL   O60124405   1.797   3.770   6.315 -0.3006  0.0045  0.8237
   23MOL   O60224406   1.698   3.924   6.492 -0.0454 -0.0036 -0.4639
   23MOL   C60324407   1.713   3.995   6.234 -0.6935 -0.3783  0.1418
   23MOL   C60424408   1.682   3.980   6.098 -0.3579  0.2365  0.2637
   23MOL   C60524409   1.703   4.090   6.014  0.8484  0.0758  0.2354
   23MOL   C60624410   1.760   4.211   6.061 -0.3886  0.6324  0.2213
   23MOL   O60724411   1.784   4.316   5.979  0.0924  0.4340  0.4120
   23MOL   C60824412   1.695   4.420   5.965 -0.5648 -0.4271  0.7184
   23MOL   C60924413   1.565   4.418   6.017 -1.2193 -0.2242 -0.3744
   23MOL   C61024414   1.486   4.532   6.012 -0.3250  0.4048  0.1385
   23MOL   C61124415   1.536   4.648   5.955  0.6936  0.0318 -0.1137
   23MOL   C61224416   1.437   4.769   5.959  0.3780 -0.2344  0.5487
   23MOL   C61324417   1.474   4.891   5.875  0.0043 -0.9044 -0.1148
   23MOL   C61424418   1.308   4.727   5.882 -0.3100 -0.2868 -0.1291
   23MOL   C61524419   1.407   4.812   6.105  0.3033  0.1596 -0.3665
   23MOL   C61624420   1.517   4.844   6.188 -0.3406 -0.0749 -0.9218
   23MOL   C61724421   1.504   4.910   6.305  0.3396 -0.6774  0.0000
   23MOL   C61824422   1.375   4.937   6.363 -0.1916 -0.3282  0.2768
   23MOL   O61924423   1.355   5.006   6.482 -0.1439  0.1967  0.0560
   23MOL   C62024424   1.268   4.904   6.283  0.5928 -0.6777  0.0701
   23MOL   C62124425   1.278   4.846   6.154 -0.9068  0.2440  0.2555
   23MOL   C62224426   1.664   4.650   5.894 -0.4023 -0.7237  0.0900
   23MOL   C62324427   1.746   4.534   5.905 -0.1415 -0.3168 -0.0615
   23MOL   C62424428   1.794   4.222   6.199 -0.1311  0.0043 -0.3170
   23MOL   C62524429   1.765   4.116   6.285  0.0174 -0.3716 -0.6034
   23MOL   C62624430   1.417   3.852   6.351 -0.1780  0.4357 -0.0988
   23MOL   C62724431   1.292   3.790   6.329 -0.3159 -0.1707 -0.1680
   23MOL   H62824432   1.412   3.485   6.223 -1.7152  0.0226 -0.4623
   23MOL   H62924433   1.633   3.605   6.253 -0.0343  0.0010 -3.3746
   23MOL   H63024434   1.635   3.886   6.075 -0.0185  0.0926  0.1538
   23MOL   H63124435   1.684   4.082   5.907 -0.0413  0.9682  0.3101
   23MOL   H63224436   1.527   4.327   6.061  0.8581 -0.4478  1.0329
   23MOL   H63324437   1.385   4.519   6.049 -0.2070  3.3425  1.5756
   23MOL   H63424438   1.390   4.960   5.872  0.4458 -0.3806 -0.4732
   23MOL   H63524439   1.486   4.869   5.768  0.2801 -1.6528  0.0687
   23MOL   H63624440   1.563   4.945   5.907 -1.9267  1.9533  0.6015
   23MOL   H63724441   1.323   4.696   5.778  0.4050  1.9158 -0.6949
   23MOL   H63824442   1.261   4.646   5.939 -1.2246  0.9339  0.8795
   23MOL   H63924443   1.232   4.805   5.881  0.5655  0.5677 -0.0365
   23MOL   H64024444   1.619   4.825   6.155  0.6477  0.6062  1.6066
   23MOL   H64124445   1.594   4.950   6.348  2.2877 -1.4207 -3.2684
   23MOL   H64224446   1.174   4.924   6.332 -0.3830 -2.2639 -1.1240
   23MOL   H64324447   1.188   4.833   6.094 -1.0802 -1.6905  0.9151
   23MOL   H64424448   1.713   4.737   5.853 -3.0997 -0.5938 -3.0945
   23MOL   H64524449   1.847   4.532   5.868 -0.4729 -0.0123 -1.0145
   23MOL   H64624450   1.831   4.319   6.231  0.9486  0.0261 -1.5471
   23MOL   H64724451   1.788   4.128   6.389  0.6638 -0.2582 -0.7538
   23MOL   H64824452   1.412   3.953   6.387 -0.5818  0.2282  0.4324
   23MOL   H64924453   1.201   3.844   6.353  0.1897  0.6384 -0.0613
   23MOL   C65024454   1.462   5.050   6.551 -0.5524  0.0648 -0.3466
   23MOL   C65124455   1.495   5.180   6.518 -0.3573  0.5385 -0.1280
   23MOL   C65224456   1.607   5.236   6.583  0.3646  0.0256  0.5163
   23MOL   C65324457   1.677   5.163   6.679 -1.4726  0.9831 -0.3491
   23MOL   S65424458   1.833   5.222   6.757  0.2323 -0.0490 -0.2885
   23MOL   O65524459   1.947   5.183   6.675 -0.2425 -0.2560  0.8856
   23MOL   O65624460   1.828   5.180   6.896 -0.4757 -0.2113 -0.0734
   23MOL   C65724461   1.806   5.404   6.748 -0.1660  0.3647 -0.0714
   23MOL   C65824462   1.738   5.466   6.854  0.4625 -0.2126  0.1863
   23MOL   C65924463   1.728   5.604   6.856 -0.3205  0.0621  0.4552
   23MOL   C66024464   1.783   5.687   6.759  0.3945 -0.1671  0.2158
   23MOL   O66124465   1.771   5.820   6.773 -0.0474  0.1544  0.4300
   23MOL   C66224466   1.782   5.902   6.665  0.3539  0.0191 -0.2789
   23MOL   C66324467   1.690   5.899   6.556 -0.3385 -0.1303  1.1329
   23MOL   C66424468   1.705   5.997   6.454 -0.3643 -0.3703 -0.0554
   23MOL   C66524469   1.812   6.091   6.448  0.7908  0.2517 -0.9880
   23MOL   C66624470   1.826   6.202   6.341 -0.2644 -0.6217 -0.9307
   23MOL   C66724471   1.745   6.180   6.215 -0.2496 -0.0920  0.0117
   23MOL   C66824472   1.775   6.338   6.408  0.3489 -0.2924 -0.2126
   23MOL   C66924473   1.970   6.216   6.295  0.8403  0.5307 -0.6592
   23MOL   C67024474   2.019   6.343   6.250 -0.2385 -0.9156  0.0130
   23MOL   C67124475   2.149   6.357   6.207 -0.0100 -0.4217  0.3282
   23MOL   C67224476   2.235   6.244   6.194 -0.1528  0.2077 -0.6734
   23MOL   O67324477   2.364   6.265   6.164 -0.7332  0.4934 -0.0077
   23MOL   C67424478   2.190   6.117   6.236 -0.4226 -0.0545 -0.2375
   23MOL   C67524479   2.057   6.104   6.284  0.2304  0.7350 -0.0171
   23MOL   C67624480   1.896   6.097   6.561 -0.2476  0.2151 -0.5749
   23MOL   C67724481   1.882   6.003   6.667 -0.1460  0.0202 -0.1167
   23MOL   C67824482   1.857   5.620   6.654  0.7410 -0.2708  0.3264
   23MOL   C67924483   1.870   5.478   6.648  0.7336 -0.1607 -0.8629
   23MOL   C68024484   1.633   5.035   6.716 -0.2018  0.4177  0.9551
   23MOL   C68124485   1.531   4.974   6.652  0.6239  0.4479 -0.3659
   23MOL   H68224486   1.442   5.236   6.442  0.9949  0.8959 -0.8192
   23MOL   H68324487   1.626   5.339   6.556  0.6829 -0.3360 -0.6583
   23MOL   H68424488   1.696   5.411   6.936 -0.0871  0.1902  0.1793
   23MOL   H68524489   1.670   5.655   6.931  0.4015  0.4032  0.7908
   23MOL   H68624490   1.611   5.826   6.551 -0.8636  0.4680  0.7049
   23MOL   H68724491   1.638   5.983   6.371 -0.2082  2.9398 -0.7848
   23MOL   H68824492   1.779   6.086   6.171 -3.4855 -1.6136  0.5540
   23MOL   H68924493   1.764   6.259   6.143 -0.5216  1.3127  1.4389
   23MOL   H69024494   1.637   6.169   6.226 -0.4467  0.5097 -1.3479
   23MOL   H69124495   1.763   6.425   6.342  1.9132  1.3054  1.5575
   23MOL   H69224496   1.674   6.320   6.445  0.4573 -1.6658 -0.5674
   23MOL   H69324497   1.839   6.366   6.491  2.6585 -3.1813 -0.9747
   23MOL   H69424498   1.960   6.433   6.253  0.5745 -0.3921  0.8613
   23MOL   H69524499   2.192   6.451   6.176 -1.7145  0.0310 -0.7067
   23MOL   H69624500   2.258   6.035   6.251 -0.6430 -0.5673 -1.9622
   23MOL   H69724501   2.030   6.006   6.321  1.5745 -0.5768 -2.3760
   23MOL   H69824502   1.977   6.169   6.562  0.1829 -0.2500 -1.7057
   23MOL   H69924503   1.949   6.014   6.751 -0.5000 -0.0549  0.1743
   23MOL   H70024504   1.892   5.675   6.568 -3.2793  2.2626  0.1562
   23MOL   H70124505   1.917   5.432   6.562 -1.0308 -1.1477 -1.3348
   23MOL   H70224506   1.692   4.980   6.788  0.5561 -0.4931 -0.3389
   23MOL   H70324507   1.507   4.871   6.675  0.8615  0.2939 -0.8086
   23MOL   C70424508   2.419   6.169   6.080  0.0093  0.2020 -0.2244
   23MOL   C70524509   2.392   6.164   5.944 -0.3746  0.1864  0.7243
   23MOL   C70624510   2.469   6.088   5.854  0.0302  0.5397  0.8253
   23MOL   C70724511   2.566   5.994   5.907  0.2208  0.0050  0.1059
   23MOL   S70824512   2.669   5.886   5.804 -0.0015 -0.1258  0.3719
   23MOL   O70924513   2.592   5.766   5.762  0.1935 -0.0468 -0.0232
   23MOL   O71024514   2.794   5.860   5.868  0.2033 -0.2109 -0.1083
   23MOL   C71124515   2.696   5.981   5.664  1.1952 -0.2123 -0.3034
   23MOL   C71224516   2.812   6.054   5.654  0.1887  0.2798  0.1702
   23MOL   C71324517   2.827   6.136   5.546  0.0306 -0.2081  0.1441
   23MOL   C71424518   2.743   6.126   5.431 -0.7220  0.4162 -0.1648
   23MOL   O71524519   2.768   6.200   5.313 -0.7864  0.2917  0.0022
   23MOL   C71624520   2.757   6.133   5.191 -0.3500  0.0259 -0.7221
   23MOL   C71724521   2.706   6.190   5.074  0.2404 -0.4323 -0.5130
   23MOL   C71824522   2.711   6.115   4.955 -0.9804  0.0231  0.3520
   23MOL   C71924523   2.759   5.985   4.950  0.0668  0.1507 -0.0358
   23MOL   C72024524   2.770   5.907   4.818 -0.4871  0.3025 -0.9387
   23MOL   C72124525   2.900   5.964   4.753 -0.0649  0.1454 -0.5045
   23MOL   C72224526   2.792   5.758   4.842 -0.1736  0.5644  0.0429
   23MOL   C72324527   2.646   5.921   4.724  0.1146  0.6955  0.3999
   23MOL   C72424528   2.517   5.873   4.763 -0.2464 -1.0220  0.2750
   23MOL   C72524529   2.404   5.895   4.691 -0.0064  0.6469  0.2518
   23MOL   C72624530   2.411   5.962   4.570  0.1030 -0.5631  0.6267
   23MOL   O72724531   2.304   5.975   4.482  0.1497 -0.0435 -0.0136
   23MOL   C72824532   2.531   6.020   4.530 -1.5697 -0.0368  0.9662
   23MOL   C72924533   2.650   5.991   4.605  0.3277 -0.1288  0.5552
   23MOL   C73024534   2.802   5.922   5.074  0.2038  0.3324  0.3181
   23MOL   C73124535   2.805   6.001   5.191  0.6335  0.3739 -0.3216
   23MOL   C73224536   2.631   6.038   5.438  0.2448  0.1815  0.0779
   23MOL   C73324537   2.605   5.970   5.558 -0.4240 -0.5730  0.7325
   23MOL   C73424538   2.576   5.981   6.043 -0.2268 -0.0058 -0.1687
   23MOL   C73524539   2.516   6.076   6.132 -0.1555  0.1939  0.2867
   23MOL   H73624540   2.314   6.227   5.903  1.2307  1.2076 -0.8407
   23MOL   H73724541   2.453   6.089   5.748  1.1656 -0.7945  0.6121
   23MOL   H73824542   2.882   6.054   5.737 -0.9158 -1.2173  1.1229
   23MOL   H73924543   2.923   6.185   5.551  0.0729 -0.4788  2.1215
   23MOL   H74024544   2.671   6.292   5.069  0.1088 -0.4120  0.6782
   23MOL   H74124545   2.682   6.163   4.862 -1.4506 -0.9154  0.0101
   23MOL   H74224546   2.897   6.063   4.708 -0.6556  1.0986  1.5783
   23MOL   H74324547   2.946   5.897   4.680 -1.3416 -0.1444 -1.0606
   23MOL   H74424548   2.976   5.954   4.830 -1.0456  2.0331  0.7357
   23MOL   H74524549   2.893   5.745   4.882 -0.5083 -1.0632  0.3900
   23MOL   H74624550   2.728   5.702   4.910 -1.5930  2.0235 -0.0810
   23MOL   H74724551   2.792   5.693   4.754  0.3372  2.7560 -1.6120
   23MOL   H74824552   2.496   5.829   4.860 -0.9806  1.6214  1.3427
   23MOL   H74924553   2.308   5.867   4.732 -0.1552  2.8470  1.5150
   23MOL   H75024554   2.532   6.081   4.441 -2.3629 -1.7346 -0.2299
   23MOL   H75124555   2.740   6.045   4.579  0.2304 -0.8096 -1.2584
   23MOL   H75224556   2.846   5.823   5.075 -1.5403 -0.4656  1.6693
   23MOL   H75324557   2.858   5.965   5.278  1.2359 -0.5101 -1.0386
   23MOL   H75424558   2.569   6.027   5.350  0.1361 -0.3900  0.2247
   23MOL   H75524559   2.528   5.895   5.566 -3.1029  1.5092 -3.2625
   23MOL   H75624560   2.651   5.914   6.083  0.4656  0.4588 -0.6622
   23MOL   H75724561   2.542   6.072   6.237  1.3457 -0.4498 -0.0906
   23MOL   C75824562   2.170   5.988   4.529 -0.5176  0.1056 -0.0735
   23MOL   C75924563   2.089   5.875   4.565  0.4785  0.5493  1.0647
   23MOL   C76024564   1.963   5.907   4.606  0.4986 -0.3591 -0.0233
   23MOL   C76124565   1.913   6.040   4.609 -0.1080 -0.4060 -0.2605
   23MOL   S76224566   1.737   6.080   4.645 -0.1649 -0.1525 -0.3063
   23MOL   O76324567   1.657   6.017   4.542  0.0004 -0.0379 -0.0106
   23MOL   O76424568   1.724   6.225   4.658 -0.3612 -0.4671  0.0817
   23MOL   C76524569   1.692   6.004   4.801 -0.5394  0.5898 -0.3800
   23MOL   C76624570   1.563   5.973   4.832 -0.3928 -0.0639  0.4007
   23MOL   C76724571   1.529   5.935   4.964 -0.3675  0.3670 -0.1504
   23MOL   C76824572   1.627   5.933   5.065 -0.1224  0.0370 -0.1114
   23MOL   O76924573   1.594   5.929   5.198  0.1542  0.6499 -0.8376
   23MOL   C77024574   1.636   5.831   5.280  0.0152  0.8045 -0.7900
   23MOL   C77124575   1.753   5.843   5.352  0.0844  0.1691 -0.2323
   23MOL   C77224576   1.785   5.743   5.441 -0.3006  0.3229  0.6798
   23MOL   C77324577   1.713   5.619   5.453 -0.4258  0.2472  0.4171
   23MOL   C77424578   1.761   5.508   5.542 -0.3933 -0.8178  0.7615
   23MOL   C77524579   1.906   5.522   5.602 -0.0306  0.1542  0.4346
   23MOL   C77624580   1.653   5.502   5.649 -0.3115  0.1523 -0.2987
   23MOL   C77724581   1.777   5.377   5.460  0.6017 -0.2009 -0.6962
   23MOL   C77824582   1.726   5.254   5.516  0.0808  0.2413 -0.6717
   23MOL   C77924583   1.724   5.136   5.442 -0.6570  0.4382  0.6768
   23MOL   C78024584   1.774   5.139   5.310 -0.3944 -0.2001 -0.8936
   23MOL   O78124585   1.777   5.032   5.225 -0.2981  0.7592 -0.1096
   23MOL   C78224586   1.838   5.257   5.262  0.1589 -0.3573  0.3483
   23MOL   C78324587   1.830   5.374   5.331 -0.7615  0.5259  0.6048
   23MOL   C78424588   1.594   5.609   5.386  0.4465  0.6016  0.7358
   23MOL   C78524589   1.555   5.715   5.301 -0.4770 -0.8419  0.9505
   23MOL   C78624590   1.760   5.949   5.029 -0.2051 -1.1898  0.5688
   23MOL   C78724591   1.788   6.001   4.901  0.1904 -0.1915 -0.3611
   23MOL   C78824592   1.998   6.147   4.583  0.2618 -0.6724 -0.0333
   23MOL   C78924593   2.126   6.120   4.539 -0.1691 -1.0252 -0.3323
   23MOL   H79024594   2.128   5.774   4.556  1.4570  1.2128 -2.6842
   23MOL   H79124595   1.893   5.827   4.626 -0.8238  0.7491 -0.1353
   23MOL   H79224596   1.482   5.971   4.761  1.4006  0.7402 -1.6980
   23MOL   H79324597   1.428   5.918   4.998  0.0675  0.6175  1.3002
   23MOL   H79424598   1.813   5.930   5.330  1.2813 -0.6734 -0.3729
   23MOL   H79524599   1.872   5.770   5.499  0.1897  2.2088 -0.8819
   23MOL   H79624600   1.921   5.607   5.669  2.8556  1.0853 -1.3142
   23MOL   H79724601   1.991   5.520   5.534  0.9292 -2.7933  1.6455
   23MOL   H79824602   1.923   5.442   5.674 -0.0791 -1.4151 -1.2494
   23MOL   H79924603   1.634   5.597   5.699  1.3548  0.8245 -0.8961
   23MOL   H80024604   1.566   5.463   5.596  1.1914 -0.8630 -2.0873
   23MOL   H80124605   1.682   5.432   5.727 -0.3379 -1.2413 -1.5179
   23MOL   H80224606   1.675   5.251   5.611  0.0290 -1.8232 -0.7313
   23MOL   H80324607   1.682   5.047   5.487  0.1530 -0.7144 -0.7912
   23MOL   H80424608   1.897   5.265   5.172 -1.0640  1.4949 -0.3142
   23MOL   H80524609   1.876   5.457   5.279 -0.0269 -0.9456 -1.1263
   23MOL   H80624610   1.530   5.522   5.382  0.9038  0.3225 -0.7235
   23MOL   H80724611   1.456   5.708   5.260 -0.2246  1.1320 -0.0900
   23MOL   H80824612   1.836   5.967   5.103  0.4442  1.1429 -0.6112
   23MOL   H80924613   1.885   6.045   4.889  0.8420 -1.0202  1.5655
   23MOL   H81024614   1.970   6.251   4.578  0.6307 -0.5833 -0.2240
   23MOL   H81124615   2.196   6.199   4.518 -0.2802 -1.1886 -1.3497
   23MOL   C81224616   1.715   5.044   5.106 -0.2151  0.6290  0.3002
   23MOL   C81324617   1.582   5.086   5.091 -0.6242  0.2602 -0.2478
   23MOL   C81424618   1.529   5.097   4.961 -0.1174 -0.6335  0.4487
   23MOL   C81524619   1.600   5.066   4.844 -0.3706  0.2128 -0.3590
   23MOL   S81624620   1.534   5.072   4.680 -0.2318  0.0538 -0.1922
   23MOL   O81724621   1.601   4.973   4.594  0.0070  0.1185  0.5986
   23MOL   O81824622   1.537   5.213   4.645 -0.1168 -0.3588 -0.0635
   23MOL   C81924623   1.363   5.026   4.691 -1.7118  0.1249 -0.3082
   23MOL   C82024624   1.331   4.905   4.756 -0.1156 -0.0290  1.1849
   23MOL   C82124625   1.194   4.873   4.771 -0.0190 -0.1780  0.3456
   23MOL   C82224626   1.095   4.948   4.704  0.3925  0.1275 -0.8761
   23MOL   O82324627   0.963   4.916   4.726  0.1462  0.3086 -0.3901
   23MOL   C82424628   0.908   4.915   4.853  0.7581 -0.4767 -0.6398
   23MOL   C82524629   0.873   4.798   4.913 -0.4548 -0.6125  0.0306
   23MOL   C82624630   0.831   4.803   5.050  0.8378 -0.0699 -0.4620
   23MOL   C82724631   0.819   4.923   5.121  0.6218  0.0392 -0.4137
   23MOL   C82824632   0.754   4.932   5.264 -1.8522  1.0819 -0.3214
   23MOL   C82924633   0.603   4.921   5.231 -0.5476  0.3064 -0.2320
   23MOL   C83024634   0.802   4.814   5.349 -0.3450  0.6834  0.7429
   23MOL   C83124635   0.802   5.055   5.338  0.0441 -0.2170 -0.2711
   23MOL   C83224636   0.712   5.139   5.404  0.3272 -0.1793  0.6709
   23MOL   C83324637   0.759   5.258   5.464  0.2643 -0.1484 -0.5189
   23MOL   C83424638   0.892   5.292   5.466  0.1292  0.8409  1.0917
   23MOL   O83524639   0.935   5.404   5.536 -0.1640  0.2302  0.2667
   23MOL   C83624640   0.987   5.200   5.409  0.0268 -0.2661 -0.1274
   23MOL   C83724641   0.940   5.083   5.342  0.4434  0.8899 -0.2389
   23MOL   C83824642   0.850   5.041   5.048  1.1301 -0.0369 -0.2693
   23MOL   C83924643   0.904   5.045   4.917 -0.2158 -0.0178  0.2167
   23MOL   C84024644   1.133   5.055   4.621  0.3444  0.0011  0.0386
   23MOL   C84124645   1.266   5.097   4.625  0.5562  0.3719  0.1006
   23MOL   C84224646   1.736   5.025   4.859  0.4129 -0.3983 -0.4079
   23MOL   C84324647   1.791   5.017   4.989 -0.0929  0.9371  0.2759
   23MOL   H84424648   1.515   5.099   5.175  0.8081 -2.6398  1.4185
   23MOL   H84524649   1.425   5.126   4.957 -0.5570 -2.1494  0.5999
   23MOL   H84624650   1.405   4.840   4.800  1.8763  1.7499  0.5378
   23MOL   H84724651   1.183   4.780   4.825 -1.7736  0.1778  0.6272
   23MOL   H84824652   0.876   4.705   4.859  1.5029 -1.7963  2.0467
   23MOL   H84924653   0.798   4.715   5.104  0.1853  1.5562  1.8658
   23MOL   H85024654   0.563   4.991   5.158 -1.4229  0.1076  0.0526
   23MOL   H85124655   0.538   4.922   5.319  2.1081 -0.8750  1.8349
   23MOL   H85224656   0.585   4.825   5.184  0.0640  1.1684 -2.2883
   23MOL   H85324657   0.909   4.801   5.334 -0.1882 -0.7730  2.9072
   23MOL   H85424658   0.782   4.834   5.454 -1.4490 -1.5598  0.9793
   23MOL   H85524659   0.746   4.722   5.333  1.4068 -0.6822  2.1509
   23MOL   H85624660   0.605   5.122   5.402 -0.1044  2.3061  0.7002
   23MOL   H85724661   0.696   5.330   5.515  1.6792 -0.5781  1.9284
   23MOL   H85824662   1.091   5.228   5.415 -0.4939  1.5774  0.8333
   23MOL   H85924663   1.012   5.020   5.290  0.2891  0.0234  0.5876
   23MOL   H86024664   0.838   5.132   5.105 -0.0428  0.4178 -1.2307
   23MOL   H86124665   0.928   5.139   4.869 -0.2373  0.3491  0.9302
   23MOL   H86224666   1.056   5.119   4.582  1.4393  0.8761 -0.6971
   23MOL   H86324667   1.298   5.194   4.587  0.0059  0.7291  0.5377
   23MOL   H86424668   1.797   4.998   4.775  1.9800  1.0538  0.2318
   23MOL   H86524669   1.894   4.984   4.999 -0.5524 -0.3683  0.7780
   23MOL   C86624670   0.958   5.514   5.468  0.9325  0.1999 -0.8577
   23MOL   C86724671   0.859   5.588   5.403 -0.3944  0.4466 -0.9393
   23MOL   C86824672   0.893   5.707   5.334  0.2130 -0.1178 -0.5612
   23MOL   C86924673   1.027   5.750   5.335  0.1016 -0.2110 -0.4618
   23MOL   S87024674   1.058   5.895   5.242  0.0174 -0.2128 -0.1878
   23MOL   O87124675   0.948   5.901   5.148 -0.5211  0.8366  0.1108
   23MOL   O87224676   1.197   5.887   5.192 -0.2830  0.6122  0.3041
   23MOL   C87324677   1.053   6.021   5.366  0.1653 -0.0568  0.6125
   23MOL   C87424678   0.947   6.114   5.370  0.5328 -0.0365 -0.2034
   23MOL   C87524679   0.952   6.218   5.459 -0.4994 -1.0045  0.4243
   23MOL   C87624680   1.050   6.226   5.557  0.4994  0.7537 -0.2594
   23MOL   O87724681   1.048   6.329   5.648  0.0317 -0.0334  0.3915
   23MOL   C87824682   1.127   6.435   5.626  0.9945 -0.4326 -0.6479
   23MOL   C87924683   1.142   6.519   5.738  0.1771  0.3471  0.1728
   23MOL   C88024684   1.224   6.635   5.732  0.9000  0.8558 -0.5944
   23MOL   C88124685   1.289   6.667   5.615  0.4143  0.1834 -0.5747
   23MOL   C88224686   1.366   6.796   5.608  0.2653 -0.5888 -1.3380
   23MOL   C88324687   1.460   6.809   5.490 -0.0731 -0.1583 -0.6517
   23MOL   C88424688   1.265   6.910   5.596 -0.1348  0.5185  0.5393
   23MOL   C88524689   1.458   6.808   5.732  0.0334  0.0561  0.2422
   23MOL   C88624690   1.451   6.917   5.824  0.1858  0.0158 -0.3052
   23MOL   C88724691   1.523   6.913   5.948  0.1795  0.1048  0.5374
   23MOL   C88824692   1.617   6.810   5.970  0.0018 -0.6898  0.1692
   23MOL   O88924693   1.686   6.798   6.088  0.4060  0.3366  0.4624
   23MOL   C89024694   1.641   6.713   5.870  0.0753 -0.6606  0.2974
   23MOL   C89124695   1.562   6.712   5.755 -0.4443 -0.5207  0.1732
   23MOL   C89224696   1.280   6.578   5.503  0.5690 -0.1805 -0.3922
   23MOL   C89324697   1.195   6.463   5.504 -0.3468  0.5229  0.7455
   23MOL   C89424698   1.145   6.125   5.559 -0.2618 -0.3072 -0.0432
   23MOL   C89524699   1.156   6.030   5.459  0.0033  0.4854 -0.5893
   23MOL   C89624700   1.122   5.685   5.413  0.4842  0.1729  1.0007
   23MOL   C89724701   1.092   5.562   5.479 -0.2806 -0.6425 -0.0743
   23MOL   H89824702   0.762   5.540   5.399  0.2196 -0.9674  0.5697
   23MOL   H89924703   0.815   5.763   5.285 -0.2700  1.3987  1.8589
   23MOL   H90024704   0.872   6.116   5.292  0.7254 -2.1683 -0.4817
   23MOL   H90124705   0.887   6.303   5.449  0.6350 -0.2645 -0.7579
   23MOL   H90224706   1.092   6.486   5.828 -0.0424 -0.0244 -0.0805
   23MOL   H90324707   1.243   6.696   5.819 -0.6652 -1.6300  1.5680
   23MOL   H90424708   1.405   6.816   5.396  0.4587  1.3008 -0.8788
   23MOL   H90524709   1.519   6.718   5.485  2.5264  1.4347  0.1162
   23MOL   H90624710   1.528   6.893   5.505 -1.5241  0.7722  0.8927
   23MOL   H90724711   1.189   6.906   5.674 -0.2834 -2.9997  0.2590
   23MOL   H90824712   1.306   7.011   5.596 -0.2694  0.5733  1.2592
   23MOL   H90924713   1.214   6.897   5.501 -1.0520  1.0190  0.9582
   23MOL   H91024714   1.368   6.986   5.826 -0.9248 -1.3104  0.0817
   23MOL   H91124715   1.511   6.981   6.031 -0.8759 -0.9590  1.2729
   23MOL   H91224716   1.714   6.635   5.887  1.5512 -0.3129 -3.8908
   23MOL   H91324717   1.578   6.629   5.688  0.7012 -0.0010 -0.1921
   23MOL   H91424718   1.327   6.602   5.409 -0.5425  1.3305 -0.5913
   23MOL   H91524719   1.185   6.402   5.416 -0.6323  0.9940  0.4467
   23MOL   H91624720   1.217   6.131   5.639 -0.6448  1.0023  0.2223
   23MOL   H91724721   1.239   5.961   5.473  0.0794  0.6639 -0.1329
   23MOL   H91824722   1.225   5.716   5.417  0.8764 -0.8056 -0.8831
   23MOL   H91924723   1.170   5.508   5.531 -0.5247 -1.8248 -0.9114
   23MOL   C92024724   1.624   6.749   6.204 -0.5759  0.3461  0.3727
   23MOL   C92124725   1.532   6.639   6.202 -0.2562  0.4844  0.7528
   23MOL   C92224726   1.474   6.586   6.320  0.2373  0.0441  0.2670
   23MOL   C92324727   1.521   6.639   6.442 -0.2408  0.1535 -0.1029
   23MOL   S92424728   1.472   6.558   6.603  0.0559 -0.3746  0.0962
   23MOL   O92524729   1.586   6.480   6.649  0.0950 -0.1456 -0.5298
   23MOL   O92624730   1.343   6.485   6.573  0.1026  0.5482  0.2989
   23MOL   C92724731   1.443   6.696   6.720  0.3240 -0.3569  0.0980
   23MOL   C92824732   1.555   6.751   6.784  0.0767 -0.3859 -0.0646
   23MOL   C92924733   1.539   6.850   6.882 -0.4949  0.4442  0.0758
   23MOL   C93024734   1.413   6.898   6.908  0.2269 -0.6510  0.4266
   23MOL   O93124735   1.383   6.989   7.009 -0.3999 -0.6946 -0.4389
   23MOL   C93224736   1.388   6.956   7.137 -0.1176  0.3689  0.1836
   23MOL   C93324737   1.383   7.059   7.231 -0.0262  0.0609 -0.4248
   23MOL   C93424738   1.359   7.032   7.370  0.0092 -0.2758 -0.2178
   23MOL   C93524739   1.352   6.899   7.415  0.3719 -0.0452  0.4386
   23MOL   C93624740   1.305   6.871   7.561 -0.4965 -0.4634 -0.5441
   23MOL   C93724741   1.259   6.725   7.584  0.4576 -0.0084  0.7619
   23MOL   C93824742   1.427   6.899   7.652 -0.6602  0.3299 -0.3903
   23MOL   C93924743   1.187   6.958   7.603 -0.4588  0.6317 -0.2480
   23MOL   C94024744   1.094   7.005   7.504 -0.3180  0.0581 -0.1374
   23MOL   C94124745   0.985   7.084   7.544  0.3105  0.3037 -0.6357
   23MOL   C94224746   0.959   7.115   7.683  0.6647 -0.0322 -0.0700
   23MOL   O94324747   0.866   7.212   7.725  0.6259 -0.1178  0.0583
   23MOL   C94424748   1.051   7.058   7.779  0.2194 -0.0776 -0.6490
   23MOL   C94524749   1.163   6.985   7.739  0.3515  0.4393  0.5280
   23MOL   C94624750   1.375   6.797   7.325 -0.0372  0.8353 -0.1065
   23MOL   C94724751   1.396   6.826   7.191  0.3128  0.7330  0.0125
   23MOL   C94824752   1.299   6.850   6.838 -0.0054  0.3615  0.5878
   23MOL   C94924753   1.314   6.744   6.746  1.0753 -0.1140 -0.4172
   23MOL   C95024754   1.601   6.753   6.454  0.5915 -0.1248 -0.2667
   23MOL   C95124755   1.650   6.812   6.333 -0.2712  0.4616 -0.0369
   23MOL   H95224756   1.508   6.587   6.110 -0.5536 -1.8445  2.0969
   23MOL   H95324757   1.406   6.502   6.316 -0.4969  0.3717  3.8449
   23MOL   H95424758   1.650   6.713   6.750 -0.4277 -2.1125  0.3876
   23MOL   H95524759   1.626   6.889   6.933  1.5387  1.0692 -3.6618
   23MOL   H95624760   1.380   7.160   7.195 -0.8370 -0.1965 -1.0849
   23MOL   H95724761   1.342   7.116   7.436  1.0532 -0.1006 -0.1587
   23MOL   H95824762   1.171   6.713   7.521  1.0844 -0.5021 -0.0295
   23MOL   H95924763   1.238   6.710   7.690  0.4382 -0.1611  0.7357
   23MOL   H96024764   1.337   6.651   7.566 -1.4377 -2.2692  1.5461
   23MOL   H96124765   1.419   6.838   7.743  1.4698 -0.0112 -0.4051
   23MOL   H96224766   1.523   6.867   7.611 -2.0678 -0.4418 -3.2130
   23MOL   H96324767   1.429   7.007   7.668 -0.3060  0.0270  1.8216
   23MOL   H96424768   1.113   6.975   7.402  0.9659 -0.3341  0.1995
   23MOL   H96524769   0.910   7.114   7.472 -2.2960 -0.7589  1.5604
   23MOL   H96624770   1.038   7.068   7.886 -1.7185  0.3389 -0.9099
   23MOL   H96724771   1.226   6.948   7.819  3.0973  0.3028 -1.6700
   23MOL   H96824772   1.370   6.691   7.347 -1.2586  0.9247  0.0505
   23MOL   H96924773   1.419   6.753   7.114 -2.2139 -1.4630  1.2503
   23MOL   H97024774   1.199   6.884   6.856  0.0456  1.8330 -1.7121
   23MOL   H97124775   1.233   6.692   6.698 -0.6709 -0.7358  3.0046
   23MOL   H97224776   1.632   6.796   6.547 -1.8742 -0.1243  0.5912
   23MOL   H97324777   1.714   6.897   6.345 -0.7584  0.7177  0.7468
   23MOL   C97424778   0.745   7.171   7.778  0.0490 -0.0895 -0.9220
   23MOL   C97524779   0.705   7.034   7.779 -0.3278 -0.5113  0.0100
   23MOL   C97624780   0.575   6.991   7.816  0.0756 -0.5113  0.1566
   23MOL   C97724781   0.482   7.086   7.847  0.0855 -0.0428 -0.5726
   23MOL   S97824782   0.314   7.042   7.870  0.1540  0.4400 -0.0753
   23MOL   O97924783   0.304   6.925   7.965  0.2730 -0.0021 -0.3109
   23MOL   O98024784   0.244   7.034   7.739  0.1307  0.2316 -0.8123
   23MOL   C98124785   0.232   7.165   7.962  0.1005  0.4679 -0.2524
   23MOL   C98224786   0.100   7.205   7.925  0.6890 -0.5662  0.7562
   23MOL   C98324787   0.020   7.287   8.013 -0.0800  0.1441 -0.0186
   23MOL   C98424788   0.077   7.332   8.135  0.2230 -1.3224 -0.0781
   23MOL   O98524789   8.247   7.402   8.222 -0.1459 -0.2971  0.4283
   23MOL   C98624790   0.032   7.523   0.025  0.1591  0.6504  0.1978
   23MOL   C98724791   8.187   7.579   0.113 -0.2939  0.3555 -0.3894
   23MOL   C98824792   8.198   7.707   0.162 -0.1022  0.0050 -0.2595
   23MOL   C98924793   0.060   7.782   0.130 -0.7441  0.6123  0.0285
   23MOL   C99024794   0.084   7.917   0.197 -0.0213 -0.6376  0.4289
   23MOL   C99124795   8.243   8.029   0.133  0.7733  0.4191  0.4290
   23MOL   C99224796   0.050   7.918   0.347  0.0574 -0.6992 -0.3109
   23MOL   C99324797   0.240   7.960   0.177  0.2580 -0.6701  0.4851
   23MOL   C99424798   0.339   7.888   0.247  0.0522 -0.3278 -0.1632
   23MOL   C99524799   0.475   7.907   0.224 -0.2801 -0.7080 -0.3913
   23MOL   C99624800   0.519   8.012   0.142  0.7979  0.3430 -0.1478
   23MOL   O99724801   0.652   8.026   0.135  0.0017 -0.2429 -0.2281
   23MOL   C99824802   0.422   8.095   0.080  0.1873 -1.1675 -0.2346
   23MOL   C99924803   0.284   8.070   0.099  0.1948  0.5638  0.1980
   23MOL     C124804   0.156   7.726   0.038  0.0248  0.1880  0.3079
   23MOL     C224805   0.139   7.596   8.233 -0.4467 -0.0868 -0.0157
   23MOL     C324806   0.206   7.297   8.165 -0.9836 -0.0166 -0.0755
   23MOL     C424807   0.285   7.212   8.084 -0.1979  0.1683  0.0180
   23MOL     C524808   0.510   7.225   7.840  0.4980  1.5050 -0.4508
   23MOL     C624809   0.640   7.267   7.796 -0.4464  1.0926  0.3306
   23MOL     H724810   0.779   6.962   7.748  0.7934  0.8684 -0.5551
   23MOL     H824811   0.552   6.886   7.815 -1.1772 -0.2266 -1.5022
   23MOL     H924812   0.054   7.172   7.833 -1.1733  2.5520  0.4884
   23MOL    H1024813   8.172   7.317   7.996 -0.2344  2.4498  4.1901
   23MOL    H1124814   8.101   7.521   0.143 -0.6605  1.6927  1.2572
   23MOL    H1224815   8.115   7.739   0.223 -0.6324 -0.9084 -0.4950
   23MOL    H1324816   8.138   8.022   0.159 -0.1072  1.5044 -2.6316
   23MOL    H1424817   8.235   8.043   0.025 -2.5047 -1.2487  0.4070
   23MOL    H1524818   0.013   8.125   0.180  1.5277  0.0607  0.7998
   23MOL    H1624819   0.078   8.015   0.388  0.8498 -1.2674  0.4908
   23MOL    H1724820   8.196   7.917   0.366  0.6247 -1.0515  3.1704
   23MOL    H1824821   0.090   7.831   0.399 -2.2071 -1.6830 -0.1503
   23MOL    H1924822   0.305   7.804   0.306 -1.4647  0.2324 -0.2202
   23MOL    H2024823   0.541   7.840   0.276  2.4718  2.5839  0.5795
   23MOL    H2124824   0.447   8.177   0.014  1.6823 -1.4240  0.0053
   23MOL    H2224825   0.217   8.136   0.046  0.6839  0.1926 -0.8869
   23MOL    H2324826   0.242   7.783   0.005  0.0268  1.0327  1.7657
   23MOL    H2424827   0.218   7.552   8.174 -0.9294 -0.4289 -0.4050
   23MOL    H2524828   0.246   7.330   0.007 -1.9115 -0.9563  0.6400
   23MOL    H2624829   0.380   7.192   8.130 -0.5133  1.0404  1.0583
   23MOL    H2724830   0.438   7.301   7.865 -1.0270  0.0472 -0.3599
   23MOL    H2824831   0.657   7.372   7.778  1.2748  0.7536 -0.1195
   23MOL    C2924832   0.704   8.146   0.100 -0.0030 -0.1643 -0.3614
   23MOL    C3024833   0.750   8.170   8.220  0.1531 -0.2046 -0.8795
   23MOL    C3124834   0.802   0.044   8.184  0.2569 -0.0323  0.0159
   23MOL    C3224835   0.792   0.151   0.026 -0.1288  0.6321  0.0365
   23MOL    S3324836   0.850   0.312   8.234 -0.0798  0.0081  0.2885
   23MOL    O3424837   0.758   0.406   0.049 -1.0079  0.4653 -0.2450
   23MOL    O3524838   0.861   0.310   8.087 -0.1129 -0.2814 -0.0890
   23MOL    C3624839   1.010   0.344   0.056 -0.9226 -0.0194 -0.3820
   23MOL    C3724840   1.125   0.287   0.001  0.1563 -0.4088 -0.3792
   23MOL    C3824841   1.249   0.323   0.059  0.2244 -0.1471 -1.2853
   23MOL    C3924842   1.263   0.421   0.165  0.9867  0.2854  0.5219
   23MOL    O4024843   1.377   0.460   0.225  0.3533  0.3517 -0.4059
   23MOL    C4124844   1.489   0.414   0.166 -0.1851 -0.0216 -0.1262
   23MOL    C4224845   1.550   0.476   0.061  0.3460 -0.1481  0.2398
   23MOL    C4324846   1.673   0.434   0.005  0.6903 -0.5781 -0.4008
   23MOL    C4424847   1.738   0.321   0.061  0.9996  0.5319 -0.4229
   23MOL    C4524848   1.884   0.268   0.020  0.5915  0.2792 -0.2855
   23MOL    C4624849   1.867   0.220   8.122 -0.3171 -0.9089 -0.4724
   23MOL    C4724850   1.982   0.389   0.027  0.6517  0.0550  0.5671
   23MOL    C4824851   1.946   0.156   0.105 -0.0456  0.5409 -0.5665
   23MOL    C4924852   2.007   0.183   0.231 -0.2479 -0.3034 -0.9479
   23MOL    C5024853   2.060   0.079   0.309 -0.0179 -0.0987  0.4800
   23MOL    C5124854   2.070   8.203   0.259 -0.2355  0.7298  0.4495
   23MOL    O5224855   2.142   8.103   0.319  0.1790 -0.2171 -0.5086
   23MOL    C5324856   2.009   8.173   0.140 -0.3878  0.4570  0.5033
   23MOL    C5424857   1.947   0.021   0.064  0.4149  0.6664  0.3170
   23MOL    C5524858   1.674   0.253   0.165 -0.4627  0.1963  0.9668
   23MOL    C5624859   1.554   0.303   0.222  0.2592  0.0761  0.1068
   23MOL    C5724860   1.140   0.473   0.211  0.2392 -0.2724 -0.7475
   23MOL    C5824861   1.015   0.430   0.173 -0.7058  0.5328  0.2010
   23MOL    C5924862   0.746   0.130   0.153 -0.1243 -0.6675 -0.4896
   23MOL    C6024863   0.695   0.002   0.189  0.2946 -0.5651 -0.2331
   23MOL    H6124864   0.758   8.087   8.150  2.3225  0.4329 -1.4392
   23MOL    H6224865   0.840   0.068   8.086 -1.3750  0.4725 -0.5034
   23MOL    H6324866   1.130   0.230   8.163  0.3192 -0.6339 -0.2310
   23MOL    H6424867   1.333   0.275   0.010 -0.4144 -1.4766 -1.1016
   23MOL    H6524868   1.504   0.560   0.011  0.3216 -0.4646 -0.2741
   23MOL    H6624869   1.726   0.493   8.185  2.5025 -1.1879  0.3978
   23MOL    H6724870   1.960   0.176   8.087 -0.1265  0.0351 -1.1721
   23MOL    H6824871   1.827   0.297   8.057 -0.7615 -2.7663 -2.4186
   23MOL    H6924872   1.796   0.137   8.117 -1.1691 -0.2144 -0.0330
   23MOL    H7024873   1.948   0.474   8.222  1.3273 -0.4703 -0.6081
   23MOL    H7124874   1.982   0.424   0.130 -0.0336 -0.8298  0.8771
   23MOL    H7224875   2.087   0.371   0.002  0.4387  1.1504 -1.1647
   23MOL    H7324876   2.011   0.283   0.273  0.6759 -0.9099  0.4314
   23MOL    H7424877   2.108   0.097   0.404  0.3682  0.8009  0.1271
   23MOL    H7524878   2.011   8.072   0.100  0.0353 -0.8305  3.6245
   23MOL    H7624879   1.913   8.242   8.220 -0.7440 -0.0337  0.9363
   23MOL    H7724880   1.719   0.165   0.208  0.3899 -0.1229 -0.5666
   23MOL    H7824881   1.518   0.259   0.314 -2.5040  0.6968 -0.6195
   23MOL    H7924882   1.156   0.551   0.285  1.1972  1.3764 -2.6319
   23MOL    H8024883   0.927   0.474   0.219 -0.1818  1.0784  0.6835
   23MOL    H8124884   0.740   0.213   0.221  1.6323  0.3744 -1.5657
   23MOL    H8224885   0.649   8.243   0.286  2.0578 -0.1724  0.6922
   23MOL    H8324886   2.090   8.024   0.321  0.5661 -0.5134 -1.7719
   24MOL     C124887   7.612   3.529   1.102  0.3718 -1.0416  0.3533
   24MOL     C224888   7.564   3.657   1.131 -0.1664 -0.0482  0.6329
   24MOL     C324889   7.516   3.689   1.257  1.0449 -0.5002  0.8666
   24MOL     C424890   7.536   3.599   1.361  0.2033 -0.2573 -0.1121
   24MOL     S524891   7.499   3.648   1.535  0.7618  0.5510  0.1101
   24MOL     O624892   7.505   3.528   1.623  0.1394  0.0367  0.5778
   24MOL     O724893   7.379   3.727   1.532 -0.4519  0.7837 -0.4308
   24MOL     C824894   7.637   3.754   1.578 -0.1151 -0.3125  0.0584
   24MOL     C924895   7.765   3.737   1.514  0.6133 -0.3242 -0.1584
   24MOL    C1024896   7.872   3.817   1.553  0.1915  0.0793  0.1693
   24MOL    C1124897   7.848   3.909   1.655  0.1680  0.9836 -0.1485
   24MOL    O1224898   7.939   4.007   1.683 -0.2005 -0.1055 -0.6821
   24MOL    C1324899   8.066   3.966   1.707  0.2631 -0.3764 -0.3119
   24MOL    C1424900   8.171   4.038   1.652 -0.0514 -0.2280 -0.0905
   24MOL    C1524901   0.053   4.006   1.673  0.4664  0.0283 -0.3473
   24MOL    C1624902   0.086   3.895   1.751 -0.9692 -0.1046 -0.6334
   24MOL    C1724903   0.232   3.863   1.793  0.3277  0.0857 -0.7801
   24MOL    C1824904   0.254   3.725   1.739 -0.1229  0.8753  0.6797
   24MOL    C1924905   0.341   3.948   1.723  0.2150 -0.5189 -0.0090
   24MOL    C2024906   0.264   3.885   1.943 -1.1525  0.0597 -0.4585
   24MOL    C2124907   0.362   3.804   2.005  0.4725 -0.4031 -0.9023
   24MOL    C2224908   0.387   3.812   2.142 -0.3373  0.0193 -0.0251
   24MOL    C2324909   0.350   3.925   2.214  0.4278 -0.1372  0.0410
   24MOL    O2424910   0.400   3.951   2.341  0.2520 -0.6580 -0.1672
   24MOL    C2524911   0.254   4.007   2.156  0.5296  0.1210  0.9949
   24MOL    C2624912   0.210   3.992   2.021  0.0705 -0.5690 -0.3990
   24MOL    C2724913   8.231   3.813   1.800 -0.5114 -0.0034  0.0483
   24MOL    C2824914   8.094   3.842   1.773  0.1672  0.6267 -0.2669
   24MOL    C2924915   7.730   3.914   1.724 -0.2702 -0.5294 -0.1024
   24MOL    C3024916   7.622   3.829   1.691  0.1490  0.8101 -0.4955
   24MOL    C3124917   7.585   3.471   1.334  0.4256 -0.1583 -0.5032
   24MOL    C3224918   7.624   3.439   1.203 -0.0582 -0.6387  1.0623
   24MOL    H3324919   7.570   3.733   1.054 -2.9345  0.7074  1.1074
   24MOL    H3424920   7.460   3.775   1.288 -0.6506 -1.0954 -0.4674
   24MOL    H3524921   7.783   3.667   1.434 -2.6284 -1.0724 -0.3126
   24MOL    H3624922   7.968   3.806   1.504 -0.4338  0.2681 -1.1049
   24MOL    H3724923   8.154   4.135   1.608 -1.0103  0.2687  1.3637
   24MOL    H3824924   0.132   4.069   1.636 -0.1456  2.0427  1.6881
   24MOL    H3924925   0.362   3.706   1.737 -0.3037 -0.1614  0.4048
   24MOL    H4024926   0.225   3.721   1.634 -0.7817  2.1026  0.8135
   24MOL    H4124927   0.206   3.645   1.795  0.5739  0.0192  0.0690
   24MOL    H4224928   0.439   3.916   1.759  0.4521  1.4831  1.1703
   24MOL    H4324929   0.332   3.953   1.615 -1.6173 -1.2195  0.0961
   24MOL    H4424930   0.337   4.047   1.769  1.0250 -0.7112  0.4873
   24MOL    H4524931   0.407   3.730   1.941  1.1578 -0.2670 -0.5834
   24MOL    H4624932   0.445   3.734   2.189 -1.5557 -0.4845  0.6571
   24MOL    H4724933   0.214   4.093   2.207  0.3701 -0.7241  2.3117
   24MOL    H4824934   0.136   4.058   1.977 -0.3045 -2.0793 -2.1038
   24MOL    H4924935   8.252   3.730   1.866  0.4760  0.1714 -0.0332
   24MOL    H5024936   8.019   3.774   1.811  0.9439 -0.5672 -0.8078
   24MOL    H5124937   7.711   3.995   1.793  0.1873  0.1326 -0.7534
   24MOL    H5224938   7.529   3.830   1.746 -0.1371 -1.4865 -0.8723
   24MOL    H5324939   7.606   3.403   1.415 -0.5365 -0.4553 -0.4990
   24MOL    H5424940   7.669   3.344   1.178 -0.6371 -0.9681  1.2680
   24MOL    H5524941   7.644   3.503   1.002  1.9561  3.5502 -0.4667
   24MOL    C5624942   0.530   3.991   2.359 -0.4238  0.0311  0.2422
   24MOL    C5724943   0.625   3.900   2.404 -0.0579  0.0843 -0.4449
   24MOL    C5824944   0.762   3.937   2.410  0.1013  0.2107 -0.5195
   24MOL    C5924945   0.807   4.065   2.387  1.0223 -0.2599  0.2172
   24MOL    S6024946   0.981   4.114   2.403 -0.3017  0.0766 -0.3310
   24MOL    O6124947   1.002   4.230   2.311  0.5414 -0.2567  0.1120
   24MOL    O6224948   1.072   3.995   2.394 -0.1918  0.0235  0.0077
   24MOL    C6324949   0.995   4.175   2.571  0.6096 -0.0002  0.2206
   24MOL    C6424950   1.118   4.233   2.610 -0.3884  0.0112  0.0867
   24MOL    C6524951   1.138   4.266   2.747  0.0447 -0.5749 -0.2968
   24MOL    C6624952   1.037   4.227   2.836 -0.7834  0.7957  0.0251
   24MOL    O6724953   1.054   4.246   2.967  0.2368 -0.1349 -0.3114
   24MOL    C6824954   1.064   4.376   3.015 -0.1463  0.0274  0.2079
   24MOL    C6924955   0.950   4.463   3.012  0.0463  0.0089  0.3095
   24MOL    C7024956   0.955   4.584   3.073  0.1236 -0.5880 -0.0594
   24MOL    C7124957   1.078   4.635   3.122 -0.2329  0.5212  0.3556
   24MOL    C7224958   1.093   4.769   3.195  0.8679  0.0672 -0.0683
   24MOL    C7324959   1.198   4.856   3.121 -0.9529 -0.0509 -0.1872
   24MOL    C7424960   0.955   4.853   3.195  0.1546  0.4324  0.8772
   24MOL    C7524961   1.134   4.742   3.344  0.1860 -0.4961  0.0218
   24MOL    C7624962   1.086   4.628   3.416  0.6823 -0.3893  0.5441
   24MOL    C7724963   1.131   4.595   3.543  0.6892  0.3225 -0.1351
   24MOL    C7824964   1.237   4.678   3.602  0.3466 -0.1638  0.1540
   24MOL    O7924965   1.276   4.667   3.733 -0.2368 -0.7714 -0.0210
   24MOL    C8024966   1.281   4.793   3.534  0.0884 -0.5120  0.2849
   24MOL    C8124967   1.226   4.827   3.412  0.1515  0.2610  0.6376
   24MOL    C8224968   1.193   4.551   3.110  0.3024 -0.4435 -0.0565
   24MOL    C8324969   1.185   4.423   3.056 -0.3150  0.0340 -0.0711
   24MOL    C8424970   0.913   4.176   2.793  0.3830  0.0477  0.1697
   24MOL    C8524971   0.893   4.151   2.660  0.9100 -0.1002 -0.3401
   24MOL    C8624972   0.708   4.163   2.357  0.0702 -0.1620 -0.4688
   24MOL    C8724973   0.567   4.127   2.336 -0.2637 -0.2777 -0.2510
   24MOL    H8824974   0.600   3.797   2.424  0.1121 -0.2468 -1.8869
   24MOL    H8924975   0.845   3.868   2.420  0.1640  0.0900 -1.7920
   24MOL    H9024976   1.190   4.249   2.531 -0.9644  2.0031 -0.0617
   24MOL    H9124977   1.229   4.308   2.786  1.1489 -3.2961  0.1788
   24MOL    H9224978   0.862   4.420   2.966  0.6972 -0.2816 -0.7118
   24MOL    H9324979   0.860   4.634   3.080  2.6116  4.4043  1.1570
   24MOL    H9424980   1.216   4.953   3.168 -1.6423  0.1508 -0.3241
   24MOL    H9524981   1.158   4.869   3.020 -1.7054  0.0897  0.1208
   24MOL    H9624982   1.293   4.803   3.115 -0.8457 -0.0445  1.3324
   24MOL    H9724983   0.881   4.823   3.269 -0.6342  0.9959  0.3290
   24MOL    H9824984   0.967   4.952   3.241 -0.1197  0.9026 -0.0424
   24MOL    H9924985   0.924   4.861   3.090  2.0905 -0.0498  0.2380
   24MOL   H10024986   1.003   4.573   3.375  0.8307  0.1241 -0.4583
   24MOL   H10124987   1.083   4.509   3.587  2.2887 -0.8462 -0.6329
   24MOL   H10224988   1.349   4.858   3.587  0.3012 -1.2407  0.9049
   24MOL   H10324989   1.263   4.910   3.354 -1.7517 -0.0127 -1.0130
   24MOL   H10424990   1.284   4.587   3.155 -0.7537  0.0905  1.7336
   24MOL   H10524991   1.272   4.358   3.058  0.0894  0.4809 -2.1871
   24MOL   H10624992   0.841   4.150   2.870  1.2809  1.0844  1.3851
   24MOL   H10724993   0.801   4.111   2.620  0.1383 -0.4280  1.6946
   24MOL   H10824994   0.741   4.264   2.336 -1.0451  0.8596  2.3938
   24MOL   H10924995   0.497   4.200   2.300  0.5897  0.2630 -0.8487
   24MOL   C11024996   1.170   4.634   3.822 -0.1859 -0.1914  1.1440
   24MOL   C11124997   1.172   4.503   3.871 -1.0510  0.1609 -0.1144
   24MOL   C11224998   1.059   4.462   3.949  0.1019  0.0847  0.6414
   24MOL   C11324999   0.952   4.553   3.982  0.5727 -0.4984  0.5083
   24MOL   S11425000   0.822   4.498   4.089 -0.1303  0.3729  0.0989
   24MOL   O11525001   0.854   4.365   4.152  0.1710  0.3134  0.0252
   24MOL   O11625002   0.688   4.513   4.018  0.2130  0.1248  0.5031
   24MOL   C11725003   0.826   4.629   4.220 -1.0805  0.1725  0.0789
   24MOL   C11825004   0.725   4.718   4.220 -0.4952 -0.5987  0.2599
   24MOL   C11925005   0.724   4.828   4.305 -0.2306 -0.3223 -0.5913
   24MOL   C12025006   0.827   4.840   4.403  0.3051  0.7360  0.3661
   24MOL   O12125007   0.826   4.956   4.480 -0.0997 -0.2831  0.2479
   24MOL   C12225008   0.857   5.074   4.417  0.4271  0.4490 -0.5591
   24MOL   C12325009   0.787   5.190   4.455  0.1447  0.5145  0.3324
   24MOL   C12425010   0.828   5.316   4.404  0.3566 -0.4498  0.1440
   24MOL   C12525011   0.934   5.326   4.314 -0.1773 -0.5642 -0.5943
   24MOL   C12625012   0.983   5.466   4.270  0.1525 -0.1755  0.1136
   24MOL   C12725013   0.950   5.477   4.121  0.4062 -0.1304  0.2741
   24MOL   C12825014   0.913   5.584   4.344  0.3678  0.2634  0.1987
   24MOL   C12925015   1.138   5.477   4.289  0.2018 -0.1447 -1.0210
   24MOL   C13025016   1.218   5.549   4.200  0.1934 -0.1016 -0.1986
   24MOL   C13125017   1.354   5.554   4.223  0.2546 -0.4414  0.4250
   24MOL   C13225018   1.413   5.495   4.335  0.1546  0.5913  0.6504
   24MOL   O13325019   1.555   5.489   4.341  0.9216  0.1471  0.1591
   24MOL   C13425020   1.332   5.429   4.432 -0.2024 -0.3766  0.5121
   24MOL   C13525021   1.195   5.431   4.409  0.1599 -0.7811  0.1352
   24MOL   C13625022   1.003   5.209   4.276  0.0516  0.8058 -0.2881
   24MOL   C13725023   0.969   5.083   4.334 -0.6307 -0.0818  0.6968
   24MOL   C13825024   0.934   4.742   4.407  0.6121  0.2093 -0.0839
   24MOL   C13925025   0.932   4.638   4.310  0.3269  0.5838 -0.0689
   24MOL   C14025026   0.957   4.686   3.932  0.4996  0.1124  0.0958
   24MOL   C14125027   1.069   4.727   3.859 -0.5814 -0.3326  0.1561
   24MOL   H14225028   1.246   4.431   3.838 -1.4645  0.9016 -2.7126
   24MOL   H14325029   1.038   4.359   3.972 -0.9601 -0.4468 -2.4383
   24MOL   H14425030   0.649   4.703   4.145  1.6415 -1.3773 -1.7967
   24MOL   H14525031   0.641   4.893   4.284  0.6870  1.0739  0.0052
   24MOL   H14625032   0.695   5.194   4.510 -0.5478 -1.0930 -0.6787
   24MOL   H14725033   0.764   5.401   4.422  0.0166 -0.5940 -0.3808
   24MOL   H14825034   0.980   5.572   4.077  2.0367 -0.5431  0.4768
   24MOL   H14925035   0.842   5.474   4.103  0.6360 -2.1982 -1.0875
   24MOL   H15025036   0.990   5.398   4.057 -0.2171 -0.1733 -0.0731
   24MOL   H15125037   0.964   5.679   4.329 -0.1039  0.1928 -2.1023
   24MOL   H15225038   0.807   5.592   4.322  0.5182  0.0154 -0.6644
   24MOL   H15325039   0.921   5.570   4.452  1.3946 -0.8924 -0.0109
   24MOL   H15425040   1.176   5.601   4.115 -1.4923 -1.8509 -0.4888
   24MOL   H15525041   1.414   5.608   4.151 -1.7102 -1.2631 -1.8983
   24MOL   H15625042   1.374   5.382   4.520  0.9148 -1.2623 -0.4715
   24MOL   H15725043   1.122   5.389   4.475  1.2766 -1.0820  1.1990
   24MOL   H15825044   1.096   5.215   4.221  1.6262 -4.3851  1.5138
   24MOL   H15925045   1.023   4.993   4.308 -1.0534 -0.1557  0.0686
   24MOL   H16025046   1.016   4.754   4.477 -0.0415  0.0607  0.7102
   24MOL   H16125047   1.002   4.556   4.318 -1.3788 -1.1128 -1.6722
   24MOL   H16225048   0.886   4.763   3.957  0.7861  0.9444 -1.5546
   24MOL   H16325049   1.066   4.829   3.822 -0.0919  0.2386  1.6846
   24MOL   C16425050   1.618   5.399   4.265  0.4578 -0.3100 -0.4415
   24MOL   C16525051   1.698   5.440   4.154 -0.4949  0.0784  0.3427
   24MOL   C16625052   1.776   5.350   4.082 -0.3683 -0.2313  0.2035
   24MOL   C16725053   1.781   5.216   4.128  0.5248  0.0520  0.0468
   24MOL   S16825054   1.885   5.091   4.046  0.0607 -0.3512  0.2581
   24MOL   O16925055   1.864   4.961   4.109 -0.6892 -0.2894  0.0324
   24MOL   O17025056   2.023   5.141   4.041  0.3385 -0.5099 -0.5870
   24MOL   C17125057   1.834   5.093   3.872  0.5082  0.0505  0.6880
   24MOL   C17225058   1.898   5.181   3.783  0.6083 -0.0586  0.0133
   24MOL   C17325059   1.848   5.200   3.651  0.0254 -0.3190  0.2553
   24MOL   C17425060   1.732   5.127   3.612  0.5643 -0.3958  0.0566
   24MOL   O17525061   1.683   5.159   3.489 -0.3681 -0.1679 -0.3116
   24MOL   C17625062   1.678   5.048   3.406  0.7016  0.0942  0.0286
   24MOL   C17725063   1.557   4.989   3.361 -0.3422 -0.1682  0.2057
   24MOL   C17825064   1.554   4.874   3.283  0.1725  0.0908  0.2512
   24MOL   C17925065   1.675   4.812   3.245  0.1194  0.2059 -0.2083
   24MOL   C18025066   1.672   4.688   3.160  1.0490  0.4194 -0.0470
   24MOL   C18125067   1.807   4.625   3.125  0.2833  0.1701 -0.9112
   24MOL   C18225068   1.613   4.572   3.247  0.1498  0.5626 -0.1084
   24MOL   C18325069   1.587   4.713   3.035  0.3241  0.1087  0.2946
   24MOL   C18425070   1.506   4.615   2.980  0.4076 -0.4904  0.3697
   24MOL   C18525071   1.440   4.624   2.852  0.0912  0.4870 -0.4342
   24MOL   C18625072   1.449   4.745   2.787 -0.3800  0.5055 -0.2209
   24MOL   O18725073   1.387   4.778   2.671  0.0694  0.5414 -0.0529
   24MOL   C18825074   1.533   4.846   2.838  0.5520 -0.9719 -0.1487
   24MOL   C18925075   1.607   4.833   2.960 -1.0716  0.4889  0.6264
   24MOL   C19025076   1.798   4.869   3.280 -0.1624 -0.0060  0.9282
   24MOL   C19125077   1.795   4.982   3.371  0.2084  0.0353 -0.0397
   24MOL   C19225078   1.661   5.048   3.706  0.5867  0.7022  0.3409
   24MOL   C19325079   1.712   5.024   3.841 -0.1464 -0.8630  0.1834
   24MOL   C19425080   1.712   5.178   4.250 -0.6833 -0.5304 -0.0988
   24MOL   C19525081   1.621   5.266   4.312  0.3819  0.3505 -0.2758
   24MOL   H19625082   1.702   5.542   4.119 -1.3462  0.3682  1.0792
   24MOL   H19725083   1.833   5.380   3.996  0.8405 -2.7915  0.0448
   24MOL   H19825084   1.984   5.241   3.808 -0.5421  1.5294  0.2864
   24MOL   H19925085   1.904   5.259   3.581  0.9147 -1.6967 -0.2305
   24MOL   H20025086   1.464   5.034   3.391 -0.8569 -1.0114 -0.1157
   24MOL   H20125087   1.466   4.818   3.255 -0.0889  0.0770  1.0774
   24MOL   H20225088   1.812   4.527   3.077 -0.8163 -0.8603  1.0209
   24MOL   H20325089   1.866   4.599   3.212 -1.6721 -1.2643  0.0370
   24MOL   H20425090   1.863   4.693   3.061 -1.0964  1.3089 -0.9393
   24MOL   H20525091   1.668   4.557   3.339 -0.5940 -1.1031  0.0817
   24MOL   H20625092   1.509   4.586   3.277 -0.8690 -1.8199 -2.2731
   24MOL   H20725093   1.612   4.474   3.198  0.7250 -0.7003  2.3167
   24MOL   H20825094   1.488   4.521   3.030 -0.2376 -0.9415 -0.6934
   24MOL   H20925095   1.377   4.543   2.818  0.3891  0.4020 -0.7888
   24MOL   H21025096   1.530   4.939   2.783  1.1618  0.1473  1.6941
   24MOL   H21125097   1.681   4.903   2.995  0.0148 -0.8480  1.0208
   24MOL   H21225098   1.893   4.820   3.265 -1.9928 -3.4926  0.1769
   24MOL   H21325099   1.893   5.023   3.394  0.2400 -0.4476  0.7069
   24MOL   H21425100   1.568   5.012   3.664  0.9742  1.4195 -1.1685
   24MOL   H21525101   1.662   4.963   3.914  0.1983 -1.4224 -0.0456
   24MOL   H21625102   1.722   5.077   4.286 -0.9214  0.0957  1.8223
   24MOL   H21725103   1.578   5.224   4.402 -1.4448 -0.5495 -1.5335
   24MOL   C21825104   1.271   4.853   2.673 -0.8585  0.0794 -0.3385
   24MOL   C21925105   1.162   4.802   2.736 -0.7373  0.7473  0.1326
   24MOL   C22025106   1.035   4.876   2.738 -0.2509  0.6726 -0.5057
   24MOL   C22125107   1.036   5.004   2.682 -0.2695 -0.1199  0.2073
   24MOL   S22225108   0.888   5.103   2.692  0.2564 -0.0322 -0.0598
   24MOL   O22325109   0.867   5.134   2.834  0.2594 -0.2540 -0.0593
   24MOL   O22425110   0.788   5.046   2.597 -0.3526  0.4357 -0.2199
   24MOL   C22525111   0.925   5.267   2.620 -0.2920  1.3272  0.3884
   24MOL   C22625112   0.947   5.377   2.706 -0.0225 -0.6293  0.1071
   24MOL   C22725113   0.952   5.503   2.655  0.1326 -0.6738 -1.0609
   24MOL   C22825114   0.964   5.532   2.522  0.2175 -0.9789  0.1866
   24MOL   O22925115   0.971   5.660   2.494 -0.6186 -0.0500  0.6294
   24MOL   C23025116   1.077   5.711   2.417 -0.3809 -0.2761  0.1212
   24MOL   C23125117   1.200   5.740   2.484 -0.3987 -0.0609  0.4523
   24MOL   C23225118   1.313   5.783   2.409  0.1596 -0.1561  0.0380
   24MOL   C23325119   1.302   5.806   2.266  0.9719 -0.2323 -0.0679
   24MOL   C23425120   1.422   5.872   2.196 -0.6059  0.0829 -0.0259
   24MOL   C23525121   1.365   5.953   2.077 -0.0724 -0.2393 -0.0913
   24MOL   C23625122   1.492   5.972   2.283  0.6620 -0.1579  0.2858
   24MOL   C23725123   1.532   5.773   2.147 -0.1565  0.0803  0.1245
   24MOL   C23825124   1.627   5.818   2.057 -0.1140  0.3951 -0.7565
   24MOL   C23925125   1.725   5.726   2.019  0.2197  0.3528 -0.5101
   24MOL   C24025126   1.738   5.594   2.062  0.6333  0.8003 -0.0179
   24MOL   O24125127   1.838   5.510   2.015 -0.2134  0.3854  0.1811
   24MOL   C24225128   1.637   5.550   2.156 -0.6013  0.1944 -0.3616
   24MOL   C24325129   1.536   5.639   2.194  0.0883 -0.0795  0.5780
   24MOL   C24425130   1.177   5.761   2.204  0.6648  0.0389 -0.6344
   24MOL   C24525131   1.062   5.732   2.281 -0.6445  0.2348 -0.0439
   24MOL   C24625132   0.949   5.424   2.429 -1.4562  0.3679  0.8201
   24MOL   C24725133   0.933   5.296   2.481  0.2659  0.1458 -0.0750
   24MOL   C24825134   1.149   5.046   2.611  0.3830 -0.7137 -0.1775
   24MOL   C24925135   1.267   4.979   2.612 -0.1378  0.0045 -0.9791
   24MOL   H25025136   1.178   4.706   2.784  1.6695  0.8691 -0.3945
   24MOL   H25125137   0.948   4.835   2.788 -0.2837 -1.1727 -2.0113
   24MOL   H25225138   0.945   5.375   2.814  0.4449 -1.5410  0.1104
   24MOL   H25325139   0.967   5.580   2.730  0.1158 -0.6183 -1.1153
   24MOL   H25425140   1.200   5.725   2.591  2.9782  0.0504  0.5061
   24MOL   H25525141   1.404   5.808   2.462 -0.2644  0.4522  0.4920
   24MOL   H25625142   1.282   6.017   2.108 -1.0753 -2.7767  2.5866
   24MOL   H25725143   1.328   5.887   1.999  0.7667 -0.9459  0.0973
   24MOL   H25825144   1.435   6.024   2.031 -1.1501 -0.2976 -1.8830
   24MOL   H25925145   1.437   6.057   2.323  1.6448  0.4964  0.2647
   24MOL   H26025146   1.541   5.922   2.366  0.4258 -1.6412 -0.4318
   24MOL   H26125147   1.579   6.016   2.235  2.6605 -2.2176  1.9303
   24MOL   H26225148   1.628   5.917   2.014 -0.3934  1.4129  1.4644
   24MOL   H26325149   1.797   5.755   1.944 -0.1438  1.3865 -0.4651
   24MOL   H26425150   1.630   5.447   2.190  3.1186 -1.3377 -3.7875
   24MOL   H26525151   1.451   5.619   2.257 -0.7776 -2.5564 -1.2720
   24MOL   H26625152   1.169   5.758   2.097 -1.1693 -0.9079 -0.4864
   24MOL   H26725153   0.966   5.713   2.235 -1.6807 -0.6497  2.4301
   24MOL   H26825154   0.946   5.448   2.323  1.4896  0.6760  0.7762
   24MOL   H26925155   0.913   5.219   2.408  1.3747 -0.0056 -0.2353
   24MOL   H27025156   1.158   5.141   2.561 -0.3857 -0.3140  0.4321
   24MOL   H27125157   1.359   5.023   2.576 -0.2312 -0.5522 -1.9162
   24MOL   C27225158   1.965   5.564   2.001 -0.9570 -0.5037 -0.5461
   24MOL   C27325159   2.016   5.587   1.871  0.9919 -0.4276  0.2846
   24MOL   C27425160   2.149   5.634   1.856 -0.0384 -0.0114 -0.1707
   24MOL   C27525161   2.232   5.660   1.970 -0.8511 -0.5397  0.1713
   24MOL   S27625162   2.386   5.754   1.957  0.0765  0.4034  0.2317
   24MOL   O27725163   2.442   5.710   1.827  0.2517  0.4331 -0.6849
   24MOL   O27825164   2.461   5.744   2.081  0.3547  0.1988  0.0617
   24MOL   C27925165   2.339   5.929   1.942  0.0216  0.7204 -0.2956
   24MOL   C28025166   2.321   6.010   2.051 -0.5024 -0.3432 -0.3026
   24MOL   C28125167   2.273   6.143   2.041 -0.3722  0.1431 -0.2740
   24MOL   C28225168   2.246   6.193   1.909  0.0115 -0.6122  0.6879
   24MOL   O28325169   2.181   6.314   1.894  0.2510  0.1294  0.1276
   24MOL   C28425170   2.077   6.333   1.981 -0.2935  0.0408 -0.1864
   24MOL   C28525171   2.076   6.454   2.049 -0.4054 -0.4734 -0.0597
   24MOL   C28625172   1.971   6.486   2.133  0.1793 -0.7606 -0.2026
   24MOL   C28725173   1.865   6.397   2.156 -0.6877 -0.3534 -0.6847
   24MOL   C28825174   1.747   6.453   2.246 -0.6231 -0.9446  0.3769
   24MOL   C28925175   1.695   6.582   2.170  0.1403 -0.5783 -0.5513
   24MOL   C29025176   1.637   6.339   2.262  0.0905  0.4938  0.0319
   24MOL   C29125177   1.790   6.480   2.395 -0.0618  0.0906  0.8722
   24MOL   C29225178   1.891   6.405   2.452  0.2195 -0.4282  0.2388
   24MOL   C29325179   1.943   6.434   2.576 -0.3400  0.8084  0.2945
   24MOL   C29425180   1.894   6.538   2.655 -0.4461  0.0836  0.5126
   24MOL   O29525181   1.943   6.557   2.781  0.4426 -0.1196 -0.0028
   24MOL   C29625182   1.795   6.618   2.601 -0.0328  0.0737  0.4084
   24MOL   C29725183   1.750   6.592   2.470 -0.1353 -0.6230  0.6615
   24MOL   C29825184   1.864   6.281   2.084 -0.3179 -0.1151  0.1929
   24MOL   C29925185   1.975   6.239   2.005 -0.2867 -0.2204  0.5323
   24MOL   C30025186   2.262   6.112   1.796 -0.6309  0.1778 -1.2931
   24MOL   C30125187   2.311   5.983   1.815  0.3693  0.2575 -0.3059
   24MOL   C30225188   2.177   5.633   2.098  0.2552 -0.2542 -0.7038
   24MOL   C30325189   2.046   5.587   2.114 -0.3407  0.8927  0.3830
   24MOL   H30425190   1.956   5.558   1.787  0.6708 -1.5298  0.8791
   24MOL   H30525191   2.174   5.660   1.754  3.2650 -1.1471  0.2974
   24MOL   H30625192   2.351   5.964   2.145  2.7171  2.0351 -0.0894
   24MOL   H30725193   2.255   6.203   2.130 -2.9127 -0.8301 -0.0923
   24MOL   H30825194   2.157   6.526   2.039 -0.1336 -0.3704  2.4850
   24MOL   H30925195   1.979   6.580   2.186  0.7886 -1.8305  1.6335
   24MOL   H31025196   1.761   6.668   2.181  1.3140 -1.0843 -3.1522
   24MOL   H31125197   1.599   6.610   2.214  0.7299 -0.4634  0.6969
   24MOL   H31225198   1.677   6.557   2.066  0.6205  0.5051 -0.8991
   24MOL   H31325199   1.697   6.250   2.283  0.9951  0.9301 -0.6757
   24MOL   H31425200   1.568   6.361   2.343  1.7507  0.6828  1.4229
   24MOL   H31525201   1.589   6.318   2.167 -0.2843  1.0436  0.1014
   24MOL   H31625202   1.931   6.321   2.397  0.5664 -0.9262  1.2193
   24MOL   H31725203   2.025   6.381   2.622 -0.6730 -0.3502 -0.4365
   24MOL   H31825204   1.759   6.707   2.650 -0.4348  0.5329 -0.6876
   24MOL   H31925205   1.677   6.659   2.426  0.8591 -0.8541 -1.3794
   24MOL   H32025206   1.784   6.211   2.105 -1.1437  1.1669  1.4371
   24MOL   H32125207   1.978   6.146   1.951 -1.1314 -0.2252  0.4874
   24MOL   H32225208   2.245   6.138   1.692 -0.0950 -0.5198 -1.5628
   24MOL   H32325209   2.314   5.915   1.731  1.4285  1.0240 -0.8975
   24MOL   H32425210   2.239   5.669   2.179  1.4562 -0.2871 -1.5915
   24MOL   H32525211   1.995   5.571   2.208 -0.0840 -0.3454  0.3204
   24MOL   C32625212   2.062   6.623   2.797  0.3413 -0.3350  0.1849
   24MOL   C32725213   2.181   6.556   2.814 -0.0122 -0.2521 -0.2777
   24MOL   C32825214   2.301   6.632   2.837  0.0963  0.4940  0.2358
   24MOL   C32925215   2.291   6.776   2.838  0.4954 -0.1357  0.0993
   24MOL   S33025216   2.442   6.882   2.882  0.1511  0.6632  0.1834
   24MOL   O33125217   2.416   7.015   2.825  0.0003 -0.3415  0.3297
   24MOL   O33225218   2.565   6.810   2.843 -0.3034 -0.6325  0.0844
   24MOL   C33325219   2.440   6.881   3.055 -0.3653  0.0571 -0.5031
   24MOL   C33425220   2.493   6.772   3.129 -0.2522 -0.2678  0.2433
   24MOL   C33525221   2.499   6.782   3.268 -0.4189  0.0263  0.0455
   24MOL   C33625222   2.436   6.884   3.341  0.0961 -0.2811  0.4677
   24MOL   O33725223   2.421   6.893   3.478  0.1009 -0.1508 -0.3899
   24MOL   C33825224   2.517   6.822   3.546 -0.6440 -0.2935 -0.3421
   24MOL   C33925225   2.648   6.879   3.573  0.0782 -0.3614  0.8375
   24MOL   C34025226   2.751   6.796   3.619 -1.2830 -0.2052 -0.3362
   24MOL   C34125227   2.727   6.665   3.674 -0.3821  0.1948 -0.2585
   24MOL   C34225228   2.830   6.592   3.762 -0.2642 -0.9064 -0.5659
   24MOL   C34325229   2.969   6.639   3.732  0.0065  0.2236  0.2839
   24MOL   C34425230   2.800   6.625   3.904 -0.0451 -0.6107 -0.2507
   24MOL   C34525231   2.820   6.440   3.737 -0.0570 -0.0422  0.0889
   24MOL   C34625232   2.800   6.393   3.602  0.9373 -0.1022  0.1236
   24MOL   C34725233   2.772   6.251   3.596  0.1366 -0.1973 -0.0636
   24MOL   C34825234   2.781   6.161   3.703 -0.5441  0.9970  0.4775
   24MOL   O34925235   2.780   6.031   3.671 -0.3472  0.6479  0.6412
   24MOL   C35025236   2.809   6.210   3.832 -0.0365 -0.2145 -0.3341
   24MOL   C35125237   2.833   6.348   3.850 -0.1705  0.0653  0.0151
   24MOL   C35225238   2.594   6.616   3.660 -0.3069 -0.4164  0.5728
   24MOL   C35325239   2.494   6.691   3.594 -0.2091 -0.4463  0.3094
   24MOL   C35425240   2.373   6.983   3.268  1.4198 -0.2468  0.2621
   24MOL   C35525241   2.377   6.985   3.125 -0.7236 -0.2549  0.1072
   24MOL   C35625242   2.165   6.834   2.830 -0.1804  0.0427 -0.2661
   24MOL   C35725243   2.052   6.760   2.805 -0.1421 -0.2489 -0.1539
   24MOL   H35825244   2.196   6.449   2.809 -2.5437 -0.6272 -0.6908
   24MOL   H35925245   2.397   6.583   2.838 -0.9237 -1.5172  0.1629
   24MOL   H36025246   2.530   6.684   3.078  1.3503 -0.6286  1.9425
   24MOL   H36125247   2.547   6.700   3.320  0.7740  0.0769 -0.9546
   24MOL   H36225248   2.665   6.984   3.550 -1.2358  0.3306  2.9097
   24MOL   H36325249   2.852   6.832   3.607 -1.0132 -0.5810  0.7805
   24MOL   H36425250   2.997   6.633   3.626 -1.9194 -1.3297 -0.1544
   24MOL   H36525251   3.042   6.574   3.781  0.8764  0.9228 -0.0575
   24MOL   H36625252   2.997   6.738   3.770 -0.4410  0.2177  0.6296
   24MOL   H36725253   2.879   6.603   3.976 -0.7921 -1.2016  0.3986
   24MOL   H36825254   2.790   6.733   3.915  2.7188 -0.2013 -1.2610
   24MOL   H36925255   2.712   6.572   3.939  0.3687  0.2353  2.1696
   24MOL   H37025256   2.797   6.446   3.509  0.8216  0.8678  0.6717
   24MOL   H37125257   2.740   6.223   3.497  2.0925  2.0229 -1.3987
   24MOL   H37225258   2.824   6.150   3.920  1.8949 -0.6170 -0.9191
   24MOL   H37325259   2.845   6.381   3.952  2.1056  0.5888 -0.3778
   24MOL   H37425260   2.573   6.517   3.698 -0.4419 -0.6145  0.0012
   24MOL   H37525261   2.397   6.646   3.582  0.0706 -0.4770 -2.1740
   24MOL   H37625262   2.341   7.076   3.314 -0.0732 -0.7862  0.3397
   24MOL   H37725263   2.343   7.076   3.078 -0.6654 -0.3755 -0.1700
   24MOL   H37825264   2.157   6.941   2.848 -2.7292 -0.0358 -0.7057
   24MOL   H37925265   1.960   6.817   2.800 -0.7887 -1.2759 -0.0166
   24MOL   C38025266   2.674   5.978   3.599 -0.2847 -0.0146  0.1220
   24MOL   C38125267   2.544   6.042   3.596  0.2556  0.7926  0.2461
   24MOL   C38225268   2.431   5.983   3.533  0.2114 -0.9468  0.1779
   24MOL   C38325269   2.444   5.861   3.477  0.7771  0.2760 -0.3232
   24MOL   S38425270   2.291   5.768   3.431  0.3610  0.1186 -0.0741
   24MOL   O38525271   2.179   5.842   3.483  0.0472  0.1625  0.2040
   24MOL   O38625272   2.304   5.626   3.470 -0.3520  0.0746  0.1277
   24MOL   C38725273   2.284   5.761   3.248 -0.6571 -0.2907  0.7343
   24MOL   C38825274   2.370   5.842   3.169  0.3768 -0.3960 -0.0073
   24MOL   C38925275   2.362   5.842   3.029 -0.2012  0.5048  0.2101
   24MOL   C39025276   2.255   5.767   2.971  0.2414 -0.1120 -0.0645
   24MOL   O39125277   2.226   5.763   2.835 -0.2792 -0.1045  0.7148
   24MOL   C39225278   2.294   5.670   2.761  0.3025  0.2802  0.5658
   24MOL   C39325279   2.383   5.725   2.669 -0.0704  0.9714  0.6388
   24MOL   C39425280   2.446   5.639   2.573 -0.8848 -0.2317  0.0799
   24MOL   C39525281   2.416   5.503   2.571 -0.2961 -0.2855 -0.2970
   24MOL   C39625282   2.473   5.410   2.469 -0.1864  0.9256  0.3645
   24MOL   C39725283   2.562   5.483   2.355  0.0561  0.6974  0.0774
   24MOL   C39825284   2.586   5.331   2.551  0.5182  0.4450 -0.2471
   24MOL   C39925285   2.366   5.317   2.412 -0.5043 -0.2094 -0.0537
   24MOL   C40025286   2.281   5.375   2.311  0.5600  0.4220  0.8739
   24MOL   C40125287   2.172   5.299   2.253  0.5978 -0.0693 -0.4657
   24MOL   C40225288   2.164   5.162   2.284  0.1494  0.8413 -0.1785
   24MOL   O40325289   2.063   5.076   2.235 -0.3006 -0.2328 -0.2809
   24MOL   C40425290   2.250   5.109   2.385  0.3868  0.7839 -0.5500
   24MOL   C40525291   2.347   5.185   2.452 -0.0215  0.3522  0.0660
   24MOL   C40625292   2.327   5.443   2.664  0.1042  0.1795  0.1414
   24MOL   C40725293   2.264   5.533   2.755 -0.0823 -0.6229  0.1718
   24MOL   C40825294   2.166   5.688   3.050 -0.6291  0.5567  0.3254
   24MOL   C40925295   2.180   5.689   3.191  0.6651  0.6763 -0.2009
   24MOL   C41025296   2.564   5.787   3.490  0.1768  0.5859 -0.3953
   24MOL   C41125297   2.680   5.846   3.544  0.4027 -0.4749  0.6329
   24MOL   H41225298   2.525   6.139   3.639  0.0277  1.1283 -0.5973
   24MOL   H41325299   2.339   6.039   3.536  0.6290 -0.1802 -1.0134
   24MOL   H41425300   2.436   5.906   3.225 -0.1480 -0.6074  0.8563
   24MOL   H41525301   2.425   5.906   2.969 -2.1731  1.8652 -0.4711
   24MOL   H41625302   2.401   5.831   2.680 -2.3378  1.2063  2.5092
   24MOL   H41725303   2.516   5.681   2.502 -0.7379 -0.1401  0.2785
   24MOL   H41825304   2.656   5.530   2.382 -0.0451  0.2350  1.3169
   24MOL   H41925305   2.498   5.560   2.313 -0.4778  1.2824  1.8818
   24MOL   H42025306   2.591   5.412   2.278  1.7296  1.0723  0.3569
   24MOL   H42125307   2.663   5.406   2.569  3.1293 -2.1207 -0.3602
   24MOL   H42225308   2.546   5.289   2.644 -0.1298  2.5171  0.4216
   24MOL   H42325309   2.634   5.252   2.493 -0.4018 -1.3487  1.3735
   24MOL   H42425310   2.296   5.475   2.272 -0.0676  0.4473  0.6863
   24MOL   H42525311   2.110   5.343   2.177  0.5136 -0.4251 -0.6044
   24MOL   H42625312   2.230   5.006   2.408  2.5333 -0.0413 -2.2428
   24MOL   H42725313   2.393   5.139   2.538  0.9912  1.0872 -0.0680
   24MOL   H42825314   2.300   5.339   2.671  0.4542  0.1441  1.0944
   24MOL   H42925315   2.185   5.495   2.818  0.6280  1.0413  2.1125
   24MOL   H43025316   2.075   5.651   3.005  1.1597  0.6798 -3.5610
   24MOL   H43125317   2.108   5.650   3.261  0.9502  0.6122  0.0584
   24MOL   H43225318   2.574   5.682   3.466 -1.7652  0.2959 -0.0317
   24MOL   H43325319   2.769   5.786   3.546  1.3924  0.9794  0.5980
   24MOL   C43425320   1.977   5.114   2.135 -1.5183 -0.1127 -0.5498
   24MOL   C43525321   1.987   5.061   2.006  0.6447  0.1031 -0.3772
   24MOL   C43625322   1.881   5.065   1.911 -0.0998  0.3740 -0.2245
   24MOL   C43725323   1.762   5.129   1.948 -0.7530 -0.1769 -0.0141
   24MOL   S43825324   1.629   5.119   1.843  0.0210 -0.1183  0.0149
   24MOL   O43925325   1.512   5.079   1.923 -0.5678 -0.2010 -0.6148
   24MOL   O44025326   1.664   5.045   1.719 -0.4979  0.6411  0.0673
   24MOL   C44125327   1.623   5.291   1.800 -0.0345  0.5784 -0.3939
   24MOL   C44225328   1.526   5.365   1.858  0.3750 -0.2285  0.3696
   24MOL   C44325329   1.521   5.504   1.840 -0.1597 -0.1951 -0.0731
   24MOL   C44425330   1.603   5.570   1.744 -0.5141  0.5830  0.2692
   24MOL   O44525331   1.577   5.702   1.721 -0.3821  0.5279  0.1595
   24MOL   C44625332   1.578   5.752   1.595  0.2839  0.3542 -0.1601
   24MOL   C44725333   1.470   5.738   1.516  0.1496  0.7353  0.6019
   24MOL   C44825334   1.477   5.792   1.384 -0.1881  0.1019 -0.2946
   24MOL   C44925335   1.577   5.876   1.342 -0.1177  0.7247 -0.2204
   24MOL   C45025336   1.575   5.947   1.200  0.3581  0.5131 -0.0798
   24MOL   C45125337   1.675   6.066   1.193  0.4559  0.7050  0.0936
   24MOL   C45225338   1.613   5.843   1.091 -0.3792  0.1954 -0.1026
   24MOL   C45325339   1.443   6.010   1.169 -0.4440  1.3096 -0.5371
   24MOL   C45425340   1.364   6.055   1.281 -0.8737  0.3993 -0.0346
   24MOL   C45525341   1.244   6.129   1.250 -0.1773 -0.4577 -0.5046
   24MOL   C45625342   1.205   6.144   1.121 -0.7367 -0.2154 -0.4802
   24MOL   O45725343   1.080   6.191   1.093 -0.3818  0.3495 -0.0365
   24MOL   C45825344   1.286   6.106   1.012  0.2251 -0.3448 -0.0638
   24MOL   C45925345   1.400   6.035   1.037 -0.0333  0.6964  0.1207
   24MOL   C46025346   1.685   5.894   1.428  0.4784  0.1349  0.3981
   24MOL   C46125347   1.685   5.829   1.555  0.0194  0.1081 -0.1196
   24MOL   C46225348   1.694   5.488   1.676 -0.1669  0.1414  0.1074
   24MOL   C46325349   1.711   5.351   1.705 -0.0661  0.2779 -0.4119
   24MOL   C46425350   1.757   5.192   2.069 -0.4648 -0.1222  0.1569
   24MOL   C46525351   1.861   5.185   2.158  1.0192  0.1820  0.0359
   24MOL   H46625352   2.079   5.009   1.983  0.3718 -0.5066 -0.0739
   24MOL   H46725353   1.876   5.000   1.824 -1.5539  0.3073 -0.1108
   24MOL   H46825354   1.454   5.328   1.930 -0.7077  0.4421 -0.3607
   24MOL   H46925355   1.445   5.568   1.882 -0.5924 -1.7542  1.6033
   24MOL   H47025356   1.380   5.683   1.543 -0.0018  0.0745 -1.2348
   24MOL   H47125357   1.392   5.766   1.322 -0.1470  2.3408 -1.3619
   24MOL   H47225358   1.776   6.026   1.207  0.3154 -0.5525 -2.2794
   24MOL   H47325359   1.660   6.130   1.280 -0.6715  0.7569 -0.1350
   24MOL   H47425360   1.663   6.116   1.097  1.8984  1.2512  0.1862
   24MOL   H47525361   1.713   5.812   1.122  0.1659  0.5897 -1.4274
   24MOL   H47625362   1.538   5.768   1.065 -0.2026  0.0361 -0.1534
   24MOL   H47725363   1.625   5.896   0.996 -1.0140 -0.1421 -0.3741
   24MOL   H47825364   1.397   6.058   1.384  1.1153  1.7536 -0.6823
   24MOL   H47925365   1.169   6.155   1.323  1.7731 -1.4437  1.8789
   24MOL   H48025366   1.247   6.106   0.911 -0.0914 -0.9219  0.0601
   24MOL   H48125367   1.453   6.015   0.945 -0.2742 -2.1324  0.5490
   24MOL   H48225368   1.758   5.972   1.412 -1.2648  2.0207  1.4067
   24MOL   H48325369   1.777   5.826   1.611 -0.0593  0.0670  0.0072
   24MOL   H48425370   1.754   5.528   1.595  1.6943 -0.0475  1.3645
   24MOL   H48525371   1.780   5.292   1.647  1.0451  1.7139 -0.5819
   24MOL   H48625372   1.661   5.233   2.098  1.2471  2.3040  2.6742
   24MOL   H48725373   1.843   5.227   2.256 -1.6979 -0.9204  0.0710
   24MOL   C48825374   0.980   6.106   1.075 -0.0697  0.4077 -0.0940
   24MOL   C48925375   0.871   6.156   1.006  0.5242  0.6561  0.4244
   24MOL   C49025376   0.760   6.075   0.987 -0.5805  0.2529  0.1730
   24MOL   C49125377   0.755   5.948   1.042  0.4227 -0.3769 -0.0635
   24MOL   S49225378   0.611   5.852   1.017  0.1913  0.0483  0.7048
   24MOL   O49325379   0.490   5.935   1.047 -0.1506  0.1596  0.3700
   24MOL   O49425380   0.635   5.726   1.091 -0.5905 -0.6189 -0.1342
   24MOL   C49525381   0.598   5.828   0.840  0.1471 -0.3895 -0.1375
   24MOL   C49625382   0.699   5.751   0.783 -0.1318 -0.9272 -0.1449
   24MOL   C49725383   0.726   5.768   0.647 -0.3534  1.0282 -0.4578
   24MOL   C49825384   0.639   5.846   0.567  0.4622  0.0160 -0.5227
   24MOL   O49925385   0.657   5.850   0.429  0.1778  0.2983 -0.1002
   24MOL   C50025386   0.560   5.796   0.348 -0.5931 -0.3107 -0.0033
   24MOL   C50125387   0.496   5.673   0.389  0.3104  0.6158  0.5153
   24MOL   C50225388   0.406   5.607   0.306  0.0184  0.2645  0.0359
   24MOL   C50325389   0.356   5.683   0.199  0.3061 -0.0128 -0.0979
   24MOL   C50425390   0.247   5.617   0.106 -0.2464  0.6687 -0.6841
   24MOL   C50525391   0.223   5.709   8.232  0.7051  0.4373  0.0281
   24MOL   C50625392   0.301   5.485   0.054 -0.0658 -0.5601  0.6939
   24MOL   C50725393   0.119   5.588   0.183  0.1822  0.2449  0.6264
   24MOL   C50825394   0.045   5.465   0.190 -0.1754  0.2171  0.4537
   24MOL   C50925395   8.173   5.460   0.247 -0.5177 -0.2558  0.4432
   24MOL   C51025396   8.120   5.573   0.313 -0.2914  0.0724  0.5450
   24MOL   O51125397   7.999   5.568   0.366 -0.6571 -0.3178  0.0534
   24MOL   C51225398   8.191   5.694   0.312 -0.1937 -0.3199 -0.0373
   24MOL   C51325399   0.065   5.698   0.255 -0.2752 -0.0968 -0.0996
   24MOL   C51425400   0.420   5.807   0.167 -0.0537 -0.2317 -1.1078
   24MOL   C51525401   0.533   5.859   0.227  0.3460 -0.0446  0.0969
   24MOL   C51625402   0.538   5.918   0.624 -0.6606 -0.0588 -0.9837
   24MOL   C51725403   0.514   5.911   0.761 -0.0867 -0.1496  0.2270
   24MOL   C51825404   0.860   5.897   1.119 -0.3445 -0.5786  0.3153
   24MOL   C51925405   0.971   5.978   1.137  0.2627 -0.0793  0.0625
   24MOL   H52025406   0.874   6.253   0.960 -2.0219 -0.4607 -2.2763
   24MOL   H52125407   0.673   6.112   0.935 -0.9303 -0.8029 -0.0183
   24MOL   H52225408   0.761   5.680   0.835 -0.3275 -0.2780  0.9854
   24MOL   H52325409   0.817   5.730   0.601 -0.3364 -1.1428  1.2832
   24MOL   H52425410   0.527   5.630   0.483  1.4896  0.0732 -0.1025
   24MOL   H52525411   0.353   5.516   0.330 -0.1766  0.3641 -0.0092
   24MOL   H52625412   0.178   5.806   0.003 -0.9690 -0.5089  0.7914
   24MOL   H52725413   0.157   5.661   8.159  2.9894 -2.0948 -0.4157
   24MOL   H52825414   0.322   5.727   8.190  0.7733  0.4730  0.2033
   24MOL   H52925415   0.406   5.494   0.025 -0.2359  0.6860  0.4635
   24MOL   H53025416   0.296   5.413   0.135 -0.9784 -2.0621 -0.6636
   24MOL   H53125417   0.244   5.444   8.224 -3.6375  4.1318  0.6648
   24MOL   H53225418   0.071   5.369   0.148 -2.2063  0.1322 -0.6242
   24MOL   H53325419   8.117   5.368   0.256  0.8996 -0.9866  2.2255
   24MOL   H53425420   8.143   5.780   0.358  1.3688 -0.0738  1.1784
   24MOL   H53525421   0.103   5.799   0.260 -1.8310  0.6448 -2.3366
   24MOL   H53625422   0.381   5.868   0.086  0.9804 -2.2776 -3.2052
   24MOL   H53725423   0.576   5.955   0.202 -0.1630  0.2368  0.2787
   24MOL   H53825424   0.472   5.976   0.560 -4.7935 -0.6083  2.5455
   24MOL   H53925425   0.431   5.958   0.811 -1.0772 -0.7117 -0.8611
   24MOL   H54025426   0.854   5.803   1.171 -1.4816  0.1251  1.4737
   24MOL   H54125427   1.048   5.936   1.200  0.1527 -0.8873 -0.3364
   24MOL   C54225428   7.988   5.590   0.505 -0.0254  0.3718 -0.2298
   24MOL   C54325429   8.003   5.490   0.595 -0.2321 -0.1643  0.5305
   24MOL   C54425430   7.981   5.519   0.732 -0.1420 -0.1397 -0.6771
   24MOL   C54525431   7.945   5.647   0.776  0.7779 -0.3294 -0.4163
   24MOL   S54625432   7.908   5.669   0.952 -0.2037  0.2049  0.5401
   24MOL   O54725433   7.893   5.818   0.968  0.5297 -0.2189 -0.1421
   24MOL   O54825434   8.002   5.593   1.031  0.8971  0.5094 -0.4000
   24MOL   C54925435   7.751   5.592   0.971  0.1668  0.6116  0.2270
   24MOL   C55025436   7.716   5.512   1.083  0.0706 -0.4181  0.2979
   24MOL   C55125437   7.585   5.457   1.093 -0.3941 -0.3881  0.3391
   24MOL   C55225438   7.490   5.482   0.993  0.5431 -0.4261 -0.8905
   24MOL   O55325439   7.368   5.423   1.002 -0.3513 -0.0136 -0.3832
   24MOL   C55425440   7.343   5.335   0.899 -0.6444  0.3032 -0.3039
   24MOL   C55525441   7.406   5.207   0.890  0.0400 -0.0672 -0.0539
   24MOL   C55625442   7.369   5.121   0.787  0.0635  0.1182 -0.6079
   24MOL   C55725443   7.267   5.150   0.692 -0.2283 -0.7451  0.2081
   24MOL   C55825444   7.217   5.052   0.584 -0.0113 -0.8744  0.0648
   24MOL   C55925445   7.084   5.098   0.527 -0.0610  0.0558  0.3852
   24MOL   C56025446   7.325   5.052   0.474 -0.3072  0.0545 -0.2224
   24MOL   C56125447   7.201   4.906   0.646 -0.2956  0.7146  0.3837
   24MOL   C56225448   7.201   4.792   0.563 -0.5629 -0.4937  0.9462
   24MOL   C56325449   7.168   4.662   0.607  0.2775 -0.1576  0.2070
   24MOL   C56425450   7.118   4.646   0.740 -0.5034 -0.2010  0.3772
   24MOL   O56525451   7.061   4.535   0.799 -0.3021  0.4353 -0.3946
   24MOL   C56625452   7.124   4.758   0.826 -0.2383  0.1508 -0.4553
   24MOL   C56725453   7.162   4.887   0.777 -0.0589  0.3189 -0.5893
   24MOL   C56825454   7.220   5.284   0.693 -0.2620 -0.0681 -0.2762
   24MOL   C56925455   7.246   5.373   0.798  0.4936 -0.2957  0.7860
   24MOL   C57025456   7.519   5.557   0.883 -0.4816 -0.7819  0.1790
   24MOL   C57125457   7.653   5.610   0.872 -0.1466  0.4561 -0.2026
   24MOL   C57225458   7.925   5.747   0.675 -0.5206 -0.2682 -0.3639
   24MOL   C57325459   7.948   5.718   0.544  0.2038  0.4216 -0.0556
   24MOL   H57425460   8.038   5.396   0.555  0.2390  1.6222 -3.4429
   24MOL   H57525461   7.980   5.445   0.810  2.7088  2.1308  1.6594
   24MOL   H57625462   7.785   5.490   1.164  0.1250 -1.2458  0.0370
   24MOL   H57725463   7.562   5.400   1.182  1.3529 -0.0986  0.9915
   24MOL   H57825464   7.479   5.185   0.967 -1.2473  1.3836  1.6346
   24MOL   H57925465   7.419   5.025   0.782 -1.2186 -0.5986  0.2116
   24MOL   H58025466   7.079   5.198   0.482 -2.8630  0.4016  1.3573
   24MOL   H58125467   7.005   5.103   0.602 -1.7352  0.9570 -1.3877
   24MOL   H58225468   7.058   5.028   0.447  3.4731  0.5627 -1.3325
   24MOL   H58325469   7.423   5.011   0.497  0.1501  0.5076 -1.3386
   24MOL   H58425470   7.283   5.000   0.388  1.4241  0.2119 -1.1777
   24MOL   H58525471   7.348   5.151   0.435  0.3306  0.7524  1.8576
   24MOL   H58625472   7.211   4.806   0.456  0.6551 -1.2795  0.9517
   24MOL   H58725473   7.162   4.574   0.545  1.4484 -0.4866  0.5467
   24MOL   H58825474   7.086   4.761   0.928  2.5691 -0.1003  0.6492
   24MOL   H58925475   7.161   4.972   0.843 -0.2630 -0.5371  0.5443
   24MOL   H59025476   7.146   5.325   0.626 -1.7696 -1.3840  0.5218
   24MOL   H59125477   7.196   5.469   0.790  0.2277 -0.6396 -2.4338
   24MOL   H59225478   7.448   5.578   0.805 -2.0372  1.3869  2.1215
   24MOL   H59325479   7.680   5.671   0.787 -2.2866  1.9757  0.1805
   24MOL   H59425480   7.890   5.847   0.694 -0.8961 -0.4342 -0.1823
   24MOL   H59525481   7.934   5.790   0.465  1.6578 -1.7888 -2.4193
   24MOL   C59625482   6.966   4.478   0.716  0.0178  0.0631  0.2435
   24MOL   C59725483   7.001   4.343   0.684 -0.5818 -0.2204  0.5771
   24MOL   C59825484   6.921   4.269   0.602 -0.2469  0.5414  0.5552
   24MOL   C59925485   6.794   4.318   0.566 -1.2306  0.3832  0.1488
   24MOL   S60025486   6.680   4.217   0.476 -0.0034  0.4390 -0.0503
   24MOL   O60125487   6.548   4.278   0.486  0.2823 -0.2782 -0.6691
   24MOL   O60225488   6.701   4.075   0.503  0.3271  0.4300 -0.0521
   24MOL   C60325489   6.733   4.243   0.307  0.3499  0.0431  0.1075
   24MOL   C60425490   6.641   4.290   0.212  0.6467 -0.0666 -0.2603
   24MOL   C60525491   6.677   4.306   0.075 -0.4038 -0.3227  0.3858
   24MOL   C60625492   6.806   4.265   0.032 -0.0762 -0.0967  0.5923
   24MOL   O60725493   6.842   4.263   8.147 -0.5188  0.1502 -0.5572
   24MOL   C60825494   6.902   4.374   8.092  0.1575  0.0596  0.2685
   24MOL   C60925495   6.914   4.383   7.953 -0.3327  0.2224 -0.8596
   24MOL   C61025496   6.979   4.491   7.896  1.3240 -0.5636 -0.0930
   24MOL   C61125497   7.018   4.603   7.971  0.5515 -0.5692 -0.9829
   24MOL   C61225498   7.085   4.725   7.907  0.2208 -0.3060 -0.5142
   24MOL   C61325499   7.152   4.834   8.005  0.5958  0.1560 -0.1934
   24MOL   C61425500   7.200   4.669   7.815 -0.6266 -0.1220  0.4444
   24MOL   C61525501   6.968   4.803   7.829  0.2515 -0.3595 -0.0839
   24MOL   C61625502   6.971   4.829   7.690  0.5065 -0.3875  0.0428
   24MOL   C61725503   6.866   4.888   7.618 -0.2823  0.5950 -0.0005
   24MOL   C61825504   6.755   4.927   7.694 -0.3371  0.8888 -0.2552
   24MOL   O61925505   6.659   5.002   7.635 -0.2202  0.3054 -0.0906
   24MOL   C62025506   6.750   4.909   7.830 -0.1838  0.7476  0.0711
   24MOL   C62125507   6.856   4.849   7.900 -1.3736 -1.0706 -0.5011
   24MOL   C62225508   6.999   4.599   8.111  0.0696 -0.5744 -0.0259
   24MOL   C62325509   6.947   4.484   8.167 -0.1469  0.5568  0.7379
   24MOL   C62425510   6.897   4.215   0.121  0.1730 -0.1216  0.0937
   24MOL   C62525511   6.862   4.209   0.258 -0.2171 -0.0324 -0.8541
   24MOL   C62625512   6.751   4.447   0.601  0.7420  0.8260  0.0809
   24MOL   C62725513   6.837   4.525   0.683  0.0971  0.1380 -0.1596
   24MOL   H62825514   7.090   4.300   0.727 -1.0692 -0.5768  1.2323
   24MOL   H62925515   6.944   4.164   0.588  1.1120  0.7429  1.2634
   24MOL   H63025516   6.549   4.332   0.249  0.0712 -0.8059 -0.8503
   24MOL   H63125517   6.612   4.348   8.253 -0.2999 -0.1494  0.3943
   24MOL   H63225518   6.875   4.305   7.889 -0.9113 -0.4341  0.2886
   24MOL   H63325519   6.985   4.499   7.788 -0.0791  1.0001 -0.0724
   24MOL   H63425520   7.205   4.910   7.948  1.4850 -0.7624 -0.6009
   24MOL   H63525521   7.223   4.790   8.075 -0.8657  0.1864  1.3246
   24MOL   H63625522   7.082   4.886   8.070 -1.6267 -0.0180 -2.3531
   24MOL   H63725523   7.244   4.744   7.750  0.2957 -0.6659  0.4303
   24MOL   H63825524   7.285   4.640   7.876  0.2675  0.0903 -0.6882
   24MOL   H63925525   7.166   4.583   7.756 -0.1009  1.6040 -2.4564
   24MOL   H64025526   7.056   4.791   7.635 -0.5928 -1.3366 -1.0283
   24MOL   H64125527   6.872   4.889   7.510  0.4027 -3.7668 -0.1143
   24MOL   H64225528   6.677   4.954   7.896 -0.1120 -0.4693  1.0037
   24MOL   H64325529   6.844   4.832   8.006  0.0893  0.1767 -0.1090
   24MOL   H64425530   7.032   4.680   8.174 -0.6943 -1.0293  0.9636
   24MOL   H64525531   6.957   4.476   0.021  0.4833  2.4125  0.8360
   24MOL   H64625532   6.985   4.176   0.072  0.4692  0.3461  0.2480
   24MOL   H64725533   6.940   4.175   0.324  0.2679  1.7462 -0.4713
   24MOL   H64825534   6.653   4.485   0.580  0.8247  1.6611  1.1194
   24MOL   H64925535   6.794   4.620   0.712  1.5263  0.3307  1.3838
   24MOL   C65025536   6.700   5.113   7.564 -0.5538  0.1607 -0.0714
   24MOL   C65125537   6.746   5.229   7.635  0.4815  0.4263  0.0075
   24MOL   C65225538   6.791   5.347   7.561  0.2319  0.2602  0.0084
   24MOL   C65325539   6.787   5.345   7.423  0.1470 -0.2820  0.7248
   24MOL   S65425540   6.837   5.499   7.333  0.7343 -0.0861  0.1197
   24MOL   O65525541   6.732   5.522   7.232 -0.5029  0.1508 -0.6412
   24MOL   O65625542   6.974   5.468   7.284  0.3434  0.2433 -0.0071
   24MOL   C65725543   6.844   5.627   7.463 -0.2800  0.1041  0.0013
   24MOL   C65825544   6.963   5.705   7.478 -0.7346  0.1980  0.1617
   24MOL   C65925545   6.959   5.821   7.560 -0.8739  0.5025 -0.0942
   24MOL   C66025546   6.843   5.842   7.632 -0.1498  0.2146  0.1072
   24MOL   O66125547   6.836   5.947   7.712  0.6295  0.1822 -0.1143
   24MOL   C66225548   6.791   6.067   7.672 -0.0467  1.0093  1.0223
   24MOL   C66325549   6.695   6.080   7.564 -0.8534  0.2656 -0.8238
   24MOL   C66425550   6.657   6.207   7.518  0.4419 -0.2340 -0.5540
   24MOL   C66525551   6.693   6.324   7.584  0.5575  0.7070 -0.1706
   24MOL   C66625552   6.633   6.456   7.559  0.6451  0.2701 -0.7463
   24MOL   C66725553   6.493   6.444   7.492 -0.3819 -0.2088  0.0482
   24MOL   C66825554   6.606   6.527   7.693  0.1735 -0.0256  0.1156
   24MOL   C66925555   6.726   6.549   7.479 -0.2831  0.1965 -0.2620
   24MOL   C67025556   6.851   6.505   7.439 -0.1515  0.6071 -0.2048
   24MOL   C67125557   6.929   6.588   7.360 -0.6318 -0.4409  0.0848
   24MOL   C67225558   6.887   6.719   7.335  0.0306  0.5967 -0.1435
   24MOL   O67325559   6.971   6.801   7.267 -0.6015 -0.8323 -0.2441
   24MOL   C67425560   6.754   6.758   7.361 -0.6662 -0.2681 -0.5892
   24MOL   C67525561   6.672   6.673   7.430  0.1611  1.0645 -0.2939
   24MOL   C67625562   6.783   6.309   7.696  0.3959 -0.1229  0.0132
   24MOL   C67725563   6.840   6.185   7.734  0.2548 -0.4044  0.9860
   24MOL   C67825564   6.732   5.759   7.617  0.5732 -0.5547 -0.1856
   24MOL   C67925565   6.720   5.654   7.527 -0.5581 -0.2708 -0.0074
   24MOL   C68025566   6.734   5.233   7.356 -0.4176 -0.2381 -0.6742
   24MOL   C68125567   6.692   5.121   7.423  0.3786  0.5171  0.0944
   24MOL   H68225568   6.750   5.227   7.743 -1.6825  1.9786  0.1361
   24MOL   H68325569   6.836   5.431   7.611 -2.1171  1.2897  0.4366
   24MOL   H68425570   7.049   5.672   7.422 -0.2046  1.7377  0.0497
   24MOL   H68525571   7.043   5.885   7.577  1.6048 -1.7408 -3.4291
   24MOL   H68625572   6.658   6.001   7.500 -2.9414  1.4878 -1.1812
   24MOL   H68725573   6.590   6.210   7.434  0.2425  1.6420 -0.3470
   24MOL   H68825574   6.505   6.416   7.387 -0.1307 -1.3168  0.3641
   24MOL   H68925575   6.444   6.541   7.496  0.0252 -0.0109  0.1981
   24MOL   H69025576   6.428   6.370   7.540 -0.3623 -0.7265 -0.7137
   24MOL   H69125577   6.542   6.615   7.684  0.4447  0.6178  3.7372
   24MOL   H69225578   6.543   6.469   7.761  1.0621 -1.6268 -0.4068
   24MOL   H69325579   6.697   6.566   7.738  0.9382 -1.4829 -0.1632
   24MOL   H69425580   6.885   6.406   7.467 -0.7915  0.7401  1.0580
   24MOL   H69525581   7.029   6.574   7.322 -1.2761  0.9738 -2.2275
   24MOL   H69625582   6.721   6.856   7.330  0.4986  1.0072  2.0512
   24MOL   H69725583   6.573   6.704   7.461  0.5730  1.2383  0.8855
   24MOL   H69825584   6.823   6.398   7.742  1.0696  0.9978 -2.7030
   24MOL   H69925585   6.909   6.177   7.816  0.9829  1.0968  0.5233
   24MOL   H70025586   6.649   5.775   7.683  1.0160  1.0329  0.0124
   24MOL   H70125587   6.634   5.591   7.511 -0.5287 -0.1798 -0.5514
   24MOL   H70225588   6.723   5.238   7.248  0.2273  0.7139 -0.7025
   24MOL   H70325589   6.659   5.041   7.357  1.7290 -1.4156  1.6891
   24MOL   C70425590   6.945   6.844   7.138  0.2271 -0.4202 -0.1355
   24MOL   C70525591   6.977   6.978   7.112  0.6619 -0.0012  0.4534
   24MOL   C70625592   6.959   7.027   6.984  0.6193  0.8497 -0.1536
   24MOL   C70725593   6.918   6.938   6.881 -0.5715  0.4160 -0.7157
   24MOL   S70825594   6.896   6.994   6.709 -0.0201 -0.2307  0.2171
   24MOL   O70925595   6.912   7.140   6.719  0.6336 -0.4590 -0.3601
   24MOL   O71025596   6.774   6.931   6.662 -0.0445  0.2755 -0.1144
   24MOL   C71125597   7.030   6.927   6.617  0.6086  0.3786 -0.4346
   24MOL   C71225598   7.147   6.890   6.689  0.5711  0.0395  0.4897
   24MOL   C71325599   7.252   6.829   6.630 -0.0612  1.2375  0.3678
   24MOL   C71425600   7.254   6.808   6.487  0.0706  0.4163  0.1381
   24MOL   O71525601   7.360   6.757   6.414  0.5208 -0.1055 -0.6563
   24MOL   C71625602   7.486   6.731   6.468  0.6837 -0.5019  0.2818
   24MOL   C71725603   7.564   6.829   6.529  0.2236  0.3408 -0.2126
   24MOL   C71825604   7.690   6.803   6.579  0.3991 -0.0705  0.3445
   24MOL   C71925605   7.736   6.666   6.581 -0.7006  0.0250  0.8875
   24MOL   C72025606   7.860   6.618   6.658 -0.5717 -0.3831 -0.4714
   24MOL   C72125607   7.876   6.709   6.781  0.3264 -0.5790 -0.5125
   24MOL   C72225608   7.842   6.473   6.712 -0.4594 -0.5175  0.4538
   24MOL   C72325609   7.986   6.633   6.567 -0.2856  0.3634  0.4683
   24MOL   C72425610   8.065   6.514   6.538  0.2958  0.5856 -0.3257
   24MOL   C72525611   8.182   6.523   6.458 -0.2984 -0.8333 -0.6989
   24MOL   C72625612   8.211   6.652   6.395 -0.1774 -0.1013  0.3204
   24MOL   O72725613   0.068   6.677   6.320  0.6175 -0.5929 -0.1244
   24MOL   C72825614   8.130   6.761   6.416 -0.0872  0.0416  0.3596
   24MOL   C72925615   8.020   6.755   6.501  0.0195  0.2383  0.4856
   24MOL   C73025616   7.660   6.569   6.511 -0.1297 -0.1202 -0.0400
   24MOL   C73125617   7.538   6.608   6.455 -0.3558  0.2024 -0.1796
   24MOL   C73225618   7.136   6.841   6.414 -0.4628  0.7417 -0.4584
   24MOL   C73325619   7.021   6.899   6.476 -0.6915  0.0278  0.2671
   24MOL   C73425620   6.885   6.801   6.905  0.3487 -0.0514 -0.4315
   24MOL   C73525621   6.902   6.754   7.032  0.0918 -0.7270 -0.6295
   24MOL   H73625622   7.004   7.047   7.190 -0.5720 -0.3378  1.1808
   24MOL   H73725623   6.978   7.132   6.971  1.9861  0.5424 -0.6571
   24MOL   H73825624   7.143   6.895   6.797  0.4325  0.1165  0.4806
   24MOL   H73925625   7.340   6.798   6.686 -0.9162 -0.3711  0.8370
   24MOL   H74025626   7.522   6.928   6.540  1.6417  0.8457  0.8478
   24MOL   H74125627   7.740   6.884   6.628  1.2603 -0.1273 -0.4334
   24MOL   H74225628   7.784   6.717   6.839  0.6815  0.2429 -0.0568
   24MOL   H74325629   7.904   6.809   6.748  0.5299 -0.7430 -0.8385
   24MOL   H74425630   7.954   6.658   6.837  0.0477  0.9296  1.3000
   24MOL   H74525631   7.933   6.435   6.760 -1.4844 -2.2866  1.0367
   24MOL   H74625632   7.762   6.452   6.783 -0.1502  1.7663  1.5221
   24MOL   H74725633   7.829   6.404   6.628  2.6023 -0.0598 -0.4630
   24MOL   H74825634   8.050   6.419   6.587  0.1406  0.8521  0.1467
   24MOL   H74925635   8.253   6.444   6.441  0.5935  0.0022 -0.9460
   24MOL   H75025636   8.136   6.857   6.365 -5.1520  0.4235  0.2598
   24MOL   H75125637   7.960   6.844   6.497 -1.0704 -0.5348 -0.5089
   24MOL   H75225638   7.698   6.471   6.487  1.0929  0.6640 -1.3455
   24MOL   H75325639   7.474   6.541   6.399  0.5397 -3.3238  2.8229
   24MOL   H75425640   7.135   6.822   6.308  2.5358 -0.0583 -0.3934
   24MOL   H75525641   6.927   6.914   6.425 -0.3895  0.7102 -0.0894
   24MOL   H75625642   6.873   6.738   6.819 -0.2418  1.0764 -1.1909
   24MOL   H75725643   6.897   6.648   7.053  1.6891 -0.2669  2.3134
   24MOL   C75825644   0.192   6.622   6.346 -0.6328  0.4234  0.4871
   24MOL   C75925645   0.261   6.534   6.265 -0.4011  0.8497  0.3589
   24MOL   C76025646   0.383   6.472   6.296  0.6070 -0.0029  0.6115
   24MOL   C76125647   0.447   6.513   6.418 -0.2005 -0.1978  0.0937
   24MOL   S76225648   0.600   6.433   6.460 -0.0498  0.0577  0.2604
   24MOL   O76325649   0.658   6.369   6.338  0.2315 -0.4230  0.1897
   24MOL   O76425650   0.578   6.352   6.582 -0.3452  0.3003  0.5222
   24MOL   C76525651   0.724   6.560   6.509 -0.4389  0.2821  0.4311
   24MOL   C76625652   0.699   6.699   6.507 -0.1998 -0.0206  0.6379
   24MOL   C76725653   0.796   6.789   6.550  0.1451  0.0787  0.1315
   24MOL   C76825654   0.926   6.744   6.580 -0.1520  0.9424  0.3323
   24MOL   O76925655   1.028   6.836   6.617  0.4703  0.4685  0.1330
   24MOL   C77025656   1.008   6.972   6.611  0.4468  0.0419  0.2629
   24MOL   C77125657   1.015   7.047   6.490  0.9676  0.3617 -0.2848
   24MOL   C77225658   1.019   7.184   6.491 -0.4727  0.5908 -0.1540
   24MOL   C77325659   0.989   7.259   6.604  0.4541 -0.4226 -0.3562
   24MOL   C77425660   0.988   7.411   6.597  0.2605  0.3014 -0.0486
   24MOL   C77525661   1.128   7.455   6.625 -0.1413 -0.0654  0.2052
   24MOL   C77625662   0.965   7.475   6.458 -0.4638 -0.3813  0.3180
   24MOL   C77725663   0.885   7.467   6.692  0.0588 -0.6645  0.2946
   24MOL   C77825664   0.921   7.547   6.803 -0.5303  0.2756 -0.4345
   24MOL   C77925665   0.821   7.621   6.873 -0.0038  0.4088 -0.6033
   24MOL   C78025666   0.683   7.593   6.852  0.4706 -0.2192 -0.6884
   24MOL   O78125667   0.585   7.658   6.922 -0.0611  0.0345 -0.4568
   24MOL   C78225668   0.646   7.498   6.760 -1.0341  0.4423 -0.1069
   24MOL   C78325669   0.743   7.439   6.680  0.2242 -0.4646 -0.3285
   24MOL   C78425670   0.983   7.188   6.722 -0.0656 -0.8484  1.0412
   24MOL   C78525671   0.992   7.047   6.728  0.0297 -0.1493 -0.0161
   24MOL   C78625672   0.952   6.607   6.590  0.1029  0.8764  0.7306
   24MOL   C78725673   0.853   6.513   6.556  0.9300  0.5162  0.0602
   24MOL   C78825674   0.374   6.594   6.510  0.8880  0.6534  0.7781
   24MOL   C78925675   0.253   6.653   6.473  0.0728  0.0112  0.1123
   24MOL   H79025676   0.214   6.500   6.173  0.7898 -1.7663  0.6636
   24MOL   H79125677   0.426   6.406   6.221  1.2295  1.5358 -0.4106
   24MOL   H79225678   0.610   6.741   6.461  0.0669 -1.2239 -1.0342
   24MOL   H79325679   0.776   6.895   6.542  1.8462  0.3048 -1.4270
   24MOL   H79425680   1.033   6.998   6.396  0.0853 -2.6333  1.0397
   24MOL   H79525681   1.046   7.220   6.393 -0.6573 -1.2665 -0.9148
   24MOL   H79625682   1.197   7.417   6.550  0.2707  1.9767 -0.5042
   24MOL   H79725683   1.162   7.421   6.722  0.0606  0.3344  0.2787
   24MOL   H79825684   1.146   7.563   6.633 -0.3389  0.0751 -1.0608
   24MOL   H79925685   0.861   7.455   6.433 -1.0613  0.4409  2.0774
   24MOL   H80025686   0.970   7.584   6.454 -0.1936 -0.3442  1.6472
   24MOL   H80125687   1.027   7.433   6.378 -2.7655 -2.7442 -0.3333
   24MOL   H80225688   1.023   7.564   6.833 -0.6520  0.3019 -0.0353
   24MOL   H80325689   0.854   7.696   6.942  1.2418 -0.0374 -0.7171
   24MOL   H80425690   0.541   7.477   6.755 -1.0475  0.5657 -0.3287
   24MOL   H80525691   0.722   7.375   6.596  1.9697 -1.1687 -0.2536
   24MOL   H80625692   0.967   7.250   6.809  0.6976  1.3087 -0.3217
   24MOL   H80725693   0.984   6.987   6.818  0.3255 -1.3588 -0.7895
   24MOL   H80825694   1.047   6.572   6.630 -0.6698  1.3649  3.1146
   24MOL   H80925695   0.872   6.407   6.557 -0.3593  0.2685 -0.0726
   24MOL   H81025696   0.416   6.622   6.606  1.0085  2.2844  0.2783
   24MOL   H81125697   0.199   6.716   6.542 -1.2859 -0.4408 -0.5292
   24MOL   C81225698   0.570   7.611   7.051 -1.0864  0.3978  0.2197
   24MOL   C81325699   0.509   7.484   7.082 -0.3845 -0.4244 -0.4383
   24MOL   C81425700   0.504   7.439   7.217  0.3399 -0.3680 -0.5559
   24MOL   C81525701   0.558   7.517   7.321 -0.4262  0.1794 -0.3815
   24MOL   S81625702   0.550   7.462   7.490  0.0853 -0.2807 -0.6283
   24MOL   O81725703   0.429   7.512   7.553  0.0425  0.6587  0.3448
   24MOL   O81825704   0.679   7.492   7.553  0.7041  0.0792  0.4769
   24MOL   C81925705   0.540   7.288   7.479  0.7147  0.6826 -0.7300
   24MOL   C82025706   0.416   7.221   7.509 -0.1780  0.1083  0.4849
   24MOL   C82125707   0.406   7.081   7.485  0.4856  0.0259 -0.4405
   24MOL   C82225708   0.517   7.009   7.434  0.5796  0.2163  0.4069
   24MOL   O82325709   0.500   6.883   7.381 -0.1702  0.0428 -0.3274
   24MOL   C82425710   0.473   6.782   7.475 -0.1471  0.3267  0.1901
   24MOL   C82525711   0.341   6.752   7.513 -0.1996  0.1670  0.4533
   24MOL   C82625712   0.321   6.663   7.622  0.4751  0.6765 -0.1217
   24MOL   C82725713   0.427   6.585   7.675  0.0746 -0.4980  0.5458
   24MOL   C82825714   0.396   6.477   7.783 -0.0545  0.9699  0.6743
   24MOL   C82925715   0.492   6.354   7.770 -0.6861 -0.0374  0.1277
   24MOL   C83025716   0.421   6.536   7.927 -0.1775  0.1913  0.4526
   24MOL   C83125717   0.250   6.422   7.766 -1.0455 -0.6619  0.3076
   24MOL   C83225718   0.154   6.426   7.869 -0.0433 -0.3163 -0.7109
   24MOL   C83325719   0.022   6.378   7.848 -0.3190 -0.1370 -0.1859
   24MOL   C83425720   8.233   6.337   7.720  0.0815 -0.2163  0.9511
   24MOL   O83525721   8.105   6.292   7.693 -0.0600  0.2216  0.2850
   24MOL   C83625722   0.075   6.333   7.618  0.6231  0.0966  0.2577
   24MOL   C83725723   0.204   6.380   7.640  0.8174  0.4693  0.3525
   24MOL   C83825724   0.554   6.611   7.636 -0.0509 -0.3442  0.9672
   24MOL   C83925725   0.581   6.708   7.537 -1.3629 -0.2115 -0.0282
   24MOL   C84025726   0.640   7.075   7.410 -0.4028 -0.2137  0.0265
   24MOL   C84125727   0.649   7.219   7.424  0.6456 -0.8805 -0.7327
   24MOL   C84225728   0.617   7.640   7.287 -0.1742  0.3609 -0.7982
   24MOL   C84325729   0.626   7.685   7.155 -0.0959 -0.4611  0.2935
   24MOL   H84425730   0.474   7.418   7.004 -0.4074 -0.8839 -0.0383
   24MOL   H84525731   0.467   7.340   7.240  1.0012 -0.6825 -0.8213
   24MOL   H84625732   0.337   7.291   7.533  1.3417  2.3562 -0.9208
   24MOL   H84725733   0.313   7.028   7.493  0.4856  0.2282  0.9587
   24MOL   H84825734   0.260   6.794   7.455  1.4082  1.3500 -1.0044
   24MOL   H84925735   0.220   6.653   7.657  0.7347  0.8888  0.7011
   24MOL   H85025736   0.516   6.326   7.668 -2.2129 -1.7337  0.2018
   24MOL   H85125737   0.443   6.273   7.826 -2.9031 -0.0506 -1.7461
   24MOL   H85225738   0.589   6.378   7.814 -1.5808  0.5020  1.8812
   24MOL   H85325739   0.357   6.622   7.946  0.2585  0.2465  1.6925
   24MOL   H85425740   0.396   6.462   8.003  0.7393  0.1133  0.6741
   24MOL   H85525741   0.520   6.576   7.948 -0.7177  1.1410  1.2157
   24MOL   H85625742   0.181   6.466   7.966 -0.2299 -0.1380 -0.7303
   24MOL   H85725743   8.205   6.381   7.930  0.0244  1.8731  0.0644
   24MOL   H85825744   0.054   6.278   7.528  0.8779 -0.9613  0.8414
   24MOL   H85925745   0.271   6.378   7.556 -1.6252 -0.2415 -1.6534
   24MOL   H86025746   0.635   6.564   7.688  0.8541  1.3704  1.1536
   24MOL   H86125747   0.687   6.718   7.517 -1.6415  2.5224 -0.3694
   24MOL   H86225748   0.722   7.019   7.368 -1.3704 -0.5910 -1.3906
   24MOL   H86325749   0.745   7.264   7.407  0.1703  0.3467 -0.3065
   24MOL   H86425750   0.651   7.704   7.368 -1.6081 -0.5932  0.5780
   24MOL   H86525751   0.672   7.780   7.130 -0.4914  0.3681  2.5982
   24MOL   C86625752   8.027   6.357   7.598 -0.1295  1.1603  0.1393
   24MOL   C86725753   8.072   6.467   7.524  0.0737  0.1703  0.0303
   24MOL   C86825754   7.998   6.516   7.415  1.2524  0.1977  0.6669
   24MOL   C86925755   7.874   6.465   7.378 -0.1714 -0.8896 -0.3860
   24MOL   S87025756   7.786   6.552   7.255 -0.0690  0.1716  0.2315
   24MOL   O87125757   7.659   6.482   7.225  0.0911 -0.4523  0.4325
   24MOL   O87225758   7.881   6.574   7.142 -0.0280 -0.1228  0.5536
   24MOL   C87325759   7.750   6.715   7.321  0.3028 -0.1381  0.4213
   24MOL   C87425760   7.693   6.800   7.228  0.3320 -0.5938  0.1774
   24MOL   C87525761   7.660   6.932   7.261 -0.7315  0.6092  0.7624
   24MOL   C87625762   7.685   6.979   7.394  0.2155  0.1770 -0.0048
   24MOL   O87725763   7.642   7.100   7.431  0.2018 -0.0877  0.9556
   24MOL   C87825764   7.508   7.110   7.453 -0.4252 -0.1090  0.5900
   24MOL   C87925765   7.416   7.154   7.359  0.3874  0.3070  0.4446
   24MOL   C88025766   7.278   7.165   7.400 -0.7722 -0.0562 -0.2433
   24MOL   C88125767   7.239   7.133   7.532 -0.2385  0.0497  0.8167
   24MOL   C88225768   7.097   7.156   7.579 -0.0836  0.2381  0.1911
   24MOL   C88325769   7.090   7.287   7.661 -0.0494  0.0552 -0.1038
   24MOL   C88425770   6.994   7.169   7.462  0.0725  0.1951  0.6122
   24MOL   C88525771   7.057   7.027   7.653  0.4182 -0.6356  0.3134
   24MOL   C88625772   7.057   6.903   7.588 -0.1117  0.7414 -0.3220
   24MOL   C88725773   7.000   6.786   7.652  0.1922 -0.4321  0.0349
   24MOL   C88825774   6.956   6.794   7.789 -0.4835 -0.0689  0.3101
   24MOL   O88925775   6.902   6.682   7.842 -0.1383  0.4375 -0.3060
   24MOL   C89025776   6.946   6.921   7.847  0.1393 -0.5345 -0.0123
   24MOL   C89125777   7.001   7.034   7.782  0.3997  0.6459 -0.6830
   24MOL   C89225778   7.339   7.097   7.628  0.3089 -0.2226 -0.7298
   24MOL   C89325779   7.470   7.086   7.587  0.3529  0.0551 -0.0409
   24MOL   C89425780   7.749   6.892   7.485  0.7523  0.2079  0.2478
   24MOL   C89525781   7.780   6.756   7.451  0.1349 -0.3664 -0.7614
   24MOL   C89625782   7.834   6.342   7.440 -0.1342 -0.0869 -0.1405
   24MOL   C89725783   7.907   6.291   7.551 -0.5892  0.4204  0.2340
   24MOL   H89825784   8.165   6.510   7.557  0.7944 -2.1927  1.1399
   24MOL   H89925785   8.031   6.606   7.366  0.5525  1.3203  2.2244
   24MOL   H90025786   7.681   6.773   7.124  0.6603  0.1051 -0.0456
   24MOL   H90125787   7.614   6.998   7.189 -0.3939  0.6423  0.5737
   24MOL   H90225788   7.430   7.181   7.256 -0.7501 -0.5728  0.0394
   24MOL   H90325789   7.204   7.198   7.329 -1.1182  0.0439  0.1643
   24MOL   H90425790   6.987   7.316   7.682  0.1848  1.2675 -0.5573
   24MOL   H90525791   7.142   7.364   7.603 -1.7005  1.3851  0.1449
   24MOL   H90625792   7.142   7.274   7.755 -0.3347 -0.0648  0.0355
   24MOL   H90725793   7.019   7.242   7.386 -0.8468  1.2673  1.3158
   24MOL   H90825794   6.970   7.075   7.413 -0.7742  0.9702 -0.4618
   24MOL   H90925795   6.903   7.211   7.505 -0.1256 -0.4256  0.8066
   24MOL   H91025796   7.092   6.903   7.486 -0.8886  1.3597 -0.5908
   24MOL   H91125797   6.991   6.688   7.609  0.3048 -0.5490  0.2785
   24MOL   H91225798   6.897   6.942   7.941  2.6497  0.6450  1.0905
   24MOL   H91325799   6.984   7.131   7.825 -3.0573 -0.7477  1.2741
   24MOL   H91425800   7.311   7.084   7.731 -1.8353 -0.7098 -1.3557
   24MOL   H91525801   7.548   7.074   7.661 -1.0632 -0.0344  1.4490
   24MOL   H91625802   7.752   6.925   7.588  0.0776  0.7805  0.0920
   24MOL   H91725803   7.814   6.690   7.529  1.3170  3.2936  1.9718
   24MOL   H91825804   7.740   6.301   7.408 -1.0278  0.4221  1.7646
   24MOL   H91925805   7.876   6.197   7.592 -1.5363 -0.2394 -1.9442
   24MOL   C92025806   6.986   6.590   7.894  0.7002 -0.2658 -0.2101
   24MOL   C92125807   6.928   6.485   7.970  0.1412 -0.2373 -0.0400
   24MOL   C92225808   7.010   6.394   8.039  0.4352 -0.6024 -0.3475
   24MOL   C92325809   7.147   6.406   8.034 -0.9982 -0.2460 -0.0778
   24MOL   S92425810   7.254   6.299   8.134  0.0990 -0.0436  0.3327
   24MOL   O92525811   7.337   6.220   8.041 -0.2209  0.4234 -0.2568
   24MOL   O92625812   7.178   6.237   8.244  0.0935  0.2465 -0.4305
   24MOL   C92725813   7.367   6.413   8.225  0.3326 -0.0419  0.5263
   24MOL   C92825814   7.313   6.499   0.067 -0.0079  0.4363 -0.0293
   24MOL   C92925815   7.395   6.576   0.149  0.2790 -0.4467  0.3897
   24MOL   C93025816   7.534   6.567   0.131  0.2482 -1.0756  0.5310
   24MOL   O93125817   7.616   6.635   0.218  0.1436 -0.4480  0.5025
   24MOL   C93225818   7.682   6.742   0.171 -0.1763  0.1187  0.2389
   24MOL   C93325819   7.809   6.726   0.118 -0.2605 -0.6878 -0.0112
   24MOL   C93425820   7.885   6.830   0.070  0.6745 -0.6535  1.1173
   24MOL   C93525821   7.830   6.961   0.066  0.1944  0.4054  0.7169
   24MOL   C93625822   7.916   7.078   0.013  0.3560 -0.4047  0.3417
   24MOL   C93725823   7.969   7.162   0.128 -0.1661 -0.7277 -0.4321
   24MOL   C93825824   8.041   7.030   8.188 -0.1237 -0.0320  0.3029
   24MOL   C93925825   7.832   7.157   8.167  0.0119 -0.4977 -0.0991
   24MOL   C94025826   7.769   7.083   8.059 -0.1917 -0.7010  0.3967
   24MOL   C94125827   7.687   7.161   7.971  0.1057 -0.2241 -0.4622
   24MOL   C94225828   7.666   7.298   7.983 -0.4461 -0.9171 -0.0020
   24MOL   O94325829   7.589   7.358   7.887 -0.1742  0.0628 -0.3094
   24MOL   C94425830   7.732   7.368   8.085  0.1715  0.3214 -0.0087
   24MOL   C94525831   7.817   7.300   8.174 -0.5459 -0.3891 -0.5302
   24MOL   C94625832   7.691   6.988   0.108  0.1040 -0.1481  0.6519
   24MOL   C94725833   7.631   6.874   0.166  0.0589  0.0672  0.3850
   24MOL   C94825834   7.592   6.483   0.030  0.6033 -0.3287 -0.2833
   24MOL   C94925835   7.504   6.412   8.195 -0.8366 -0.3336 -0.2095
   24MOL   C95025836   7.206   6.504   7.951 -0.6053 -0.8761 -0.5616
   24MOL   C95125837   7.129   6.598   7.887  0.4473  0.3843  0.5992
   24MOL   H95225838   6.820   6.486   7.981  0.3014  1.3141  1.7164
   24MOL   H95325839   6.970   6.309   8.091  0.1736  1.5804  3.1918
   24MOL   H95425840   7.207   6.491   0.082 -0.3548 -1.1625 -2.9790
   24MOL   H95525841   7.348   6.633   0.228  1.9682  1.9689 -0.2777
   24MOL   H95625842   7.848   6.625   0.115  0.6757 -0.4602  2.8481
   24MOL   H95725843   7.983   6.810   0.029  0.2756 -3.2219  1.3369
   24MOL   H95825844   8.024   7.253   0.106  2.1508 -1.5317  1.7419
   24MOL   H95925845   8.038   7.104   0.190 -0.6774 -0.5465  0.3144
   24MOL   H96025846   7.880   7.189   0.185 -1.1407 -0.2040 -2.1762
   24MOL   H96125847   8.079   7.117   8.134 -2.3966  0.1299 -1.0966
   24MOL   H96225848   8.127   7.000   8.249  0.4146 -0.1130 -0.4769
   24MOL   H96325849   8.007   6.958   8.113  0.1026  1.0814 -0.8927
   24MOL   H96425850   7.767   6.976   8.044 -0.3560 -0.7254  0.5942
   24MOL   H96525851   7.634   7.114   7.890 -0.6129 -1.3615  0.6617
   24MOL   H96625852   7.714   7.474   8.081 -0.7654  0.1513 -0.4270
   24MOL   H96725853   7.871   7.360   8.246 -0.2679 -2.0826  0.7064
   24MOL   H96825854   7.643   7.085   0.103 -0.8159 -0.6616 -0.9248
   24MOL   H96925855   7.533   6.896   0.205 -0.4352  0.0342 -0.8175
   24MOL   H97025856   7.699   6.483   0.016  0.8875  0.7316  1.7670
   24MOL   H97125857   7.547   6.347   8.121  0.5939  0.3622 -0.0026
   24MOL   H97225858   7.314   6.514   7.951 -0.4761 -2.1772 -0.2499
   24MOL   H97325859   7.187   6.674   7.837 -0.1828  1.3305  1.2616
   24MOL   C97425860   7.464   7.389   7.906  0.0178 -0.1363 -0.2496
   24MOL   C97525861   7.408   7.470   7.804 -0.2199 -0.5446  0.2140
   24MOL   C97625862   7.279   7.520   7.827  0.2616 -1.2899  0.1963
   24MOL   C97725863   7.198   7.483   7.938 -0.4693 -0.1564 -0.5003
   24MOL   S97825864   7.039   7.564   7.964  0.0417  0.1234 -0.1239
   24MOL   O97925865   7.064   7.638   8.089 -0.2864 -0.7187 -0.2128
   24MOL   O98025866   6.932   7.463   7.958  0.0943 -0.5169 -0.0375
   24MOL   C98125867   7.002   7.682   7.834  0.0375  0.6646  0.4037
   24MOL   C98225868   6.991   7.645   7.700  0.8427  0.0015 -0.0411
   24MOL   C98325869   6.945   7.741   7.604  0.6005  0.1877  0.1219
   24MOL   C98425870   6.918   7.876   7.639 -0.3329  0.5158  0.4577
   24MOL   O98525871   6.872   7.970   7.551 -0.1997 -0.0305 -0.0759
   24MOL   C98625872   6.935   7.994   7.433  0.6627 -0.5797  0.4730
   24MOL   C98725873   6.881   7.950   7.311  0.4485  0.7918 -0.2527
   24MOL   C98825874   6.952   7.966   7.193  0.8683  0.1189  0.7560
   24MOL   C98925875   7.074   8.034   7.185  0.2303 -0.4008  0.3886
   24MOL   C99025876   7.144   8.035   7.045  0.4537  0.4937  0.0077
   24MOL   C99125877   7.255   8.146   7.030  0.6345  0.1550 -0.0949
   24MOL   C99225878   7.217   7.896   7.022 -0.4169  0.9092 -0.1632
   24MOL   C99325879   7.044   8.071   6.932 -0.1653 -0.4752 -0.2637
   24MOL   C99425880   6.969   8.191   6.940  0.6917  0.2691  0.3196
   24MOL   C99525881   6.863   8.219   6.853 -0.0240  0.3296  0.1830
   24MOL   C99625882   6.834   8.128   6.746 -0.4223 -0.8343 -0.4195
   24MOL   O99725883   6.732   8.145   6.657 -0.1994 -0.1416 -0.1964
   24MOL   C99825884   6.921   8.019   6.730  0.5248 -0.4200  0.1574
   24MOL   C99925885   7.019   7.986   6.822 -0.8699  0.4245 -0.3066
   24MOL     C125886   7.124   8.080   7.306  0.0720  0.3192 -0.6400
   24MOL     C225887   7.062   8.054   7.427  0.2858  0.1485  0.4826
   24MOL     C325888   6.922   7.906   7.776  0.6711 -0.4632  0.8109
   24MOL     C425889   6.970   7.816   7.872  0.6508 -0.8852 -0.1295
   24MOL     C525890   7.251   7.387   8.028 -0.4211 -0.6474  0.0889
   24MOL     C625891   7.387   7.346   8.018  0.4177 -0.7939  0.2036
   24MOL     H725892   7.480   7.506   7.732 -0.5030 -1.5668 -0.5896
   24MOL     H825893   7.241   7.603   7.768  0.5137 -0.4434  1.1977
   24MOL     H925894   7.023   7.550   7.659  0.5925  0.0630 -0.3869
   24MOL    H1025895   6.928   7.701   7.505 -0.6907 -0.7400  0.7045
   24MOL    H1125896   6.784   7.901   7.311  1.1457 -0.6206 -0.2848
   24MOL    H1225897   6.907   7.916   7.109  2.9444 -1.5631  0.6062
   24MOL    H1325898   7.318   8.143   7.118 -1.0675  1.7501  1.2333
   24MOL    H1425899   7.207   8.243   7.020  0.1258 -0.2469 -1.7271
   24MOL    H1525900   7.315   8.127   6.941  0.2392 -0.2395 -0.2813
   24MOL    H1625901   7.149   7.812   7.028  0.1551  0.4461 -0.0806
   24MOL    H1725902   7.258   7.907   6.922 -0.7631  2.4171 -0.1638
   24MOL    H1825903   7.295   7.896   7.099 -2.4101  0.6633  1.9115
   24MOL    H1925904   6.982   0.016   7.013 -0.5381 -0.2962  1.1571
   24MOL    H2025905   6.809   0.058   6.872 -0.1671  0.7773 -2.2439
   24MOL    H2125906   6.904   7.937   6.661 -0.6650 -1.0274  1.1532
   24MOL    H2225907   7.074   7.896   6.801 -0.9653  0.2488  0.1982
   24MOL    H2325908   7.215   8.138   7.312 -0.6572  1.4926 -0.9468
   24MOL    H2425909   7.097   8.077   7.526  1.3396  2.6549 -0.4383
   24MOL    H2525910   6.881   8.002   7.804 -1.8341 -0.7935 -1.5066
   24MOL    H2625911   6.966   7.834   7.979 -1.5437 -0.0338 -0.3261
   24MOL    H2725912   7.209   7.355   8.122  0.6237  3.2512  2.0154
   24MOL    H2825913   7.426   7.285   8.098  1.2606 -1.0294 -0.3814
   24MOL    C2925914   6.634   8.234   6.677  0.1646 -0.2626  0.5882
   24MOL    C3025915   6.546   8.219   6.784  0.2629 -0.1260  0.4121
   24MOL    C3125916   6.442   0.061   6.797  0.1550 -0.0693 -0.8317
   24MOL    C3225917   6.426   0.163   6.702 -0.1317 -0.3588  0.7194
   24MOL    S3325918   6.291   0.287   6.708 -0.1422  0.2447  0.1075
   24MOL    O3425919   6.202   0.255   6.596  0.7850  0.4622 -0.0906
   24MOL    O3525920   6.358   0.417   6.705 -0.6520  0.2340  0.2094
   24MOL    C3625921   6.204   0.274   6.868 -0.7133 -0.1675  0.0313
   24MOL    C3725922   6.103   0.177   6.888  0.4624 -0.5964 -0.6127
   24MOL    C3825923   6.040   0.165   7.009  0.0888  0.3179 -0.7035
   24MOL    C3925924   6.068   0.253   7.117 -0.0907 -0.4594 -0.0456
   24MOL    O4025925   6.007   0.238   7.238 -0.4115 -0.5865 -0.3533
   24MOL    C4125926   5.873   0.236   7.258  0.5558  0.4968 -0.0312
   24MOL    C4225927   5.779   0.282   7.157 -0.0716  0.2082 -0.7044
   24MOL    C4325928   5.639   0.279   7.185 -0.3456  0.6337 -0.7013
   24MOL    C4425929   5.591   0.249   7.311  0.1120 -0.1346 -0.2718
   24MOL    C4525930   5.444   0.258   7.346  0.1751  0.1170 -0.2748
   24MOL    C4625931   5.409   0.391   7.409  0.5968  0.1158 -0.1310
   24MOL    C4725932   5.345   0.250   7.218 -0.1731 -0.1431  0.3838
   24MOL    C4825933   5.410   0.138   7.439  0.3882  0.8121  0.1404
   24MOL    C4925934   5.347   0.153   7.565  0.4111 -0.0705  0.0835
   24MOL    C5025935   5.290   0.043   7.627 -0.4792 -0.1351  0.2877
   24MOL    C5125936   5.297   8.171   7.565 -0.0399 -0.5723  0.0077
   24MOL    O5225937   5.253   8.055   7.634  0.1817 -0.0782  0.0735
   24MOL    C5325938   5.358   8.154   7.443  0.1459 -0.5614 -0.0847
   24MOL    C5425939   5.413   0.011   7.382 -0.4619  0.5161 -0.6126
   24MOL    C5525940   5.690   0.213   7.405 -0.1973 -0.5060 -0.6493
   24MOL    C5625941   5.826   0.200   7.384 -0.7703  0.7718 -0.5254
   24MOL    C5725942   6.166   0.351   7.096  0.4936 -0.4071  0.6044
   24MOL    C5825943   6.229   0.373   6.969 -0.3954  0.4541  0.2241
   24MOL    C5925944   6.515   0.175   6.593  0.7156  0.7554 -0.1643
   24MOL    C6025945   6.622   0.083   6.584 -0.1588 -0.3265 -0.0486
   24MOL    H6125946   6.553   8.128   6.841  0.0025 -1.6632 -1.9316
   24MOL    H6225947   6.382   0.048   6.886 -0.0185  0.5151 -0.8657
   24MOL    H6325948   6.082   0.105   6.809 -5.0810  0.1568 -0.0140
   24MOL    H6425949   5.970   0.083   7.010 -0.1953  0.4984 -2.7254
   24MOL    H6525950   5.823   0.311   7.062  0.8474 -0.9499 -0.6493
   24MOL    H6625951   5.574   0.299   7.101 -3.0488 -2.4407  0.5211
   24MOL    H6725952   5.416   0.465   7.328 -1.6374 -0.3472 -0.7816
   24MOL    H6825953   5.478   0.408   7.491  0.0723  0.5683  0.2191
   24MOL    H6925954   5.310   0.403   7.452 -0.1967 -0.6786 -1.6845
   24MOL    H7025955   5.241   0.227   7.244 -0.5999  0.3589 -0.8293
   24MOL    H7125956   5.361   0.336   7.153 -0.2249 -1.2952 -1.1958
   24MOL    H7225957   5.371   0.158   7.165  0.0985  0.6402 -0.8434
   24MOL    H7325958   5.360   0.249   7.613 -1.1152  0.2758 -0.1443
   24MOL    H7425959   5.256   0.057   7.728 -1.8027  2.5111 -0.4848
   24MOL    H7525960   5.349   8.056   7.399 -0.9469  0.0846 -1.3520
   24MOL    H7625961   5.468   8.249   7.290  0.0807  0.0153 -0.2070
   24MOL    H7725962   5.661   0.180   7.503  0.2236 -1.7846 -0.9433
   24MOL    H7825963   5.892   0.182   7.468  1.1445 -0.7947 -2.3117
   24MOL    H7925964   6.183   0.416   7.181 -2.3455  1.5991 -0.2713
   24MOL    H8025965   6.301   0.454   6.960  0.6278 -0.3392  1.1520
   24MOL    H8125966   6.495   0.251   6.519  1.5187  0.2431 -0.9202
   24MOL    H8225967   6.694   0.088   6.503 -1.3048  1.3779 -0.9902
   24MOL    H8325968   5.160   8.053   7.620  0.6313  2.3720 -4.1351
   25MOL     C125969   5.638   0.070   3.779 -1.0803 -1.1421  0.3856
   25MOL     C225970   5.711   0.183   3.834 -0.5436 -0.2549  0.9729
   25MOL     C325971   5.647   0.278   3.917 -1.0112 -0.0614 -0.7256
   25MOL     C425972   5.509   0.268   3.945 -0.2953 -0.3112 -0.4824
   25MOL     S525973   5.419   0.381   4.066 -0.1987 -0.3719 -0.3670
   25MOL     O625974   5.335   0.300   4.148  0.1083  0.4594 -0.0521
   25MOL     O725975   5.364   0.487   3.981  0.1117  0.3728 -0.4289
   25MOL     C825976   5.541   0.462   4.170 -0.2469  0.5387  0.0925
   25MOL     C925977   5.627   0.376   4.250  0.2959 -0.3045  0.2135
   25MOL    C1025978   5.712   0.433   4.344 -0.2519 -0.1834 -0.6136
   25MOL    C1125979   5.720   0.574   4.360  0.0547  0.6205 -0.2582
   25MOL    O1225980   5.793   0.634   4.455 -0.7198 -0.3375  0.0423
   25MOL    C1325981   5.739   0.652   4.579 -0.8248 -0.6040  0.7681
   25MOL    C1425982   5.826   0.666   4.690  0.5674  0.4159  0.1351
   25MOL    C1525983   5.768   0.687   4.820  0.9065  0.2452 -0.2415
   25MOL    C1625984   5.622   0.697   4.839 -0.4503  0.0894 -0.1168
   25MOL    C1725985   5.556   0.707   4.976  0.2374 -0.4723  0.0738
   25MOL    C1825986   5.476   0.578   5.006 -0.1712 -0.2707 -0.4340
   25MOL    C1925987   5.666   0.722   5.096  0.9406  0.1394  0.3172
   25MOL    C2025988   5.467   0.825   4.987 -0.1306 -0.3581  0.4435
   25MOL    C2125989   5.408   0.858   5.109 -0.1877 -0.0350  0.3702
   25MOL    C2225990   5.325   0.970   5.131  0.3948  0.1235 -0.1723
   25MOL    C2325991   5.292   1.049   5.025  0.0080  0.6933  0.5433
   25MOL    O2425992   5.201   1.156   5.043 -0.6479 -0.3571 -0.0386
   25MOL    C2525993   5.343   1.019   4.898 -0.0155  0.1241 -0.0948
   25MOL    C2625994   5.435   0.920   4.881  0.2632 -0.4105  0.6515
   25MOL    C2725995   5.544   0.680   4.722 -0.3862 -0.1972 -0.7067
   25MOL    C2825996   5.597   0.654   4.594  0.0843 -0.7531  0.0742
   25MOL    C2925997   5.646   0.657   4.263 -0.0364 -0.2019  0.3361
   25MOL    C3025998   5.553   0.605   4.174  0.0154 -0.1230 -0.0024
   25MOL    C3125999   5.434   0.160   3.883 -0.7979  0.7504 -0.4768
   25MOL    C3226000   5.500   0.063   3.810  0.4081  0.2687 -0.2073
   25MOL    H3326001   5.817   0.187   3.815 -0.5310 -1.3611  0.8283
   25MOL    H3426002   5.704   0.359   3.960  1.2005 -1.4451 -0.9969
   25MOL    H3526003   5.606   0.271   4.233  1.6621 -0.1902 -2.4822
   25MOL    H3626004   5.762   0.372   4.417 -1.0852  0.9012  0.8761
   25MOL    H3726005   5.933   0.663   4.673  0.3038 -0.3816 -1.4438
   25MOL    H3826006   5.832   0.695   4.907 -1.8851  1.0135  1.8269
   25MOL    H3926007   5.427   0.583   5.103  1.0753  2.5266  0.0817
   25MOL    H4026008   5.546   0.496   5.020 -0.5564 -0.2344  1.7931
   25MOL    H4126009   5.412   0.551   4.921 -1.1780 -1.1277  0.5764
   25MOL    H4226010   5.729   0.634   5.108 -0.6285 -1.2403 -1.2889
   25MOL    H4326011   5.731   0.807   5.078 -2.8863  2.8468 -1.5803
   25MOL    H4426012   5.614   0.745   5.189 -0.6185  0.9421 -0.7140
   25MOL    H4526013   5.403   0.800   5.200  1.7869 -0.5270  0.1822
   25MOL    H4626014   5.302   1.003   5.231  0.6726 -0.1104 -0.0288
   25MOL    H4726015   5.327   1.082   4.812  3.3279  0.4367 -0.5572
   25MOL    H4826016   5.485   0.918   4.785 -0.9164 -0.9699  0.0483
   25MOL    H4926017   5.437   0.692   4.732 -0.2550  0.2555  0.3236
   25MOL    H5026018   5.524   0.635   4.517 -0.8309  0.9916  0.4714
   25MOL    H5126019   5.656   0.764   4.273  2.5655 -0.3751 -0.2000
   25MOL    H5226020   5.480   0.662   4.119  0.0804  1.8575  1.8861
   25MOL    H5326021   5.327   0.157   3.897 -0.8245  2.3335 -0.1831
   25MOL    H5426022   5.444   8.239   3.759 -0.1813 -0.4129  1.4665
   25MOL    H5526023   5.686   0.002   3.710 -0.3537 -2.1764  1.8701
   25MOL    C5626024   5.074   1.140   5.013  0.0104 -0.2054  0.0828
   25MOL    C5726025   4.983   1.056   5.092 -0.9352  0.0236 -0.2381
   25MOL    C5826026   4.850   1.035   5.044 -0.4803  0.4840 -0.0287
   25MOL    C5926027   4.808   1.087   4.924 -0.2346 -0.5518 -0.1205
   25MOL    S6026028   4.639   1.067   4.865 -0.4967  0.0676 -0.1657
   25MOL    O6126029   4.583   0.941   4.916 -0.0901 -0.2565 -0.4343
   25MOL    O6226030   4.636   1.092   4.721  0.1055 -0.6243 -0.1946
   25MOL    C6326031   4.547   1.202   4.936  0.7936  0.4016  0.0754
   25MOL    C6426032   4.596   1.335   4.949 -0.7804 -0.1204  0.0234
   25MOL    C6526033   4.515   1.431   5.010  0.1139  0.7141 -0.6970
   25MOL    C6626034   4.386   1.401   5.060  0.2251 -0.3611 -0.6713
   25MOL    O6726035   4.317   1.493   5.136  0.3604 -0.3770 -0.7618
   25MOL    C6826036   4.351   1.515   5.268  0.8927  0.5962  0.5029
   25MOL    C6926037   4.372   1.399   5.356 -0.4954  0.1951  0.0117
   25MOL    C7026038   4.411   1.422   5.485  0.3686 -0.1639 -0.3749
   25MOL    C7126039   4.435   1.550   5.539 -0.2847 -0.0739  1.0090
   25MOL    C7226040   4.492   1.557   5.677 -0.5830  0.1699 -0.2019
   25MOL    C7326041   4.644   1.559   5.655  0.8678 -0.1025 -0.0563
   25MOL    C7426042   4.463   1.696   5.744  0.0286 -0.1577  0.1546
   25MOL    C7526043   4.445   1.438   5.767 -0.1820 -0.4990  0.1964
   25MOL    C7626044   4.311   1.447   5.813  0.5728 -0.4271 -0.0257
   25MOL    C7726045   4.257   1.343   5.902  1.1518 -0.1453 -0.0835
   25MOL    C7826046   4.333   1.231   5.930 -0.2239  0.1584  0.6382
   25MOL    O7926047   4.274   1.128   5.998  0.2816 -0.1330 -0.5955
   25MOL    C8026048   4.467   1.221   5.880  0.3722 -0.0400  0.5957
   25MOL    C8126049   4.517   1.323   5.798  0.2722 -0.5726 -0.9219
   25MOL    C8226050   4.423   1.658   5.452  0.4657  0.6695  0.3879
   25MOL    C8326051   4.374   1.642   5.319 -0.0060 -0.0324  0.7705
   25MOL    C8426052   4.333   1.272   5.036  0.0881  0.4808  0.3617
   25MOL    C8526053   4.416   1.175   4.978 -0.1338  0.1656  0.0645
   25MOL    C8626054   4.894   1.166   4.846  0.1485  0.3043  0.5488
   25MOL    C8726055   5.020   1.195   4.888  0.1142  0.0692 -0.5262
   25MOL    H8826056   5.028   1.008   5.177 -0.7371 -1.1626 -1.0086
   25MOL    H8926057   4.782   0.975   5.103 -0.9251 -0.4075 -1.4255
   25MOL    H9026058   4.690   1.359   4.903  0.0411  0.3485  1.9158
   25MOL    H9126059   4.562   1.527   5.019  0.0464  0.5965  1.0809
   25MOL    H9226060   4.362   1.298   5.317 -0.7791  0.0504  0.4619
   25MOL    H9326061   4.437   1.331   5.536 -0.2454  0.1309  0.4836
   25MOL    H9426062   4.670   1.646   5.594 -2.1373 -0.1700 -1.4995
   25MOL    H9526063   4.683   1.476   5.597 -0.3066  0.3978 -1.6054
   25MOL    H9626064   4.701   1.589   5.743  2.6517  0.1238 -1.2531
   25MOL    H9726065   4.356   1.712   5.753  0.2277  0.9596  0.5889
   25MOL    H9826066   4.503   1.705   5.845  0.2501  0.2200  0.0322
   25MOL    H9926067   4.503   1.779   5.686 -1.0700  0.5942  0.4453
   25MOL   H10026068   4.241   1.530   5.806 -1.6273 -2.0920  1.2378
   25MOL   H10126069   4.156   1.348   5.941  0.8430  1.2938 -1.0038
   25MOL   H10226070   4.535   1.146   5.918 -0.5942 -0.1072  2.2304
   25MOL   H10326071   4.620   1.328   5.764  1.2036  0.2305  1.9136
   25MOL   H10426072   4.434   1.759   5.488 -1.8660  1.4382 -0.9266
   25MOL   H10526073   4.374   1.722   5.246 -0.3159 -1.6662 -1.0638
   25MOL   H10626074   4.239   1.243   5.078 -2.4814  2.4215 -3.7338
   25MOL   H10726075   4.386   1.071   4.973 -1.6085  0.6803 -2.1237
   25MOL   H10826076   4.859   1.204   4.751  1.6150  0.5978  0.1190
   25MOL   H10926077   5.090   1.261   4.839  1.3406 -1.6756 -1.1521
   25MOL   C11026078   4.278   1.004   5.944 -0.3087  0.4025  0.3504
   25MOL   C11126079   4.194   0.959   5.837  0.3418  0.5356  0.5669
   25MOL   C11226080   4.199   0.826   5.789 -0.2237  0.3250  0.3443
   25MOL   C11326081   4.303   0.742   5.837 -0.2407  0.1609  0.4002
   25MOL   S11426082   4.296   0.568   5.791  0.0158  0.5832  0.3694
   25MOL   O11526083   4.203   0.548   5.680 -0.1483  0.1046 -0.4227
   25MOL   O11626084   4.282   0.482   5.910  0.0739  0.2097 -0.7089
   25MOL   C11726085   4.462   0.545   5.724  0.2617 -0.7723  1.0982
   25MOL   C11826086   4.477   0.550   5.583 -0.1359 -0.2103  0.0024
   25MOL   C11926087   4.608   0.530   5.531 -0.0902  0.4937  0.1771
   25MOL   C12026088   4.718   0.494   5.609  0.4369  0.4652  0.4309
   25MOL   O12126089   4.843   0.486   5.552 -0.1421  0.0780  0.1611
   25MOL   C12226090   4.871   0.364   5.505  0.0927 -0.2174 -0.0630
   25MOL   C12326091   4.811   0.331   5.380 -0.5285 -0.2546 -0.0690
   25MOL   C12426092   4.848   0.216   5.312  0.4308  0.7727  0.4908
   25MOL   C12526093   4.941   0.123   5.373  0.1103 -0.0260 -0.5421
   25MOL   C12626094   4.974   8.246   5.304 -0.6726 -0.4995  0.5296
   25MOL   C12726095   4.986   0.009   5.151  0.3770  0.7234 -0.4163
   25MOL   C12826096   5.120   8.198   5.338  0.2093 -0.1265 -1.1720
   25MOL   C12926097   4.867   8.143   5.341  0.2560 -0.3024 -0.2084
   25MOL   C13026098   4.879   8.052   5.452 -0.1400  0.0477  0.7600
   25MOL   C13126099   4.780   7.957   5.479 -1.1860 -0.0960  0.2998
   25MOL   C13226100   4.670   7.941   5.390 -0.0316  0.4079  0.6194
   25MOL   O13326101   4.570   7.849   5.418  0.6266  0.2306  0.6735
   25MOL   C13426102   4.656   8.026   5.282  0.5258  0.0709 -0.3918
   25MOL   C13526103   4.753   8.125   5.259  0.6333 -0.3613  0.0738
   25MOL   C13626104   4.998   0.157   5.497  0.2121  0.0238  0.7653
   25MOL   C13726105   4.966   0.278   5.564 -0.5775 -0.0258  0.1063
   25MOL   C13826106   4.705   0.496   5.748 -0.1828 -0.8117 -0.1022
   25MOL   C13926107   4.576   0.519   5.804 -1.2204 -0.1973 -0.4290
   25MOL   C14026108   4.391   0.785   5.943 -0.1769  0.6780 -0.7125
   25MOL   C14126109   4.372   0.916   5.995  0.0950 -0.9086 -0.1207
   25MOL   H14226110   4.117   1.027   5.804 -0.7260 -0.7898  0.2489
   25MOL   H14326111   4.128   0.776   5.726  0.9708  0.3023 -1.0180
   25MOL   H14426112   4.391   0.576   5.523 -2.3540 -0.5523  2.9599
   25MOL   H14526113   4.628   0.542   5.425  0.2304 -1.1640  0.0370
   25MOL   H14626114   4.748   0.401   5.327  0.4014  0.7448  0.1391
   25MOL   H14726115   4.810   0.207   5.211  0.1801  0.4093  0.6144
   25MOL   H14826116   5.017   8.172   5.099  0.9008  0.3107  0.5937
   25MOL   H14926117   5.043   0.096   5.119  1.1929  0.3243 -0.0673
   25MOL   H15026118   4.889   0.034   5.108 -0.3876 -0.2518  0.7208
   25MOL   H15126119   5.151   8.121   5.267 -1.7791 -1.6845 -0.3959
   25MOL   H15226120   5.181   0.034   5.326 -1.6934  1.6825  2.0730
   25MOL   H15326121   5.133   8.173   5.443 -1.2493 -1.6672 -1.3331
   25MOL   H15426122   4.970   8.059   5.511 -0.0744 -0.7596  0.7573
   25MOL   H15526123   4.796   7.883   5.557  0.7226  1.3058  1.2967
   25MOL   H15626124   4.564   8.029   5.225  0.1430  1.4898  0.2782
   25MOL   H15726125   4.720   8.189   5.178 -0.0340 -0.8861 -0.0751
   25MOL   H15826126   5.069   0.086   5.536  1.0691  0.2912 -0.2732
   25MOL   H15926127   5.007   0.314   5.658 -0.8431  3.0058 -0.8600
   25MOL   H16026128   4.793   0.483   5.809  0.4023  1.7046 -0.3621
   25MOL   H16126129   4.551   0.496   5.906 -1.3257 -1.0571 -0.6446
   25MOL   H16226130   4.465   0.721   5.989 -0.2500  1.0411 -0.0858
   25MOL   H16326131   4.431   0.945   6.080 -0.3408  1.7802 -0.6942
   25MOL   C16426132   4.595   7.714   5.409  0.0664  0.0467  0.1315
   25MOL   C16526133   4.589   7.638   5.291 -0.0982 -1.0967  0.8124
   25MOL   C16626134   4.613   7.497   5.286 -0.6166 -0.0798 -0.1307
   25MOL   C16726135   4.638   7.435   5.414  0.1644 -0.3305 -0.0253
   25MOL   S16826136   4.677   7.260   5.432  0.1450  0.1318  0.0568
   25MOL   O16926137   4.628   7.218   5.562  0.0032  0.6097 -0.5097
   25MOL   O17026138   4.822   7.240   5.413  0.4292  0.4230 -0.1518
   25MOL   C17126139   4.595   7.159   5.311 -0.2205 -0.4705  0.3300
   25MOL   C17226140   4.660   7.137   5.189  0.1754 -0.1373  0.4781
   25MOL   C17326141   4.602   7.056   5.091 -0.2335  0.0530 -0.1095
   25MOL   C17426142   4.477   7.002   5.111  0.8793  0.2276 -0.3278
   25MOL   O17526143   4.427   6.920   5.013 -0.1002 -0.0303 -0.2014
   25MOL   C17626144   4.359   6.800   5.022 -0.4569  0.1915  0.3378
   25MOL   C17726145   4.258   6.770   4.933  0.0189  0.0708  0.2616
   25MOL   C17826146   4.188   6.650   4.941  0.3524 -0.2648  0.6002
   25MOL   C17926147   4.207   6.559   5.046 -0.2236 -1.0759 -0.2419
   25MOL   C18026148   4.128   6.429   5.063  0.0612 -0.4590 -0.3774
   25MOL   C18126149   4.192   6.324   4.962 -1.1134 -0.0454 -0.1498
   25MOL   C18226150   4.136   6.372   5.210 -0.4661 -0.8135 -0.5348
   25MOL   C18326151   3.977   6.459   5.023  0.0237  0.6221 -0.1677
   25MOL   C18426152   3.930   6.444   4.892 -0.1244  0.8621 -0.1785
   25MOL   C18526153   3.798   6.473   4.858  0.3662  0.1749  0.5756
   25MOL   C18626154   3.698   6.499   4.956  0.6790  0.1920  0.1774
   25MOL   O18726155   3.570   6.535   4.923 -0.4667  0.6957 -0.2065
   25MOL   C18826156   3.750   6.517   5.087  0.7099 -0.1892 -0.0513
   25MOL   C18926157   3.884   6.498   5.120  0.3556  0.7330  0.2566
   25MOL   C19026158   4.302   6.594   5.142 -0.4904 -0.1928 -0.1111
   25MOL   C19126159   4.387   6.707   5.127 -0.2446 -0.2651  0.7697
   25MOL   C19226160   4.407   7.019   5.237  0.5939  0.0453 -0.5792
   25MOL   C19326161   4.467   7.107   5.331 -0.2470  0.5598 -0.9329
   25MOL   C19426162   4.643   7.510   5.530  0.5976  0.2118  0.0057
   25MOL   C19526163   4.624   7.651   5.527 -0.4090 -0.3035  0.3812
   25MOL   H19626164   4.572   7.697   5.203 -1.3292 -0.3075  1.5713
   25MOL   H19726165   4.610   7.435   5.198 -0.5431  2.3670 -1.9208
   25MOL   H19826166   4.761   7.167   5.167  0.7863 -1.3043  1.6255
   25MOL   H19926167   4.653   7.030   4.999  2.2392 -0.6951  1.4295
   25MOL   H20026168   4.251   6.840   4.851  1.3485 -0.6863 -0.5169
   25MOL   H20126169   4.117   6.626   4.863  1.5765 -2.8693  0.2266
   25MOL   H20226170   4.284   6.278   4.999  0.0450  2.3434  0.0224
   25MOL   H20326171   4.218   6.375   4.869  0.8037 -1.0757 -0.2104
   25MOL   H20426172   4.125   6.240   4.943 -2.1308  0.3046  1.8033
   25MOL   H20526173   4.077   6.281   5.224 -3.2556  1.2395  1.4352
   25MOL   H20626174   4.235   6.328   5.227 -0.5548 -1.9882 -2.7572
   25MOL   H20726175   4.110   6.444   5.287 -0.3344  0.6161 -1.8005
   25MOL   H20826176   4.000   6.418   4.814  1.4765  1.2985  1.1086
   25MOL   H20926177   3.758   6.462   4.758 -0.0881  1.0412  0.6526
   25MOL   H21026178   3.676   6.550   5.159 -0.5255 -3.0638  0.0682
   25MOL   H21126179   3.912   6.512   5.223 -1.1689 -0.8409  0.9152
   25MOL   H21226180   4.317   6.550   5.239  1.0112 -0.0950 -0.2919
   25MOL   H21326181   4.463   6.734   5.199 -0.4766  3.4788 -0.2877
   25MOL   H21426182   4.307   6.980   5.245  0.2394  0.6386 -2.0113
   25MOL   H21526183   4.420   7.127   5.427 -0.2721 -1.9001 -0.4118
   25MOL   H21626184   4.669   7.464   5.624 -2.9511  0.5001  1.2153
   25MOL   H21726185   4.618   7.694   5.626  0.4913 -1.5981  1.0295
   25MOL   C21826186   3.554   6.621   4.816 -0.2547 -0.3250 -0.3664
   25MOL   C21926187   3.499   6.582   4.692  0.2093  0.3868 -0.1241
   25MOL   C22026188   3.499   6.674   4.582  0.6987  0.3329 -0.4499
   25MOL   C22126189   3.543   6.810   4.603  0.4370  0.8972  1.0774
   25MOL   S22226190   3.550   6.939   4.478 -0.0452  0.2352 -0.0262
   25MOL   O22326191   3.685   6.948   4.433  0.1099  0.3872  0.2530
   25MOL   O22426192   3.482   7.060   4.532  0.2593  0.8912 -0.4369
   25MOL   C22526193   3.456   6.878   4.336 -0.4826  0.5966  0.3501
   25MOL   C22626194   3.528   6.817   4.229 -0.2331  0.1014 -0.0480
   25MOL   C22726195   3.454   6.785   4.112  0.4171  0.5246  0.3282
   25MOL   C22826196   3.309   6.805   4.107  0.4924 -0.2467  0.6492
   25MOL   O22926197   3.237   6.774   3.993 -0.1881  0.3158  0.8641
   25MOL   C23026198   3.261   6.651   3.940  0.6232  0.6578  0.0444
   25MOL   C23126199   3.342   6.642   3.829  0.6619  0.1248  0.5852
   25MOL   C23226200   3.367   6.522   3.763 -0.2729 -0.0756  0.1612
   25MOL   C23326201   3.318   6.402   3.815  0.1812  0.0716  0.8271
   25MOL   C23426202   3.335   6.273   3.727 -1.1653 -0.2573  0.0058
   25MOL   C23526203   3.345   6.156   3.831 -0.2349  0.5034  0.7414
   25MOL   C23626204   3.215   6.270   3.632 -0.7180 -0.5986  0.1536
   25MOL   C23726205   3.468   6.279   3.654  0.0878  0.0518 -0.0716
   25MOL   C23826206   3.578   6.315   3.739 -0.7950 -0.1785 -0.1616
   25MOL   C23926207   3.707   6.330   3.684 -0.0228  0.2842  1.1870
   25MOL   C24026208   3.727   6.302   3.546  0.0247  0.5104  0.0730
   25MOL   O24126209   3.854   6.320   3.497 -0.8112 -0.0500 -0.1839
   25MOL   C24226210   3.623   6.250   3.467 -0.0280  0.1451 -0.1000
   25MOL   C24326211   3.492   6.242   3.524 -0.3497 -0.2192 -0.4270
   25MOL   C24426212   3.238   6.412   3.931 -0.3339 -0.0474  0.3779
   25MOL   C24526213   3.217   6.532   3.998  0.7265  0.0702  0.0451
   25MOL   C24626214   3.243   6.854   4.223  0.5392 -0.3898 -0.3571
   25MOL   C24726215   3.315   6.893   4.336 -0.0058  0.2197  0.9603
   25MOL   C24826216   3.578   6.852   4.734 -0.2966 -0.0275 -0.8994
   25MOL   C24926217   3.584   6.760   4.843  0.3469  0.4097 -0.7045
   25MOL   H25026218   3.468   6.481   4.672  0.1127  0.5184 -0.6414
   25MOL   H25126219   3.458   6.647   4.486  1.9748 -3.1345 -0.0672
   25MOL   H25226220   3.636   6.809   4.225 -0.1618  0.8808  0.3364
   25MOL   H25326221   3.508   6.747   4.026  0.8165 -1.7180  1.5325
   25MOL   H25426222   3.381   6.730   3.778 -0.2902  0.1384 -0.1231
   25MOL   H25526223   3.426   6.534   3.674 -0.4065 -0.2483  0.0480
   25MOL   H25626224   3.415   6.178   3.912 -0.6413 -0.6626  1.4275
   25MOL   H25726225   3.390   6.065   3.791 -0.0021  0.8856  0.1265
   25MOL   H25826226   3.247   6.127   3.869  0.4483 -2.4812  0.3304
   25MOL   H25926227   3.123   6.276   3.691 -1.7567  0.0127 -1.4718
   25MOL   H26026228   3.220   6.362   3.575 -0.8920 -1.6852 -1.6424
   25MOL   H26126229   3.226   6.176   3.578 -1.6862 -0.2012 -0.7589
   25MOL   H26226230   3.559   6.320   3.845 -0.5503 -2.5750  0.0276
   25MOL   H26326231   3.791   6.357   3.748 -0.8239 -0.2683  2.4912
   25MOL   H26426232   3.629   6.221   3.363  0.8462 -0.2657  0.0663
   25MOL   H26526233   3.415   6.203   3.458  0.7395 -1.5519 -0.9337
   25MOL   H26626234   3.185   6.326   3.971  1.3388 -1.4930 -0.4074
   25MOL   H26726235   3.152   6.543   4.084  0.6500 -0.9689  0.1289
   25MOL   H26826236   3.138   6.877   4.226  0.4402 -0.9985  1.5367
   25MOL   H26926237   3.266   6.936   4.422  0.2617 -2.6084  2.5866
   25MOL   H27026238   3.598   6.955   4.759  1.0599 -0.7119  0.9087
   25MOL   H27126239   3.608   6.788   4.945 -0.5048 -0.8994 -0.1237
   25MOL   C27226240   3.898   6.450   3.487 -0.6303  0.2474 -0.3246
   25MOL   C27326241   3.822   6.552   3.412 -0.3360 -0.1394 -0.3760
   25MOL   C27426242   3.870   6.684   3.413  1.0823 -0.0519  0.0197
   25MOL   C27526243   3.991   6.719   3.475 -0.0626  0.0811  0.0084
   25MOL   S27626244   4.042   6.894   3.452 -0.1456 -0.0474 -0.0811
   25MOL   O27726245   4.178   6.907   3.506 -0.2596  0.6118 -0.1417
   25MOL   O27826246   3.937   6.989   3.496 -0.0795 -0.6776 -0.4334
   25MOL   C27926247   4.048   6.912   3.273  0.0127 -0.8119 -0.9445
   25MOL   C28026248   4.000   7.034   3.224 -0.5570 -0.7632  0.3579
   25MOL   C28126249   3.969   7.037   3.087  0.3555 -0.1380  0.5317
   25MOL   C28226250   4.007   6.926   3.005 -0.0589  0.2173  0.5033
   25MOL   O28326251   3.972   6.916   2.872 -0.1742  0.4495  0.0204
   25MOL   C28426252   3.889   7.009   2.818  0.3736  0.5693  0.9241
   25MOL   C28526253   3.937   7.107   2.726  1.2789  0.0539  0.6134
   25MOL   C28626254   3.846   7.194   2.660 -0.9305  0.0109  0.1742
   25MOL   C28726255   3.705   7.180   2.688 -0.3153 -0.1119  0.1612
   25MOL   C28826256   3.597   7.268   2.621  0.8543  0.2479  0.0947
   25MOL   C28926257   3.501   7.181   2.533  0.0309 -0.4173 -0.9885
   25MOL   C29026258   3.502   7.327   2.724  0.2738  0.1526 -0.0954
   25MOL   C29126259   3.659   7.375   2.531 -0.8275 -0.1880  0.2560
   25MOL   C29226260   3.711   7.491   2.592 -0.2040 -0.1060 -0.0808
   25MOL   C29326261   3.763   7.601   2.512 -0.0058  0.0817  0.3035
   25MOL   C29426262   3.776   7.588   2.376  0.5866 -0.0537  0.4447
   25MOL   O29526263   3.830   7.690   2.305 -0.2084  0.2688  0.0086
   25MOL   C29626264   3.738   7.459   2.318  0.1108  0.8871 -0.4231
   25MOL   C29726265   3.674   7.363   2.395 -0.0354  0.1189  0.8682
   25MOL   C29826266   3.664   7.078   2.776 -0.1041  0.7271 -0.4262
   25MOL   C29926267   3.754   6.994   2.843  0.7943  0.0808  0.4322
   25MOL   C30026268   4.061   6.806   3.065 -0.6296  0.1664 -1.1253
   25MOL   C30126269   4.091   6.805   3.198  0.4533  0.5986 -0.0635
   25MOL   C30226270   4.061   6.625   3.545 -0.1007  0.6049 -0.7368
   25MOL   C30326271   4.008   6.497   3.562 -0.1068  0.3188  0.6535
   25MOL   H30426272   3.731   6.542   3.355 -0.6017  1.8775 -0.3470
   25MOL   H30526273   3.820   6.763   3.361 -0.3068 -1.1737 -0.3588
   25MOL   H30626274   3.967   7.113   3.289 -1.9418 -1.1223  0.1190
   25MOL   H30726275   3.929   7.127   3.043 -0.5711 -0.6870  0.2334
   25MOL   H30826276   4.044   7.116   2.712  0.9552 -0.1253 -2.1360
   25MOL   H30926277   3.871   7.267   2.585 -1.7830 -1.8022 -1.9432
   25MOL   H31026278   3.440   7.251   2.476 -0.5832  0.5828  0.8645
   25MOL   H31126279   3.446   7.120   2.605  1.0768 -0.2105 -0.0200
   25MOL   H31226280   3.554   7.119   2.460  1.7378  0.3459 -0.4022
   25MOL   H31326281   3.542   7.388   2.805 -1.4513  1.6767 -0.3304
   25MOL   H31426282   3.424   7.390   2.680 -0.6903 -0.7268  0.3383
   25MOL   H31526283   3.457   7.243   2.776  0.8597  0.1324  0.3765
   25MOL   H31626284   3.716   7.498   2.699 -0.0733  1.8842 -0.1807
   25MOL   H31726285   3.789   7.696   2.555  0.5063 -0.5367  1.3930
   25MOL   H31826286   3.740   7.437   2.212 -1.9099  1.1682 -0.5351
   25MOL   H31926287   3.648   7.276   2.336  0.9449  1.1736 -1.1625
   25MOL   H32026288   3.559   7.060   2.791  0.0437 -1.2753 -1.6649
   25MOL   H32126289   3.709   6.911   2.895 -0.4143 -0.8341 -1.9935
   25MOL   H32226290   4.094   6.719   3.011 -1.3673 -0.7440 -0.1336
   25MOL   H32326291   4.136   6.717   3.242 -1.0162 -0.2231 -0.1604
   25MOL   H32426292   4.154   6.661   3.586  0.5704 -0.6712 -1.1072
   25MOL   H32526293   4.050   6.424   3.630 -3.4896 -2.3012  0.0579
   25MOL   C32626294   3.764   7.733   2.192  0.1217 -0.1885 -0.3380
   25MOL   C32726295   3.810   7.700   2.066  0.7116  0.5285  0.0268
   25MOL   C32826296   3.743   7.743   1.952 -0.1355  0.2107 -0.3102
   25MOL   C32926297   3.625   7.821   1.958 -0.0498 -0.1117 -0.2787
   25MOL   S33026298   3.553   7.879   1.809  0.1339  0.1794 -0.1168
   25MOL   O33126299   3.615   7.806   1.695  0.4025  0.3523  0.5217
   25MOL   O33226300   3.560   8.027   1.813 -0.3599 -0.7755 -0.0086
   25MOL   C33326301   3.385   7.830   1.801  0.9115 -0.5838  0.0476
   25MOL   C33426302   3.289   7.908   1.732 -0.3615 -0.3997 -0.2468
   25MOL   C33526303   3.152   7.882   1.748  0.2678  0.1460  0.7446
   25MOL   C33626304   3.108   7.766   1.816 -0.0969  0.6567 -0.0387
   25MOL   O33726305   2.988   7.723   1.804  0.1696  0.0932  0.0360
   25MOL   C33826306   2.908   7.762   1.909 -0.5822 -0.1671 -0.5324
   25MOL   C33926307   2.854   7.895   1.923 -0.1381 -0.1550  0.3582
   25MOL   C34026308   2.781   7.935   2.036 -0.2947  0.0300  0.6128
   25MOL   C34126309   2.745   7.844   2.137  0.6446  0.0302  0.2267
   25MOL   C34226310   2.660   7.894   2.258 -0.1110 -0.5180 -0.5717
   25MOL   C34326311   2.648   7.792   2.372 -0.5497  0.6425  0.4520
   25MOL   C34426312   2.731   8.019   2.327 -0.4022 -0.1461 -0.4976
   25MOL   C34526313   2.516   7.935   2.221 -0.2216 -0.0515  0.8102
   25MOL   C34626314   2.426   7.838   2.170  0.4382  0.1854 -0.1508
   25MOL   C34726315   2.296   7.872   2.131  0.0165 -0.2725 -0.6939
   25MOL   C34826316   2.253   8.012   2.131  0.5234 -0.1045 -0.4155
   25MOL   O34926317   2.136   8.059   2.084 -0.0282  0.6626 -0.4071
   25MOL   C35026318   2.344   8.103   2.180 -0.3438  0.4563 -0.7612
   25MOL   C35126319   2.471   8.069   2.230  0.6405  0.2658  0.0306
   25MOL   C35226320   2.796   7.712   2.120 -0.2253 -0.7236 -0.2157
   25MOL   C35326321   2.879   7.667   2.009 -0.6585 -0.2531 -0.9292
   25MOL   C35426322   3.204   7.685   1.884  0.2645 -0.1365 -0.4794
   25MOL   C35526323   3.337   7.718   1.877 -0.1016  0.2056  0.1327
   25MOL   C35626324   3.576   7.854   2.088  0.3756  0.4142  0.0641
   25MOL   C35726325   3.639   7.799   2.203 -1.0749  0.3711  0.1654
   25MOL   H35826326   3.896   7.636   2.054  0.6272  0.7042 -1.6106
   25MOL   H35926327   3.793   7.718   1.859  1.8095  1.0583  0.4675
   25MOL   H36026328   3.322   7.989   1.669 -0.2088 -0.1084  0.2085
   25MOL   H36126329   3.074   7.920   1.683  1.2986 -0.0253 -0.6187
   25MOL   H36226330   2.883   7.967   1.848  0.2604  1.2103  1.7839
   25MOL   H36326331   2.755   8.039   2.050  2.8061  1.2608 -2.1356
   25MOL   H36426332   2.592   7.701   2.348 -1.5674  0.9863  1.4742
   25MOL   H36526333   2.615   7.840   2.464  0.3066 -1.3254  1.8327
   25MOL   H36626334   2.751   7.764   2.397 -0.0768  0.4807 -1.6296
   25MOL   H36726335   2.738   8.113   2.272  0.7872 -0.2820 -0.5738
   25MOL   H36826336   2.674   8.043   2.417  1.1181  1.8002 -0.0160
   25MOL   H36926337   2.831   7.987   2.355 -0.0160 -0.3409 -2.0583
   25MOL   H37026338   2.459   7.736   2.172  0.3160  0.1719  1.3567
   25MOL   H37126339   2.218   7.800   2.112  0.4157 -0.4292 -1.7644
   25MOL   H37226340   2.306   8.204   2.179 -0.4931  0.4699  2.6103
   25MOL   H37326341   2.533   8.147   2.272  0.8172 -0.1391  0.5292
   25MOL   H37426342   2.766   7.645   2.200  1.0559 -1.0593 -0.0079
   25MOL   H37526343   2.900   7.561   2.010  0.8003 -0.0197  2.1429
   25MOL   H37626344   3.168   7.604   1.945 -1.4392  1.2002  0.3426
   25MOL   H37726345   3.414   7.651   1.911  0.5173 -0.2258 -2.0041
   25MOL   H37826346   3.493   7.922   2.094 -0.2094 -0.3024  0.2572
   25MOL   H37926347   3.611   7.828   2.304  4.1067  2.4981  1.1330
   25MOL   C38026348   2.014   8.036   2.143  0.1444  0.4178 -0.5103
   25MOL   C38126349   1.964   8.142   2.225 -0.0797 -0.5473  0.4271
   25MOL   C38226350   1.845   8.129   2.297 -0.5668  0.5077  0.2177
   25MOL   C38326351   1.764   8.013   2.279  0.0997  0.3740 -0.3725
   25MOL   S38426352   1.608   8.004   2.383  0.5294  0.2529  0.1110
   25MOL   O38526353   1.552   8.139   2.393 -0.2438 -0.4575  0.3902
   25MOL   O38626354   1.613   7.920   2.503 -0.2919 -0.3554 -0.5345
   25MOL   C38726355   1.494   7.917   2.277 -0.5847  0.4385  0.2042
   25MOL   C38826356   1.471   7.954   2.142  0.1465 -0.3986 -0.2838
   25MOL   C38926357   1.373   7.889   2.066 -1.1581  0.3803 -0.4266
   25MOL   C39026358   1.296   7.783   2.127  0.1087 -0.3496  0.5834
   25MOL   O39126359   1.203   7.704   2.059 -0.0932  0.9327  0.3454
   25MOL   C39226360   1.143   7.764   1.948 -0.2793  0.5752  0.2845
   25MOL   C39326361   1.191   7.739   1.821  0.6762 -0.0211  0.7367
   25MOL   C39426362   1.145   7.813   1.710 -0.0980 -1.1104  0.6978
   25MOL   C39526363   1.040   7.906   1.720 -0.6135 -0.3896 -0.7531
   25MOL   C39626364   0.982   7.985   1.594 -0.7337  0.3933 -0.5523
   25MOL   C39726365   0.936   8.125   1.638  0.1563  0.1187 -0.0392
   25MOL   C39826366   1.095   8.013   1.489  0.8732  0.2752 -0.0824
   25MOL   C39926367   0.872   7.913   1.521  0.1333  0.0648  0.3756
   25MOL   C40026368   0.812   7.975   1.410  0.3572  0.6632 -0.4989
   25MOL   C40126369   0.692   7.919   1.354 -0.6541 -0.3010  0.5947
   25MOL   C40226370   0.648   7.796   1.403 -0.1029  0.3023  0.2564
   25MOL   O40326371   0.536   7.730   1.363 -0.4957 -0.2509  0.0108
   25MOL   C40426372   0.714   7.732   1.502  0.3649 -0.5459 -0.2594
   25MOL   C40526373   0.828   7.784   1.565 -1.1017  0.7960  0.1956
   25MOL   C40626374   0.987   7.925   1.849  0.5736  0.2418  0.0582
   25MOL   C40726375   1.045   7.864   1.963 -0.2851  0.2845 -0.0135
   25MOL   C40826376   1.317   7.747   2.262 -0.0647  0.1030  0.3969
   25MOL   C40926377   1.412   7.820   2.340  0.3112  0.6543  0.0133
   25MOL   C41026378   1.817   7.903   2.203 -1.2809  0.0059 -0.3927
   25MOL   C41126379   1.944   7.918   2.129  0.2822  0.2340  0.9309
   25MOL   H41226380   2.032   8.224   2.246 -0.8016  0.1169  0.1933
   25MOL   H41326381   1.808   8.204   2.364 -0.8333  1.2339 -0.7316
   25MOL   H41426382   1.522   8.034   2.091  0.7988 -0.6592 -0.0433
   25MOL   H41526383   1.343   7.915   1.965 -3.5685 -1.9220 -0.3651
   25MOL   H41626384   1.277   7.673   1.816  0.8881  0.1977  1.3939
   25MOL   H41726385   1.192   7.790   1.616 -1.2356 -3.2261  0.6225
   25MOL   H41826386   0.843   8.124   1.695 -0.6721  3.2209 -1.2091
   25MOL   H41926387   0.891   8.188   1.561  1.6291  2.3610  0.8922
   25MOL   H42026388   1.020   8.184   1.675 -1.0994  1.8977  0.0690
   25MOL   H42126389   1.054   8.067   1.403 -3.3433  1.2985  2.4204
   25MOL   H42226390   1.180   8.063   1.535  0.4440 -0.4647  1.5338
   25MOL   H42326391   1.142   7.924   1.448  2.7409  1.0817  0.2665
   25MOL   H42426392   0.841   8.074   1.376  0.3020  0.1895 -1.9872
   25MOL   H42526393   0.647   7.977   1.275  0.1642 -2.3268 -1.4302
   25MOL   H42626394   0.671   7.640   1.539 -0.6938  0.0303 -0.0256
   25MOL   H42726395   0.877   7.731   1.645 -1.2546 -1.4721 -1.1871
   25MOL   H42826396   0.909   7.998   1.862  0.4548  0.2924 -0.8759
   25MOL   H42926397   1.010   7.863   2.065 -0.1578  3.3744  0.0780
   25MOL   H43026398   1.252   7.671   2.304  0.0668 -0.2464 -0.0259
   25MOL   H43126399   1.416   7.801   2.447 -2.7703  3.2762  0.6978
   25MOL   H43226400   1.762   7.810   2.197  1.3025 -1.4304 -2.8408
   25MOL   H43326401   1.981   7.829   2.079  1.1074  0.5076  1.0531
   25MOL   C43426402   0.452   7.793   1.281 -0.0219 -0.2993 -0.3798
   25MOL   C43526403   0.412   7.736   1.161  0.2600 -0.0118  0.1629
   25MOL   C43626404   0.304   7.786   1.083  0.1077  0.2588  0.5522
   25MOL   C43726405   0.249   7.910   1.121  0.0024  0.1746 -0.2697
   25MOL   S43826406   0.110   7.952   1.022 -0.6851  0.0660 -0.4789
   25MOL   O43926407   0.019   7.835   1.020  0.2509 -0.6558 -0.0456
   25MOL   O44026408   0.173   8.002   0.900  0.7051  0.5148 -0.2011
   25MOL   C44126409   0.027   8.087   1.119 -0.3291 -0.1227  0.0070
   25MOL   C44226410   8.167   8.068   1.182 -0.0074  0.6753 -0.6635
   25MOL   C44326411   8.097   8.176   1.244 -0.2695  0.4330 -0.7360
   25MOL   C44426412   8.146   0.052   1.230  0.5294 -0.0212 -0.8591
   25MOL   O44526413   8.075   0.162   1.282 -0.8948  0.0485  0.1156
   25MOL   C44626414   8.131   0.241   1.380  0.3116 -0.8345 -0.2439
   25MOL   C44726415   8.094   0.228   1.517 -0.5237  0.1891 -0.4180
   25MOL   C44826416   8.152   0.315   1.609 -0.1774 -0.0628 -0.3845
   25MOL   C44926417   8.249   0.413   1.570 -0.1975 -0.9510  0.1911
   25MOL   C45026418   0.056   0.500   1.676 -0.0394 -0.4495  0.5757
   25MOL   C45126419   8.249   0.637   1.658  0.0715 -1.0628 -0.8763
   25MOL   C45226420   0.020   0.452   1.821 -0.2176 -0.1083 -0.2028
   25MOL   C45326421   0.209   0.503   1.674 -0.5250  0.3626 -0.9623
   25MOL   C45426422   0.278   0.601   1.749  0.0487  0.7733 -0.1624
   25MOL   C45526423   0.422   0.598   1.752  0.4911  0.1597 -0.3321
   25MOL   C45626424   0.497   0.497   1.689 -0.9723  0.0183 -0.4030
   25MOL   O45726425   0.638   0.496   1.683 -0.8455 -0.0666  0.0482
   25MOL   C45826426   0.424   0.396   1.621  0.1160 -0.0311  0.2106
   25MOL   C45926427   0.283   0.402   1.610 -0.2016 -0.1763  0.2081
   25MOL   C46026428   0.033   0.419   1.436 -0.2276 -0.2931  1.0805
   25MOL   C46126429   8.230   0.338   1.340 -0.0679 -0.3130 -0.0838
   25MOL   C46226430   0.022   0.072   1.171  0.4316  0.3546 -0.6827
   25MOL   C46326431   0.086   8.217   1.109 -0.9911 -0.2274  0.7294
   25MOL   C46426432   0.292   7.973   1.237 -0.1575  0.8215  0.2650
   25MOL   C46526433   0.395   7.914   1.312  0.5098 -0.5694 -0.1548
   25MOL   H46626434   0.456   7.643   1.129  2.7186  2.3144 -3.6098
   25MOL   H46726435   0.283   7.739   0.988  1.3065  1.2109 -0.2058
   25MOL   H46826436   8.131   7.967   1.194  0.1134  0.5947 -0.9940
   25MOL   H46926437   8.003   8.160   1.295 -0.5763  1.8398 -0.8620
   25MOL   H47026438   8.021   0.153   1.546 -0.9673  1.0748  0.7845
   25MOL   H47126439   8.129   0.292   1.712 -2.1507 -0.6724 -0.9457
   25MOL   H47226440   0.019   0.721   1.723 -1.4495 -1.2632 -0.0594
   25MOL   H47326441   8.141   0.651   1.652  0.3673  1.4283 -1.2138
   25MOL   H47426442   0.032   0.667   1.559 -0.7578  1.1216 -0.5553
   25MOL   H47526443   8.166   0.447   1.839 -0.3313 -0.4637 -0.9625
   25MOL   H47626444   0.067   0.355   1.834  1.4248  0.4211 -1.8224
   25MOL   H47726445   0.055   0.531   1.887  0.9481 -0.6820 -0.1348
   25MOL   H47826446   0.223   0.672   1.809 -1.2186  0.4199 -0.8939
   25MOL   H47926447   0.464   0.667   1.823 -0.9479 -0.0447  0.7494
   25MOL   H48026448   0.464   0.317   1.559 -0.5905 -0.3831  0.1963
   25MOL   H48126449   0.245   0.318   1.554  0.9852 -2.0217  2.0911
   25MOL   H48226450   0.101   0.497   1.405 -1.0749  0.4849  1.1570
   25MOL   H48326451   8.237   0.362   1.235 -3.1489  0.7924 -0.0875
   25MOL   H48426452   0.066   0.170   1.165  4.2869 -1.1802  0.9050
   25MOL   H48526453   0.178   8.227   1.053 -1.4694 -0.5109 -0.1276
   25MOL   H48626454   0.239   8.063   1.265 -1.1241  0.0256  1.0638
   25MOL   H48726455   0.427   7.955   1.407 -1.2548  1.1542 -0.2740
   25MOL   C48826456   0.707   0.475   1.564  0.4101  0.0207  0.0365
   25MOL   C48926457   0.819   0.385   1.562 -0.7204  0.3624  0.4291
   25MOL   C49026458   0.878   0.351   1.439  0.3244  0.3454  0.0432
   25MOL   C49126459   0.832   0.406   1.320  0.1551  0.0860 -0.0055
   25MOL   S49226460   0.902   0.344   1.167 -0.0798  0.2772  0.1025
   25MOL   O49326461   0.830   0.406   1.053  0.1970 -0.1750  0.0145
   25MOL   O49426462   0.919   0.198   1.177 -0.2119 -0.3909  0.4751
   25MOL   C49526463   1.059   0.413   1.161  0.1040  0.2400 -0.0067
   25MOL   C49626464   1.172   0.343   1.210 -1.0438  0.2631 -0.7329
   25MOL   C49726465   1.303   0.401   1.209 -0.0095 -0.3670 -0.6707
   25MOL   C49826466   1.324   0.528   1.147 -0.6596  0.3359 -0.6375
   25MOL   O49926467   1.445   0.594   1.153  0.5805  0.3788  0.5038
   25MOL   C50026468   1.552   0.538   1.088 -0.2456  0.3418 -0.2736
   25MOL   C50126469   1.665   0.488   1.154  0.5599 -0.4581 -0.5300
   25MOL   C50226470   1.767   0.423   1.086  0.0642  0.2610  0.0556
   25MOL   C50326471   1.752   0.395   0.950  0.3715  0.1542 -0.9838
   25MOL   C50426472   1.867   0.333   0.875  0.3137 -0.6680  0.3756
   25MOL   C50526473   1.937   0.446   0.797  0.0535 -0.4523  0.1566
   25MOL   C50626474   1.988   0.281   0.960  0.1269  0.5472  0.3410
   25MOL   C50726475   1.823   0.213   0.788  0.1800 -0.1260 -0.0791
   25MOL   C50826476   1.840   0.207   0.648  0.9029 -0.4193 -0.4666
   25MOL   C50926477   1.800   0.094   0.578  0.4473 -0.4761 -0.5415
   25MOL   C51026478   1.739   8.233   0.640  0.0033 -0.3714  0.9430
   25MOL   O51126479   1.713   8.117   0.569 -0.0287 -0.0427  0.0330
   25MOL   C51226480   1.727   8.240   0.778  0.7025  0.6805 -0.3241
   25MOL   C51326481   1.762   0.101   0.854  0.2734 -0.8762 -0.2754
   25MOL   C51426482   1.636   0.440   0.883 -0.3098 -0.0680  0.1682
   25MOL   C51526483   1.540   0.518   0.950 -0.3920  0.2730 -0.0748
   25MOL   C51626484   1.211   0.599   1.101 -0.4949  0.2579  0.3277
   25MOL   C51726485   1.080   0.542   1.105 -0.5721 -0.6982 -0.2599
   25MOL   C51826486   0.729   0.507   1.323  0.2573  0.1583 -0.4789
   25MOL   C51926487   0.669   0.534   1.445  0.6922 -0.5463  0.1859
   25MOL   H52026488   0.850   0.334   1.652  1.2886  0.7394 -0.0437
   25MOL   H52126489   0.964   0.286   1.434 -0.8632 -1.2792  0.3505
   25MOL   H52226490   1.161   0.246   1.257 -0.1624  0.2668 -0.5152
   25MOL   H52326491   1.383   0.348   1.260 -0.3241  0.8372  1.0949
   25MOL   H52426492   1.681   0.511   1.259  0.2492 -0.8232 -0.3982
   25MOL   H52526493   1.856   0.403   1.143  2.1135  1.8688 -2.4734
   25MOL   H52626494   1.978   0.521   0.865  0.4803  1.4169 -2.1176
   25MOL   H52726495   1.890   0.510   0.722  1.1759  0.1327 -0.0532
   25MOL   H52826496   2.021   0.402   0.745  0.1260  1.9074 -1.8050
   25MOL   H52926497   1.947   0.212   1.034  0.7198 -0.6446 -0.4257
   25MOL   H53026498   2.069   0.234   0.904  0.8078  2.2601 -0.1302
   25MOL   H53126499   2.040   0.360   1.014  0.5156  0.7892 -0.3783
   25MOL   H53226500   1.883   0.281   0.582  0.0299 -0.5402 -1.1820
   25MOL   H53326501   1.807   0.095   0.470  1.4291  1.0573 -0.4611
   25MOL   H53426502   1.687   8.157   0.835  2.9593 -0.6247 -0.5867
   25MOL   H53526503   1.742   0.099   0.960 -0.2628 -0.9788 -0.3734
   25MOL   H53626504   1.640   0.432   0.776  0.2851 -2.1084  0.3332
   25MOL   H53726505   1.458   0.555   0.890  0.1360  1.0798 -0.3070
   25MOL   H53826506   1.230   0.689   1.045  0.2926 -0.3012 -0.3223
   25MOL   H53926507   1.003   0.606   1.064  0.6303  0.6050 -0.5537
   25MOL   H54026508   0.684   0.541   1.231  2.6115  1.1128 -1.3172
   25MOL   H54126509   0.593   0.611   1.443  1.4369  0.1702 -1.0601
   25MOL   C54226510   1.796   8.011   0.588  0.0568  0.1131  0.0410
   25MOL   C54326511   1.936   8.016   0.590 -0.1136 -0.3196  0.2003
   25MOL   C54426512   2.013   7.898   0.598 -0.0075  0.6495 -0.3367
   25MOL   C54526513   1.951   7.771   0.611 -0.4048 -0.2698 -0.5887
   25MOL   S54626514   2.051   7.626   0.639  0.6102 -0.0299 -0.3896
   25MOL   O54726515   1.972   7.514   0.594  0.0413 -0.2575  0.2348
   25MOL   O54826516   2.093   7.631   0.777  0.3198 -0.3253  0.2049
   25MOL   C54926517   2.189   7.631   0.533  0.1813  0.3510 -0.0725
   25MOL   C55026518   2.303   7.696   0.584  0.1668  0.1309  0.1787
   25MOL   C55126519   2.410   7.720   0.502 -0.0855 -0.7253  0.2071
   25MOL   C55226520   2.408   7.672   0.370  0.7373 -0.0579  0.1440
   25MOL   O55326521   2.511   7.699   0.284 -0.7487 -0.0367  0.1927
   25MOL   C55426522   2.634   7.737   0.336 -0.0781 -0.9271 -0.2830
   25MOL   C55526523   2.664   7.874   0.361 -0.1698  0.6034 -0.0712
   25MOL   C55626524   2.777   7.902   0.433  0.2149 -0.8148  0.1551
   25MOL   C55726525   2.869   7.809   0.478 -0.2264 -0.2054 -0.9351
   25MOL   C55826526   2.976   7.840   0.581 -0.4769 -0.0169 -0.2807
   25MOL   C55926527   3.105   7.887   0.499  1.8074  0.0444  0.0631
   25MOL   C56026528   2.945   7.961   0.671 -0.2643 -0.8720 -0.6167
   25MOL   C56126529   3.014   7.717   0.669  0.5713  0.2377 -0.3298
   25MOL   C56226530   3.138   7.650   0.667 -0.4416  0.5528  0.3519
   25MOL   C56326531   3.161   7.546   0.757  0.2582  0.2918 -0.2671
   25MOL   C56426532   3.069   7.514   0.857 -0.2745 -0.0996 -0.2875
   25MOL   O56526533   3.109   7.437   0.962  0.4799 -0.0016 -0.7431
   25MOL   C56626534   2.937   7.569   0.860  0.4441 -0.2453 -0.4172
   25MOL   C56726535   2.912   7.663   0.753 -0.0679  0.1161  0.7745
   25MOL   C56826536   2.851   7.677   0.432 -0.6422  0.2878  0.7357
   25MOL   C56926537   2.733   7.641   0.362 -1.0399 -0.1952 -0.1627
   25MOL   C57026538   2.293   7.608   0.320 -0.1335 -0.0782 -0.5491
   25MOL   C57126539   2.185   7.577   0.401  0.2858  0.2449  0.2518
   25MOL   C57226540   1.812   7.773   0.632 -0.4132  0.5501  0.1518
   25MOL   C57326541   1.731   7.888   0.621 -0.2498 -0.1272 -0.6474
   25MOL   H57426542   1.974   8.114   0.567 -1.1918  0.3304  1.1899
   25MOL   H57526543   2.121   7.905   0.590  0.0156  2.7681  1.4161
   25MOL   H57626544   2.317   7.723   0.687  1.0092  0.0142  0.1063
   25MOL   H57726545   2.494   7.769   0.548 -0.8051  2.1622 -1.4336
   25MOL   H57826546   2.600   7.957   0.335 -0.9717 -0.5946 -1.9787
   25MOL   H57926547   2.797   8.003   0.464  1.6655 -0.4062 -1.9779
   25MOL   H58026548   3.077   7.969   0.434  1.3179 -0.1019  0.0884
   25MOL   H58126549   3.141   7.805   0.437  1.6958  1.3145 -1.6985
   25MOL   H58226550   3.180   7.920   0.572  2.0085 -0.3449  0.0332
   25MOL   H58326551   2.923   8.059   0.627 -2.5012 -1.1025 -0.1027
   25MOL   H58426552   2.867   7.942   0.745 -0.1200  0.6630 -0.0523
   25MOL   H58526553   3.035   7.978   0.729 -1.5528 -2.9040  2.0976
   25MOL   H58626554   3.215   7.666   0.593  0.2513  0.0215  0.9434
   25MOL   H58726555   3.259   7.501   0.756  0.1711  0.1062 -0.7304
   25MOL   H58826556   2.873   7.551   0.945  0.9885 -0.6833 -0.0895
   25MOL   H58926557   2.815   7.711   0.746 -0.0414  0.0153 -0.3658
   25MOL   H59026558   2.919   7.595   0.451 -0.5104  0.6787  1.9862
   25MOL   H59126559   2.713   7.539   0.336 -1.5225 -0.3163  0.6597
   25MOL   H59226560   2.306   7.569   0.220 -1.0694 -0.6064 -0.4693
   25MOL   H59326561   2.107   7.517   0.357  0.6255 -1.5220  2.0221
   25MOL   H59426562   1.769   7.676   0.652  0.4465 -0.0796 -0.9789
   25MOL   H59526563   1.624   7.881   0.635 -0.2527  0.5827 -0.3031
   25MOL   C59626564   3.090   7.304   0.954 -0.4548  0.0971  0.2751
   25MOL   C59726565   3.164   7.213   0.875 -0.5346 -0.0309  0.3884
   25MOL   C59826566   3.142   7.074   0.883 -0.4217 -0.5930  0.1036
   25MOL   C59926567   3.051   7.016   0.976 -0.0019  1.0032  0.1328
   25MOL   S60026568   3.056   6.841   0.993 -0.1284  0.3695  0.4991
   25MOL   O60126569   3.024   6.773   0.863  0.3859  0.0203  0.6756
   25MOL   O60226570   2.961   6.813   1.108 -0.6248 -0.0723 -0.3515
   25MOL   C60326571   3.220   6.796   1.044  0.0019 -0.3319 -0.1352
   25MOL   C60426572   3.284   6.683   0.994 -0.0239  0.8556  0.3348
   25MOL   C60526573   3.410   6.640   1.034 -0.7070 -0.3883 -0.2159
   25MOL   C60626574   3.477   6.705   1.136  0.7122  0.1151  0.3831
   25MOL   O60726575   3.593   6.662   1.180 -0.1786  0.7566 -0.6171
   25MOL   C60826576   3.693   6.750   1.210 -0.1866 -0.2713 -0.1478
   25MOL   C60926577   3.733   6.840   1.108  0.4528  0.0885  0.1720
   25MOL   C61026578   3.841   6.925   1.130  0.0340 -0.4985 -0.1547
   25MOL   C61126579   3.915   6.926   1.249 -0.5413 -0.4795  0.6937
   25MOL   C61226580   4.031   7.022   1.271  0.1896 -0.0144 -0.4827
   25MOL   C61326581   4.160   6.939   1.267 -0.4308  0.4110 -0.7139
   25MOL   C61426582   4.040   7.127   1.160 -0.2390 -0.7395  0.7749
   25MOL   C61526583   4.011   7.101   1.400 -0.3911 -0.2998  0.0986
   25MOL   C61626584   3.884   7.165   1.420 -0.5723  0.2028  0.1000
   25MOL   C61726585   3.858   7.235   1.540  0.4647 -1.1543  0.3524
   25MOL   C61826586   3.954   7.235   1.642 -0.3376  0.1660  0.7311
   25MOL   O61926587   3.953   7.318   1.752  0.5270 -0.0381 -0.1116
   25MOL   C62026588   4.081   7.181   1.624 -0.4916  0.2068 -0.5525
   25MOL   C62126589   4.111   7.117   1.500  0.3533 -0.1943  0.4315
   25MOL   C62226590   3.880   6.833   1.348  0.6069  0.4727 -0.2067
   25MOL   C62326591   3.767   6.747   1.330 -0.3556  0.2605  0.2004
   25MOL   C62426592   3.414   6.819   1.192 -0.5142 -0.5071  0.7572
   25MOL   C62526593   3.288   6.869   1.143  0.6641  0.0167  0.2704
   25MOL   C62626594   2.976   7.106   1.054  0.0104 -0.1100  0.6520
   25MOL   C62726595   2.994   7.247   1.041  0.1510  0.0107 -0.5772
   25MOL   H62826596   3.239   7.254   0.810  0.4468 -1.0306  0.8715
   25MOL   H62926597   3.199   7.004   0.824  0.3476 -0.2261  0.4051
   25MOL   H63026598   3.221   6.625   0.928  0.9706  1.2832 -1.0346
   25MOL   H63126599   3.452   6.551   0.990  0.6328 -0.8794  1.9979
   25MOL   H63226600   3.677   6.841   1.016  0.1708  0.4285  0.3440
   25MOL   H63326601   3.870   6.993   1.051 -0.5046 -0.5869 -0.4253
   25MOL   H63426602   4.160   6.887   1.171  1.0659 -1.4975  0.2789
   25MOL   H63526603   4.162   6.852   1.333  1.1127 -0.1449 -1.4606
   25MOL   H63626604   4.249   6.996   1.291  1.0247 -1.5622 -1.2957
   25MOL   H63726605   4.117   7.195   1.197  0.1349 -1.9154  2.2401
   25MOL   H63826606   4.065   7.103   1.057 -1.6657 -1.8177  0.6578
   25MOL   H63926607   3.945   7.179   1.156 -0.3973 -1.0854 -0.0046
   25MOL   H64026608   3.805   7.148   1.348 -0.5898 -1.6533  0.5164
   25MOL   H64126609   3.763   7.277   1.568 -0.7129 -2.7375 -1.1839
   25MOL   H64226610   4.167   7.188   1.689 -0.1030  0.9828 -1.1303
   25MOL   H64326611   4.209   7.078   1.476 -0.8503 -1.4425 -2.6956
   25MOL   H64426612   3.926   6.837   1.446  0.8103 -0.1972 -0.2732
   25MOL   H64526613   3.743   6.673   1.405  1.4611 -0.3730  0.1896
   25MOL   H64626614   3.468   6.879   1.264 -0.0541  1.2513 -0.9991
   25MOL   H64726615   3.245   6.960   1.179  0.9788  1.4586 -2.8120
   25MOL   H64826616   2.910   7.058   1.125  1.9148  0.5012  2.9378
   25MOL   H64926617   2.929   7.308   1.101  2.9628  0.2890  2.2829
   25MOL   C65026618   3.838   7.328   1.828 -0.1186 -0.1948 -0.2290
   25MOL   C65126619   3.744   7.434   1.808  0.4304  0.1520  0.7922
   25MOL   C65226620   3.618   7.420   1.870  0.6975  0.1172 -0.3611
   25MOL   C65326621   3.600   7.321   1.969  0.2773 -0.6328  0.3601
   25MOL   S65426622   3.441   7.319   2.066 -0.0515 -0.1916 -0.5784
   25MOL   O65526623   3.414   7.458   2.106  0.0245  0.4721 -0.2773
   25MOL   O65626624   3.451   7.216   2.171  0.5274  0.0114 -0.1606
   25MOL   C65726625   3.308   7.272   1.956 -0.3937  0.4386 -0.6356
   25MOL   C65826626   3.322   7.182   1.850 -0.6906 -0.2992  0.3077
   25MOL   C65926627   3.216   7.152   1.768  0.5370 -0.6908 -0.2304
   25MOL   C66026628   3.093   7.226   1.776  0.5830  0.3287  0.4445
   25MOL   O66126629   2.991   7.191   1.694  0.8570 -0.3079  0.1695
   25MOL   C66226630   2.928   7.286   1.615 -0.2526 -0.4577 -0.3476
   25MOL   C66326631   2.964   7.312   1.478 -0.7514  0.0780  0.2910
   25MOL   C66426632   2.901   7.408   1.400  0.7786 -0.2914 -0.2275
   25MOL   C66526633   2.813   7.499   1.454 -0.4537  0.4822 -0.4501
   25MOL   C66626634   2.752   7.608   1.363  0.3322 -0.0518  0.7297
   25MOL   C66726635   2.858   7.677   1.280  0.1982  0.1695  0.2205
   25MOL   C66826636   2.666   7.554   1.250  0.3904  0.1336  0.8794
   25MOL   C66926637   2.682   7.722   1.438 -0.5114 -0.6250  0.4079
   25MOL   C67026638   2.572   7.787   1.377  0.4014  0.0164  0.4290
   25MOL   C67126639   2.497   7.892   1.439  0.0873  0.3691 -0.2915
   25MOL   C67226640   2.545   7.938   1.562  0.5419 -0.0222  0.8924
   25MOL   O67326641   2.470   8.034   1.634  0.4864 -0.1398  0.0715
   25MOL   C67426642   2.654   7.872   1.621  0.0598  0.1679 -0.5898
   25MOL   C67526643   2.723   7.767   1.566 -0.1972  0.1766 -0.1979
   25MOL   C67626644   2.771   7.475   1.586 -0.3739 -0.3770  0.0329
   25MOL   C67726645   2.829   7.378   1.667  0.1500  0.0717 -0.3759
   25MOL   C67826646   3.069   7.310   1.889 -0.0442 -0.1789 -0.6483
   25MOL   C67926647   3.179   7.331   1.981  0.2169  0.0133  0.4787
   25MOL   C68026648   3.698   7.220   1.999  0.0268 -0.4895  0.6381
   25MOL   C68126649   3.820   7.223   1.921  0.4608  0.3822 -0.3435
   25MOL   H68226650   3.765   7.522   1.749  1.0654 -2.1957 -2.6019
   25MOL   H68326651   3.542   7.496   1.859 -0.8551 -1.5812 -1.5411
   25MOL   H68426652   3.419   7.134   1.846 -1.4838 -1.8105 -1.1331
   25MOL   H68526653   3.229   7.082   1.688  0.7585 -1.7117  0.6941
   25MOL   H68626654   3.042   7.256   1.430 -1.2078 -0.0820 -0.2641
   25MOL   H68726655   2.930   7.428   1.298  0.3577 -1.5121 -0.5908
   25MOL   H68826656   2.911   7.619   1.205 -0.2887  1.5714 -1.2424
   25MOL   H68926657   2.931   7.731   1.341  1.5269  0.4920 -1.6145
   25MOL   H69026658   2.810   7.763   1.234  1.9935 -0.5315 -3.0933
   25MOL   H69126659   2.703   7.466   1.198 -0.6060 -1.5165  2.8957
   25MOL   H69226660   2.567   7.533   1.291 -0.0086 -0.8768 -0.5848
   25MOL   H69326661   2.649   7.630   1.173 -2.1435 -0.6309  0.6180
   25MOL   H69426662   2.536   7.761   1.278 -0.3786 -2.9781  1.4439
   25MOL   H69526663   2.413   7.945   1.396 -1.4109 -0.3464  1.6640
   25MOL   H69626664   2.682   7.900   1.722 -2.9193 -2.2045  0.9970
   25MOL   H69726665   2.816   7.728   1.607 -1.5809 -1.2694  1.6788
   25MOL   H69826666   2.688   7.524   1.634 -0.3327 -1.6828  1.4764
   25MOL   H69926667   2.792   7.373   1.768  1.8492  2.4111  0.4056
   25MOL   H70026668   2.972   7.348   1.916 -1.2778 -2.3517 -1.9000
   25MOL   H70126669   3.169   7.389   2.071  0.2116 -0.7123  0.9494
   25MOL   H70226670   3.687   7.130   2.057  3.5724 -0.7362  1.0198
   25MOL   H70326671   3.899   7.150   1.926 -1.1716 -1.4518 -0.7280
   25MOL   C70426672   2.542   8.135   1.689 -0.8275  0.5078  0.3124
   25MOL   C70526673   2.555   8.145   1.826 -0.1657 -0.5108 -0.1659
   25MOL   C70626674   2.639   8.249   1.882  0.2127  0.4606 -0.2984
   25MOL   C70726675   2.707   0.082   1.798 -0.1854 -0.4510 -0.7856
   25MOL   S70826676   2.825   0.209   1.877  0.1803 -0.3132  0.0269
   25MOL   O70926677   2.759   0.277   1.983  0.2373 -0.0683  0.3285
   25MOL   O71026678   2.886   0.290   1.773  0.5630 -0.0319 -0.4467
   25MOL   C71126679   2.960   0.111   1.960 -0.0542  0.6231 -0.7538
   25MOL   C71226680   2.945   0.056   2.088  0.6380 -0.0651  0.1689
   25MOL   C71326681   3.051   0.001   2.160  1.0158 -0.5464 -0.2522
   25MOL   C71426682   3.167   8.222   2.089 -0.1639 -0.6584 -0.3092
   25MOL   O71526683   3.284   8.183   2.163 -0.4376 -0.5407  0.0996
   25MOL   C71626684   3.280   8.057   2.223  0.6182  0.7785  0.0597
   25MOL   C71726685   3.317   8.040   2.355  0.3359 -0.6962  0.6869
   25MOL   C71826686   3.308   7.917   2.424 -0.2872  0.2374 -0.3888
   25MOL   C71926687   3.263   7.805   2.355  0.3326  0.2732  0.2580
   25MOL   C72026688   3.267   7.667   2.424  0.4347  0.2002  0.4850
   25MOL   C72126689   3.187   7.547   2.343  0.0669 -0.4582  0.0507
   25MOL   C72226690   3.415   7.628   2.410 -0.8956  0.1370 -1.0906
   25MOL   C72326691   3.208   7.681   2.561  0.3060  0.9700 -0.4841
   25MOL   C72426692   3.289   7.652   2.670  0.4336 -0.9338 -0.7020
   25MOL   C72526693   3.231   7.654   2.799 -0.1722 -0.3438 -0.2492
   25MOL   C72626694   3.098   7.692   2.824 -0.8448 -0.3350  0.0095
   25MOL   O72726695   3.049   7.693   2.956 -0.7374 -0.6540 -0.1005
   25MOL   C72826696   3.027   7.742   2.711 -0.0637  0.6192  0.2557
   25MOL   C72926697   3.079   7.730   2.585 -0.3204 -0.0837  0.1484
   25MOL   C73026698   3.220   7.820   2.220 -0.0625  0.3692 -0.1776
   25MOL   C73126699   3.223   7.944   2.156  0.0665  0.3024  0.2041
   25MOL   C73226700   3.182   0.012   1.954 -0.2837  0.3665 -0.6205
   25MOL   C73326701   3.082   0.085   1.890  0.0642  0.0504  0.0068
   25MOL   C73426702   2.694   0.073   1.660 -0.1374  0.3170  0.2449
   25MOL   C73526703   2.608   8.230   1.608  0.5960  0.4202 -0.0309
   25MOL   H73626704   2.497   8.086   1.896  1.4049 -0.4218  1.2529
   25MOL   H73726705   2.647   0.013   1.989 -0.6273 -1.1103  0.0335
   25MOL   H73826706   2.853   0.063   2.143 -0.5549 -1.1558 -1.6466
   25MOL   H73926707   3.035   8.237   2.265  1.7778 -1.1498 -0.2323
   25MOL   H74026708   3.345   8.132   2.405 -0.8045  0.4559 -0.7449
   25MOL   H74126709   3.347   7.904   2.524  0.2327 -1.7167 -0.8158
   25MOL   H74226710   3.081   7.573   2.338  0.3801  1.0295  0.6469
   25MOL   H74326711   3.203   7.446   2.380  5.6983 -0.3611 -1.7113
   25MOL   H74426712   3.227   7.555   2.242 -0.1154  0.3834  0.0372
   25MOL   H74526713   3.483   7.709   2.440 -0.3623 -1.0060  0.9003
   25MOL   H74626714   3.441   7.543   2.473  1.3549  1.1979 -0.5459
   25MOL   H74726715   3.439   7.593   2.310 -2.5540 -1.6556 -0.8821
   25MOL   H74826716   3.392   7.621   2.657  1.2107  0.4056  1.8757
   25MOL   H74926717   3.294   7.624   2.881 -0.0952 -0.3940 -0.3272
   25MOL   H75026718   2.926   7.775   2.727 -0.5989 -1.5251  1.5485
   25MOL   H75126719   3.023   7.773   2.503 -2.4187 -1.1536  0.9892
   25MOL   H75226720   3.191   7.731   2.165 -1.3164  0.2898  0.5946
   25MOL   H75326721   3.182   7.948   2.056 -0.4355  3.7867  0.4817
   25MOL   H75426722   3.279   0.014   1.907  0.6832 -1.3712  1.2264
   25MOL   H75526723   3.088   0.115   1.787 -0.9662 -2.1001 -0.7156
   25MOL   H75626724   2.730   0.141   1.585  0.4833 -0.0934  0.1681
   25MOL   H75726725   2.583   8.210   1.505 -2.4197 -1.1971  0.9540
   25MOL   C75826726   2.914   7.723   2.967  0.3617 -0.2950 -0.4746
   25MOL   C75926727   2.813   7.622   2.931  0.4185 -0.7991  0.5726
   25MOL   C76026728   2.678   7.658   2.950  0.3700 -0.5306  0.2460
   25MOL   C76126729   2.639   7.780   3.005  0.9803 -0.3148 -0.2942
   25MOL   S76226730   2.468   7.823   3.023 -0.2425 -0.0548 -0.0446
   25MOL   O76326731   2.461   7.923   3.136 -0.2407 -0.1568  0.0610
   25MOL   O76426732   2.382   7.701   3.027 -0.2050 -1.3070 -0.1065
   25MOL   C76526733   2.430   7.920   2.871  0.1095  0.0218  0.3434
   25MOL   C76626734   2.383   8.054   2.882 -0.3849 -0.0453 -0.1771
   25MOL   C76726735   2.369   8.123   2.764  0.0981 -0.0168  0.0788
   25MOL   C76826736   2.379   8.069   2.638 -0.1199 -0.1761 -0.5226
   25MOL   O76926737   2.367   8.148   2.529 -0.2204  0.0729  0.4742
   25MOL   C77026738   2.260   8.235   2.520  0.2926 -0.1899 -0.1221
   25MOL   C77126739   2.283   0.117   2.489 -0.1678  0.1280 -0.0610
   25MOL   C77226740   2.181   0.214   2.497 -0.0379  0.2938  0.6797
   25MOL   C77326741   2.056   0.173   2.536 -0.4184 -0.1721  0.4833
   25MOL   C77426742   1.946   0.282   2.547 -0.5942  0.3007 -0.1251
   25MOL   C77526743   1.861   0.262   2.679  0.3502 -0.1641 -0.4464
   25MOL   C77626744   2.001   0.422   2.569  0.2683  0.4894  0.3208
   25MOL   C77726745   1.855   0.255   2.427  0.3176  0.6932 -0.0687
   25MOL   C77826746   1.724   0.209   2.433  0.4638  0.5126  0.4080
   25MOL   C77926747   1.644   0.196   2.312  1.1472  0.1805  0.0167
   25MOL   C78026748   1.708   0.196   2.187  0.3849  0.9754 -0.1660
   25MOL   O78126749   1.643   0.147   2.072  0.4174 -0.0047  0.0959
   25MOL   C78226750   1.842   0.227   2.182  0.0015 -0.1722  0.0967
   25MOL   C78326751   1.914   0.260   2.297 -0.0811  0.2929  0.3823
   25MOL   C78426752   2.026   0.034   2.566 -0.8616  1.5711 -0.6649
   25MOL   C78526753   2.127   8.188   2.548 -0.8835  0.1428 -0.4769
   25MOL   C78626754   2.424   7.936   2.626  0.2687 -0.4714  1.0356
   25MOL   C78726755   2.450   7.864   2.746 -0.0150  0.6966  0.3800
   25MOL   C78826756   2.731   7.876   3.046 -0.1761 -0.8674 -0.4627
   25MOL   C78926757   2.867   7.845   3.021 -0.0011 -0.5136  0.6449
   25MOL   H79026758   2.832   7.524   2.892  0.8148 -0.9337  1.1008
   25MOL   H79126759   2.610   7.584   2.912 -2.0006  2.0475 -0.7349
   25MOL   H79226760   2.380   8.104   2.978 -1.8431  0.0852 -0.2728
   25MOL   H79326761   2.344   8.227   2.779  1.4676  0.5562 -1.5320
   25MOL   H79426762   2.379   0.143   2.448  0.1710 -0.0276  0.6129
   25MOL   H79526763   2.201   0.312   2.455 -1.5169  0.7317  0.9452
   25MOL   H79626764   1.920   0.280   2.769 -1.1143  0.5953  0.3789
   25MOL   H79726765   1.809   0.167   2.685 -0.7946  0.4879  0.1727
   25MOL   H79826766   1.787   0.343   2.682 -0.7014 -1.1685  0.8559
   25MOL   H79926767   2.042   0.467   2.479  0.8356  1.0384  0.8383
   25MOL   H80026768   1.925   0.488   2.611  0.6984  0.7935  0.6363
   25MOL   H80126769   2.077   0.427   2.648  1.3181  3.0106 -0.7826
   25MOL   H80226770   1.684   0.189   2.532 -0.0425 -2.0836 -0.2876
   25MOL   H80326771   1.542   0.168   2.330  1.1051  1.1241  1.2837
   25MOL   H80426772   1.893   0.247   2.088  1.5651  1.4100  1.2532
   25MOL   H80526773   2.017   0.287   2.280 -0.2625 -0.2114 -1.7189
   25MOL   H80626774   1.924   0.003   2.581  0.7649 -3.1683  1.8041
   25MOL   H80726775   2.104   8.084   2.561 -0.3117 -0.4290 -3.8038
   25MOL   H80826776   2.417   7.887   2.530 -1.7449 -0.1216  0.9802
   25MOL   H80926777   2.485   7.762   2.739  1.0926  1.2378 -2.1360
   25MOL   H81026778   2.699   7.968   3.091  2.8604  1.6703 -3.2439
   25MOL   H81126779   2.945   7.916   3.044 -0.9230  0.5710  0.4817
   25MOL   C81226780   1.638   0.242   1.971 -0.7777 -0.3609  0.2582
   25MOL   C81326781   1.728   0.224   1.866  0.6409 -0.0685 -0.2697
   25MOL   C81426782   1.744   0.314   1.762  0.3041  0.1007 -0.5644
   25MOL   C81526783   1.658   0.426   1.756 -0.3127  0.4833  0.1934
   25MOL   S81626784   1.681   0.537   1.629 -0.3043 -0.4822  0.0048
   25MOL   O81726785   1.544   0.574   1.591  0.3326  0.6123  0.5634
   25MOL   O81826786   1.762   0.462   1.531 -0.3653 -0.2973 -0.3588
   25MOL   C81926787   1.758   0.681   1.701  0.3041 -0.0846  0.9147
   25MOL   C82026788   1.686   0.795   1.739  0.4609 -0.2029  0.5013
   25MOL   C82126789   1.751   0.896   1.804 -0.3355 -0.4785 -0.3047
   25MOL   C82226790   1.886   0.890   1.833  0.1265  0.1146  0.4145
   25MOL   O82326791   1.949   0.986   1.902 -0.7495 -0.0379  0.4159
   25MOL   C82426792   1.900   1.035   2.017 -0.6398  0.1295 -0.3585
   25MOL   C82526793   1.818   1.151   2.016  0.0077 -0.3001 -0.4008
   25MOL   C82626794   1.763   1.206   2.132  0.3147 -0.3486  0.2047
   25MOL   C82726795   1.791   1.144   2.254 -0.1130 -0.2360 -0.1558
   25MOL   C82826796   1.748   1.208   2.390 -0.0026  0.8729  0.8077
   25MOL   C82926797   1.723   1.099   2.500  0.2121 -0.4399 -0.5091
   25MOL   C83026798   1.863   1.299   2.435 -0.2238  0.6896  0.0487
   25MOL   C83126799   1.614   1.280   2.375  0.3347  0.3364 -0.0370
   25MOL   C83226800   1.508   1.218   2.307 -1.0250  0.4132  0.0336
   25MOL   C83326801   1.379   1.267   2.299 -0.5154  0.2373 -0.1519
   25MOL   C83426802   1.355   1.397   2.349 -0.4144 -0.5358  0.7757
   25MOL   O83526803   1.230   1.450   2.341 -0.1676  0.1659 -0.4637
   25MOL   C83626804   1.461   1.468   2.416  1.1719 -1.2986  0.1602
   25MOL   C83726805   1.588   1.407   2.433  0.6266 -0.6360  0.0768
   25MOL   C83826806   1.875   1.029   2.257 -0.5569  0.2724 -0.0651
   25MOL   C83926807   1.927   0.977   2.140 -0.5782 -0.2605 -0.1056
   25MOL   C84026808   1.962   0.782   1.789 -0.7588  0.1562  0.4746
   25MOL   C84126809   1.895   0.676   1.726  0.3830 -1.0901  0.4419
   25MOL   C84226810   1.553   0.438   1.854  0.1336  0.2919 -0.0749
   25MOL   C84326811   1.544   0.347   1.962 -0.3266  0.3575 -0.0615
   25MOL   H84426812   1.787   0.133   1.869  1.6633  0.5958  0.6051
   25MOL   H84526813   1.825   0.290   1.695 -0.8446 -1.2695 -1.5129
   25MOL   H84626814   1.582   0.799   1.713  0.5739 -2.3296 -0.4227
   25MOL   H84726815   1.693   0.981   1.838  0.9944  0.7370 -0.9884
   25MOL   H84826816   1.795   1.188   1.917 -1.6407 -0.0118  0.0593
   25MOL   H84926817   1.703   1.295   2.124 -0.4020 -0.5929  2.5738
   25MOL   H85026818   1.639   1.033   2.479 -0.1396 -0.4119  0.7478
   25MOL   H85126819   1.687   1.141   2.594 -0.0452  0.2505 -0.9142
   25MOL   H85226820   1.809   1.041   2.535 -0.6074 -1.0542  0.5236
   25MOL   H85326821   1.846   1.339   2.535 -2.4676  0.8833 -0.3746
   25MOL   H85426822   1.954   1.241   2.422 -1.0590 -0.8358  0.9373
   25MOL   H85526823   1.881   1.380   2.364 -1.4165  0.1674 -0.8535
   25MOL   H85626824   1.524   1.116   2.276  2.0356  0.2175  1.9895
   25MOL   H85726825   1.311   1.198   2.252  0.9193 -2.0879  1.0587
   25MOL   H85826826   1.430   1.556   2.470  0.4331 -2.0131  0.9156
   25MOL   H85926827   1.666   1.464   2.482  0.7531  0.0026 -0.8478
   25MOL   H86026828   1.905   0.986   2.352  1.9254  0.8946 -0.5370
   25MOL   H86126829   1.983   0.885   2.136  0.4906  0.4538 -2.3863
   25MOL   H86226830   2.066   0.785   1.818 -0.6728 -0.6953  0.2843
   25MOL   H86326831   1.953   0.588   1.706  2.0933  0.2342 -0.5487
   25MOL   H86426832   1.486   0.522   1.848 -1.5769 -0.7486  3.2041
   25MOL   H86526833   1.478   0.356   2.046  0.7132  0.3893  0.7554
   25MOL   C86626834   1.216   1.566   2.278 -0.2104 -0.6856  0.3636
   25MOL   C86726835   1.278   1.597   2.153  0.6595  0.3990  0.8271
   25MOL   C86826836   1.251   1.716   2.089  0.0119 -0.5062  0.3830
   25MOL   C86926837   1.183   1.821   2.150 -0.6887 -0.2338  0.3125
   25MOL   S87026838   1.165   1.993   2.089 -0.1471 -0.2100  0.0636
   25MOL   O87126839   1.174   2.083   2.202 -0.0420 -0.1558  0.0946
   25MOL   O87226840   1.038   1.997   2.012  0.0233  0.0373  0.4232
   25MOL   C87326841   1.314   2.028   1.991 -0.7301 -0.3354 -1.0708
   25MOL   C87426842   1.317   2.066   1.859 -0.0295  0.1965  0.0521
   25MOL   C87526843   1.433   2.103   1.793 -0.2962 -0.4449 -0.3674
   25MOL   C87626844   1.555   2.105   1.867  0.0789 -0.3575 -0.2467
   25MOL   O87726845   1.667   2.173   1.820  0.5265 -0.2158  0.0473
   25MOL   C87826846   1.667   2.310   1.835 -0.5118  0.0104  0.6647
   25MOL   C87926847   1.613   2.378   1.949  0.0069  0.1126 -0.5716
   25MOL   C88026848   1.622   2.516   1.955  1.0076 -0.7065 -0.2721
   25MOL   C88126849   1.682   2.593   1.852 -0.5662  1.0864  0.0320
   25MOL   C88226850   1.690   2.746   1.865  0.2390  0.3224  0.2645
   25MOL   C88326851   1.645   2.806   1.995 -0.1905 -0.0028  0.8460
   25MOL   C88426852   1.842   2.782   1.858  0.2595  1.0960 -0.3175
   25MOL   C88526853   1.607   2.804   1.746 -0.1078 -0.0107 -0.3131
   25MOL   C88626854   1.631   2.940   1.716  0.2833 -0.2016  0.1943
   25MOL   C88726855   1.563   3.007   1.609 -0.1050  0.6634 -0.3277
   25MOL   C88826856   1.472   2.937   1.529  0.3364 -0.1727  0.2631
   25MOL   O88926857   1.417   3.000   1.417 -0.4935 -0.5411 -0.0641
   25MOL   C89026858   1.444   2.800   1.567  0.0570 -0.1286 -0.1351
   25MOL   C89126859   1.507   2.735   1.676 -0.6483 -0.3629 -0.2021
   25MOL   C89226860   1.737   2.524   1.737 -0.0420  0.6671 -0.0015
   25MOL   C89326861   1.729   2.382   1.731 -0.1762 -0.1231  0.2843
   25MOL   C89426862   1.555   2.064   1.999  0.2023 -0.3522 -0.1573
   25MOL   C89526863   1.435   2.019   2.064 -1.3606  0.6710 -0.3617
   25MOL   C89626864   1.124   1.796   2.281 -1.0122 -0.5351  0.0855
   25MOL   C89726865   1.140   1.671   2.336  0.0028  0.9224 -0.0564
   25MOL   H89826866   1.342   1.524   2.107 -1.4454 -0.8098 -0.2713
   25MOL   H89926867   1.300   1.757   2.002  0.1642  0.1549  0.7703
   25MOL   H90026868   1.221   2.074   1.810  0.7423  0.5768 -1.4276
   25MOL   H90126869   1.430   2.142   1.693 -0.4673 -0.1019 -0.2280
   25MOL   H90226870   1.570   2.320   2.029 -1.8429 -2.0351 -3.0482
   25MOL   H90326871   1.582   2.563   2.044 -2.1158 -0.7381 -1.5876
   25MOL   H90426872   1.667   2.911   1.976  1.7121 -0.5276 -0.0530
   25MOL   H90526873   1.703   2.788   2.085  1.2209  1.8436  0.3430
   25MOL   H90626874   1.540   2.808   2.024 -0.6254  2.1474 -0.7256
   25MOL   H90726875   1.863   2.887   1.879  1.2222  1.2562 -1.9456
   25MOL   H90826876   1.891   2.723   1.935  0.2418  0.0240 -1.1079
   25MOL   H90926877   1.888   2.750   1.764 -0.9598 -0.0650 -0.5239
   25MOL   H91026878   1.708   3.001   1.759  0.3320  0.9976 -1.5140
   25MOL   H91126879   1.580   3.112   1.593  1.9916  0.5519  0.9669
   25MOL   H91226880   1.364   2.741   1.525  0.2808 -1.3430  1.1261
   25MOL   H91326881   1.488   2.630   1.691  2.2214 -0.8039  0.7372
   25MOL   H91426882   1.786   2.568   1.651 -0.1875  1.3067  0.2341
   25MOL   H91526883   1.758   2.320   1.647  1.5415  2.0209 -0.7660
   25MOL   H91626884   1.651   2.072   2.048 -0.2033  0.8710  0.4428
   25MOL   H91726885   1.431   1.996   2.170 -0.5115  0.6846 -0.3276
   25MOL   H91826886   1.069   1.867   2.340 -2.7448 -1.8803  0.1397
   25MOL   H91926887   1.100   1.655   2.435  1.1230  1.2120  0.4533
   25MOL   C92026888   1.505   3.008   1.305  0.1502 -0.8601  0.0811
   25MOL   C92126889   1.610   2.909   1.278 -0.2058  0.2334 -0.1991
   25MOL   C92226890   1.688   2.924   1.162 -0.7462  0.1360 -0.3233
   25MOL   C92326891   1.663   3.029   1.070 -0.0319 -0.3495  0.2473
   25MOL   S92426892   1.763   3.053   0.926  0.2135 -0.3456 -0.1070
   25MOL   O92526893   1.711   3.168   0.856 -0.4257 -0.2034  0.1739
   25MOL   O92626894   1.766   2.921   0.863 -0.2845 -0.2512  0.0171
   25MOL   C92726895   1.936   3.086   0.976  0.3068 -0.1310  0.2576
   25MOL   C92826896   2.008   3.188   0.914  0.0278  0.2033 -1.0084
   25MOL   C92926897   2.144   3.208   0.937 -0.4472  0.3796 -0.5286
   25MOL   C93026898   2.208   3.128   1.030  0.3804  0.1454 -0.0252
   25MOL   O93126899   2.345   3.141   1.049  0.2516  0.5088  0.0293
   25MOL   C93226900   2.429   3.115   0.946 -0.3577 -0.3343  0.6215
   25MOL   C93326901   2.541   3.204   0.923  0.0983  0.6343 -0.0913
   25MOL   C93426902   2.627   3.179   0.815 -0.1233  0.0205 -0.0352
   25MOL   C93526903   2.605   3.079   0.719 -0.4099 -0.3040  0.5410
   25MOL   C93626904   2.697   3.061   0.599  0.3670 -0.4126  0.0249
   25MOL   C93726905   2.670   2.923   0.524 -0.6912 -0.1320 -0.1110
   25MOL   C93826906   2.668   3.177   0.503 -0.4189 -0.3984 -0.7961
   25MOL   C93926907   2.842   3.052   0.652  0.4664 -0.0610  0.0096
   25MOL   C94026908   2.938   3.148   0.629  0.7945  0.0616  0.3430
   25MOL   C94126909   3.059   3.151   0.700  0.2409 -0.3419  0.1737
   25MOL   C94226910   3.097   3.047   0.790 -0.3949  0.7066  0.6816
   25MOL   O94326911   3.226   3.044   0.851  0.4086 -1.0187 -0.2963
   25MOL   C94426912   2.996   2.957   0.810 -0.4785  0.3261 -0.5295
   25MOL   C94526913   2.872   2.951   0.747 -0.1299  0.7024  0.0947
   25MOL   C94626914   2.499   2.990   0.746 -0.0519  0.3332  0.2887
   25MOL   C94726915   2.410   3.001   0.861 -0.2680 -0.0281 -0.3117
   25MOL   C94826916   2.141   3.032   1.102 -0.3738  0.0945  0.3316
   25MOL   C94926917   2.007   3.013   1.070  0.2205 -0.0933  0.5580
   25MOL   C95026918   1.564   3.126   1.098 -0.5514  0.2774 -0.0807
   25MOL   C95126919   1.483   3.118   1.218 -0.2931  0.3162  0.2004
   25MOL   H95226920   1.624   2.833   1.353 -0.8230 -1.9948 -2.2779
   25MOL   H95326921   1.769   2.852   1.159  0.2698  1.1329  1.5066
   25MOL   H95426922   1.962   3.254   0.842  0.7549  2.4416  0.5317
   25MOL   H95526923   2.203   3.279   0.881  0.7968 -0.7672 -0.7190
   25MOL   H95626924   2.561   3.280   0.998 -1.1298 -1.0540  1.9809
   25MOL   H95726925   2.708   3.247   0.794 -0.0130  0.0165  0.3830
   25MOL   H95826926   2.738   2.921   0.439 -1.3062 -1.4880 -0.5902
   25MOL   H95926927   2.567   2.913   0.489 -1.6095  0.4652  2.3189
   25MOL   H96026928   2.687   2.835   0.586 -2.8641 -0.4416  0.0953
   25MOL   H96126929   2.732   3.157   0.417 -0.8152 -2.8967 -0.5463
   25MOL   H96226930   2.564   3.170   0.473 -0.9843 -0.8323  1.1920
   25MOL   H96326931   2.698   3.275   0.541  1.0785 -1.4022  0.7119
   25MOL   H96426932   2.929   3.231   0.560 -0.5516 -2.3833 -2.4833
   25MOL   H96526933   3.129   3.231   0.683  1.0305 -1.0997 -0.1898
   25MOL   H96626934   3.017   2.878   0.881  0.3236 -0.6742 -1.8556
   25MOL   H96726935   2.810   2.867   0.776  0.7126  0.6489  1.7972
   25MOL   H96826936   2.485   2.903   0.684  1.3551  0.4736 -0.2410
   25MOL   H96926937   2.339   2.921   0.878 -0.6721  0.2896 -0.5105
   25MOL   H97026938   2.196   2.965   1.166  2.0780  0.7953 -0.9775
   25MOL   H97126939   1.956   2.931   1.119 -2.0159  0.8314 -0.1191
   25MOL   H97226940   1.543   3.206   1.029  0.9194  0.8303  0.0988
   25MOL   H97326941   1.402   3.187   1.235 -1.1157 -0.3115 -1.0524
   25MOL   C97426942   3.322   3.003   0.765  0.1060 -0.5828 -0.6227
   25MOL   C97526943   3.409   3.101   0.714 -0.3261 -0.1126  0.2038
   25MOL   C97626944   3.502   3.067   0.609  0.9765 -0.2241  0.0747
   25MOL   C97726945   3.518   2.934   0.568 -0.2098  0.0933 -0.0631
   25MOL   S97826946   3.640   2.901   0.441  0.0331 -0.2077 -0.1756
   25MOL   O97926947   3.602   2.999   0.334 -0.4069 -0.3083 -0.1615
   25MOL   O98026948   3.659   2.759   0.413  0.1899  0.0552 -0.1168
   25MOL   C98126949   3.791   2.962   0.511  0.2965 -0.1305  0.2566
   25MOL   C98226950   3.890   3.018   0.428  0.5918 -0.5379  0.9148
   25MOL   C98326951   4.012   3.069   0.483 -0.2015  0.3970 -0.2728
   25MOL   C98426952   4.043   3.028   0.615  1.0191 -0.0042 -0.0175
   25MOL   O98526953   4.165   3.052   0.667 -0.1325 -0.0443 -0.2207
   25MOL   C98626954   4.277   2.977   0.632 -0.3106  0.2592  0.1530
   25MOL   C98726955   4.358   2.915   0.733  1.1541  0.0117 -0.8311
   25MOL   C98826956   4.474   2.845   0.693 -0.3213  0.8051  0.2893
   25MOL   C98926957   4.510   2.831   0.555 -0.6428 -0.2557  0.2116
   25MOL   C99026958   4.641   2.760   0.511  0.3613 -0.4178 -0.1551
   25MOL   C99126959   4.724   2.716   0.633  0.5677  0.1005 -0.1052
   25MOL   C99226960   4.608   2.632   0.428 -0.2522  0.4999  0.1831
   25MOL   C99326961   4.724   2.862   0.431  0.7620  0.3640 -0.3298
   25MOL   C99426962   4.785   2.971   0.492 -0.0298  0.4476 -0.3626
   25MOL   C99526963   4.874   3.057   0.424  0.1234 -0.1163  0.4170
   25MOL   C99626964   4.889   3.041   0.286 -0.0898 -0.3696  0.2050
   25MOL   O99726965   4.957   3.137   0.209  0.0934  0.2392 -0.4100
   25MOL   C99826966   4.827   2.927   0.222 -0.4003 -0.3051  1.3207
   25MOL   C99926967   4.746   2.840   0.295  0.0586 -0.3892  0.4912
   25MOL     C126968   4.426   2.890   0.460  1.0047  0.2465  0.6491
   25MOL     C226969   4.312   2.966   0.497  0.0516  0.8401 -0.2118
   25MOL     C326970   3.948   2.972   0.698  0.1420  0.0999  0.0678
   25MOL     C426971   3.822   2.940   0.645  0.6681  0.5669  0.1731
   25MOL     C526972   3.433   2.837   0.623 -0.6457  0.5731 -0.1716
   25MOL     C626973   3.336   2.871   0.715  0.1005  0.0422  0.1452
   25MOL     H726974   3.383   3.204   0.733 -2.2768 -0.5899  0.2517
   25MOL     H826975   3.558   3.148   0.565  1.4530  0.4724  1.9084
   25MOL     H926976   3.864   3.015   0.323  1.2789 -0.9488  0.7525
   25MOL    H1026977   4.091   3.110   0.421  1.7975 -0.0899  1.8837
   25MOL    H1126978   4.328   2.928   0.836  0.4305  2.6720 -1.3544
   25MOL    H1226979   4.534   2.806   0.775 -0.7969  0.2463  0.3742
   25MOL    H1326980   4.763   2.807   0.679 -0.6524 -1.1270  3.4879
   25MOL    H1426981   4.810   2.656   0.603 -0.2784 -0.9009 -0.5378
   25MOL    H1526982   4.671   2.655   0.706  0.6479  0.1374 -0.0150
   25MOL    H1626983   4.557   2.551   0.480 -1.0167  0.3548 -0.7841
   25MOL    H1726984   4.548   2.660   0.342 -0.4783  1.9550  0.8005
   25MOL    H1826985   4.690   2.573   0.386  1.6482  2.9725  0.3545
   25MOL    H1926986   4.765   2.996   0.595  2.4240  1.3770 -0.0930
   25MOL    H2026987   4.913   3.139   0.481 -0.4234  0.8420 -0.5710
   25MOL    H2126988   4.833   2.908   0.115 -1.5968  3.1568  0.5619
   25MOL    H2226989   4.693   2.758   0.249 -0.6339  1.6753 -2.4947
   25MOL    H2326990   4.462   2.886   0.359 -2.1220 -0.7967 -0.4929
   25MOL    H2426991   4.256   3.009   0.415  0.3639 -1.6984 -1.8514
   25MOL    H2526992   3.972   2.956   0.802 -0.3015 -0.0307  0.1536
   25MOL    H2626993   3.747   2.897   0.710  2.6923 -4.2758 -0.4847
   25MOL    H2726994   3.450   2.733   0.601  0.9898  0.4512  1.5941
   25MOL    H2826995   3.274   2.794   0.758 -0.2761  1.1800  1.6673
   25MOL    C2926996   4.963   3.121   0.076  0.2906  0.7514 -0.4298
   25MOL    C3026997   5.060   3.039   0.027  0.0198 -0.0804  0.6682
   25MOL    C3126998   5.070   3.023   8.144  0.2691  0.0755  0.1770
   25MOL    C3226999   4.977   3.082   8.051 -0.2610 -0.3436  0.2253
   25MOL    S3327000   4.976   3.026   7.881  0.2142 -0.4420  0.0820
   25MOL    O3427001   4.859   2.935   7.867  0.2374 -0.9142 -0.0132
   25MOL    O3527002   5.108   2.978   7.843 -0.7518 -0.0043  0.0229
   25MOL    C3627003   4.947   3.178   7.780 -0.1398  0.3175  0.0359
   25MOL    C3727004   4.811   3.208   7.753  0.4588  0.5748 -0.3980
   25MOL    C3827005   4.782   3.316   7.663  0.3150  0.1223 -0.5767
   25MOL    C3927006   4.880   3.388   7.597  0.4326  0.1052 -0.0378
   25MOL    O4027007   4.838   3.485   7.504 -0.0766  0.2304 -0.1943
   25MOL    C4127008   4.928   3.552   7.422  0.3296  0.0527  0.6105
   25MOL    C4227009   4.960   3.692   7.443  0.2149  0.4476 -0.3683
   25MOL    C4327010   5.039   3.757   7.340 -0.3885  1.0195 -0.0694
   25MOL    C4427011   5.094   3.679   7.233  0.3186  0.2230  0.6489
   25MOL    C4527012   5.175   3.759   7.132 -0.0692 -0.6673 -0.0907
   25MOL    C4627013   5.073   3.829   7.039  0.1352  1.0343  0.2724
   25MOL    C4727014   5.269   3.863   7.200  0.6282  0.1626  0.5167
   25MOL    C4827015   5.263   3.662   7.054 -0.6447 -0.4279 -0.6594
   25MOL    C4927016   5.363   3.582   7.120 -0.1995 -0.3481  0.9666
   25MOL    C5027017   5.446   3.498   7.043  0.2433  0.0309 -0.5480
   25MOL    C5127018   5.436   3.498   6.900 -0.1440 -0.2273  0.6199
   25MOL    O5227019   5.526   3.430   6.827  0.1441  0.0580  0.6250
   25MOL    C5327020   5.332   3.567   6.836  0.1863 -0.3829  0.3689
   25MOL    C5427021   5.237   3.643   6.914 -0.0152  0.1613 -0.0674
   25MOL    C5527022   5.056   3.543   7.216  0.2887  0.6355 -0.2802
   25MOL    C5627023   4.982   3.475   7.317 -0.6840  0.0799 -0.1958
   25MOL    C5727024   5.018   3.359   7.627  0.4051 -0.3040  0.0544
   25MOL    C5827025   5.050   3.260   7.723 -0.5563 -0.3695 -0.5156
   25MOL    C5927026   4.876   3.168   8.100 -0.0381 -0.7998  0.0862
   25MOL    C6027027   4.873   3.185   8.238  0.1367 -0.8274 -0.7507
   25MOL    H6127028   5.125   2.993   0.100  0.5539  1.8618  1.4390
   25MOL    H6227029   5.161   2.973   8.114 -0.0560 -0.9258  0.8304
   25MOL    H6327030   4.740   3.142   7.801 -1.1788  2.8336  0.4175
   25MOL    H6427031   4.679   3.339   7.639  0.4449  0.4807 -0.7843
   25MOL    H6527032   4.926   3.750   7.527  2.8317  1.5693 -0.0364
   25MOL    H6627033   5.068   3.861   7.351 -1.0198  1.1980 -0.0607
   25MOL    H6727034   5.120   3.872   6.950  0.8487  0.5267  0.3980
   25MOL    H6827035   5.029   3.916   7.087 -3.7924 -0.2655 -0.8055
   25MOL    H6927036   5.002   3.752   7.007  0.6897  0.2919  0.8158
   25MOL    H7027037   5.343   3.894   7.126  1.8999  1.1607  2.1649
   25MOL    H7127038   5.217   3.953   7.232  0.4623  1.4326 -3.0762
   25MOL    H7227039   5.317   3.811   7.284  1.9345  1.8031  0.8111
   25MOL    H7327040   5.368   3.584   7.228  1.4240 -1.4712  0.9286
   25MOL    H7427041   5.529   3.442   7.082  1.3885  1.4303 -0.9123
   25MOL    H7527042   5.333   3.573   6.729 -0.9736  0.3519  0.3946
   25MOL    H7627043   5.150   3.679   6.860 -0.8180 -0.7026  0.6289
   25MOL    H7727044   5.094   3.481   7.136 -0.2812  2.2101 -1.8342
   25MOL    H7827045   4.962   3.371   7.298 -1.7660 -0.0548  1.5319
   25MOL    H7927046   5.101   3.410   7.580 -0.5973  0.8874 -0.4787
   25MOL    H8027047   5.150   3.233   7.754 -0.1873 -0.2324 -1.5672
   25MOL    H8127048   4.793   3.208   8.044 -0.0656 -0.0084  0.6944
   25MOL    H8227049   4.798   3.255   0.020  0.7037  0.1406 -1.4232
   25MOL    H8327050   5.482   3.412   6.746 -1.0062  0.1057  1.2280
   26MOL     C127051   2.612   4.421   5.491  0.4950 -0.4003  0.5596
   26MOL     C227052   2.602   4.325   5.392 -0.2603 -0.0147  0.3696
   26MOL     C327053   2.539   4.355   5.270  0.6077  0.3716 -0.0494
   26MOL     C427054   2.471   4.478   5.249  0.1880 -0.9434 -0.4886
   26MOL     S527055   2.379   4.509   5.101  0.3525 -0.5180  0.0001
   26MOL     O627056   2.393   4.391   5.012  0.6657  0.7303 -0.1186
   26MOL     O727057   2.424   4.638   5.042  0.1993  0.2079  0.2747
   26MOL     C827058   2.211   4.538   5.150 -0.2418  0.2597  0.5163
   26MOL     C927059   2.146   4.664   5.143  0.0829 -0.2146  0.4682
   26MOL    C1027060   2.011   4.668   5.180  0.1848  1.2045  0.2406
   26MOL    C1127061   1.942   4.559   5.236 -0.4901  0.6221 -0.9606
   26MOL    O1227062   1.825   4.564   5.303 -0.2719 -0.4223  0.3145
   26MOL    C1327063   1.713   4.543   5.229  0.1483  0.2434  0.6103
   26MOL    C1427064   1.643   4.661   5.191 -0.1936 -0.1968  0.2383
   26MOL    C1527065   1.508   4.646   5.130 -0.5117  0.2366 -0.1440
   26MOL    C1627066   1.451   4.518   5.112 -0.0487  0.0517 -0.2615
   26MOL    C1727067   1.307   4.493   5.069  0.0203  0.9647 -0.0153
   26MOL    C1827068   1.213   4.603   5.122  0.4369 -0.0123  0.7452
   26MOL    C1927069   1.293   4.491   4.912 -0.5575  0.3160 -0.0887
   26MOL    C2027070   1.254   4.352   5.119  0.2999  0.2735  1.2071
   26MOL    C2127071   1.257   4.330   5.258  0.0678 -0.0103  0.0967
   26MOL    C2227072   1.209   4.205   5.304 -0.1489 -0.3534  0.7579
   26MOL    C2327073   1.173   4.099   5.218  0.7791 -0.3061 -0.1057
   26MOL    O2427074   1.125   3.982   5.273 -0.6105 -0.5471 -0.0763
   26MOL    C2527075   1.176   4.121   5.081 -0.2299 -0.3013 -0.2417
   26MOL    C2627076   1.215   4.249   5.030 -0.0841 -0.1291  0.2039
   26MOL    C2727077   1.537   4.408   5.140  0.2504 -0.0751 -0.8056
   26MOL    C2827078   1.661   4.413   5.205 -0.6535 -0.3323  1.1140
   26MOL    C2927079   2.013   4.439   5.236  0.2175  0.2078  0.0172
   26MOL    C3027080   2.143   4.426   5.194 -0.0919  0.5352  0.1685
   26MOL    C3127081   2.467   4.571   5.354  0.2634  0.3177  1.0372
   26MOL    C3227082   2.540   4.545   5.475  0.5553 -0.1341 -0.2442
   26MOL    H3327083   2.662   4.236   5.401  0.0172 -0.1071 -1.9119
   26MOL    H3427084   2.537   4.292   5.183  1.4382 -0.5355  0.5732
   26MOL    H3527085   2.205   4.749   5.111  0.3345 -0.3327  0.6107
   26MOL    H3627086   1.964   4.766   5.182  1.5787  1.9783 -2.2176
   26MOL    H3727087   1.688   4.756   5.214 -0.1844  0.7917 -3.5195
   26MOL    H3827088   1.459   4.738   5.104 -3.7928 -1.6145 -0.8211
   26MOL    H3927089   1.110   4.582   5.093  0.8694 -3.8035  1.8109
   26MOL    H4027090   1.236   4.701   5.079 -1.4396 -0.0207 -0.3351
   26MOL    H4127091   1.217   4.607   5.231 -1.4701  3.5994  0.7698
   26MOL    H4227092   1.333   4.583   4.869 -0.0839  0.4735  0.6901
   26MOL    H4327093   1.356   4.417   4.863 -0.9458 -0.2055  0.1947
   26MOL    H4427094   1.188   4.494   4.882  0.1315  1.0996 -2.4949
   26MOL    H4527095   1.282   4.409   5.327  0.3854 -0.7969  0.8788
   26MOL    H4627096   1.188   4.195   5.410  0.2094  1.2509  1.0003
   26MOL    H4727097   1.144   4.044   5.012  1.5250 -0.2619 -1.1363
   26MOL    H4827098   1.207   4.266   4.924 -0.5911  1.6830  0.5193
   26MOL    H4927099   1.497   4.310   5.117 -3.4187  1.2624 -0.4516
   26MOL    H5027100   1.715   4.324   5.231  0.0908 -0.4240 -0.6783
   26MOL    H5127101   1.965   4.353   5.279 -0.5993  0.8162  0.3215
   26MOL    H5227102   2.202   4.336   5.186 -0.3037  0.6451 -3.6251
   26MOL    H5327103   2.416   4.665   5.341 -0.5026 -0.3342 -0.8200
   26MOL    H5427104   2.542   4.624   5.548 -3.3917  1.7373 -2.0151
   26MOL    H5527105   2.662   4.400   5.585  1.6608  0.3758  0.1236
   26MOL    C5627106   1.156   3.859   5.219 -0.0947  0.4023  0.8175
   26MOL    C5727107   1.293   3.823   5.195  0.2113  0.6685  0.3176
   26MOL    C5827108   1.335   3.699   5.138  0.0764 -0.8146  0.3737
   26MOL    C5927109   1.232   3.605   5.108  0.8470  0.2350  0.5083
   26MOL    S6027110   1.275   3.439   5.056  0.2565 -0.0451  0.0780
   26MOL    O6127111   1.169   3.403   4.957  0.1315  0.4486  0.1968
   26MOL    O6227112   1.301   3.350   5.173  0.2936 -0.3330  0.5662
   26MOL    C6327113   1.429   3.446   4.971  0.1811  0.4304  1.0823
   26MOL    C6427114   1.418   3.442   4.831  0.4883 -0.1568  0.3818
   26MOL    C6527115   1.535   3.451   4.759 -0.2248 -0.1792 -0.4862
   26MOL    C6627116   1.663   3.450   4.826  0.6493  0.2092  0.1466
   26MOL    O6727117   1.776   3.431   4.749 -0.6784  0.2049 -0.0198
   26MOL    C6827118   1.898   3.461   4.797  0.1702  0.2490  0.5243
   26MOL    C6927119   1.960   3.585   4.779 -0.5343 -0.3225 -0.4266
   26MOL    C7027120   2.093   3.602   4.824  0.5041  0.3047  0.2876
   26MOL    C7127121   2.162   3.507   4.908  0.0049  0.0418 -0.2770
   26MOL    C7227122   2.301   3.541   4.980  0.1642  0.5202 -1.1632
   26MOL    C7327123   2.366   3.659   4.920 -0.0182 -0.4111 -0.7513
   26MOL    C7427124   2.267   3.577   5.132 -0.6138 -0.4644  0.5849
   26MOL    C7527125   2.402   3.423   4.966  0.4920 -0.1039  0.1575
   26MOL    C7627126   2.412   3.361   4.836 -0.1697 -0.4854 -0.0733
   26MOL    C7727127   2.484   3.242   4.831 -0.5300  0.1104  0.1692
   26MOL    C7827128   2.560   3.194   4.941  0.4027 -0.3727 -0.3026
   26MOL    O7927129   2.621   3.079   4.928 -0.0505 -0.4960  0.5770
   26MOL    C8027130   2.556   3.264   5.067  0.2202  0.7546  0.1472
   26MOL    C8127131   2.473   3.376   5.077 -0.4951 -0.0240  0.0318
   26MOL    C8227132   2.098   3.383   4.919  0.2987 -0.4008 -0.7033
   26MOL    C8327133   1.973   3.357   4.861  0.1468 -0.4655 -0.1683
   26MOL    C8427134   1.669   3.449   4.971  0.2339  0.1993 -0.4800
   26MOL    C8527135   1.552   3.453   5.041 -0.0474  0.5923  0.4181
   26MOL    C8627136   1.099   3.639   5.138 -0.3416  0.7850 -0.4653
   26MOL    C8727137   1.057   3.759   5.198  0.0512 -0.1953 -0.3026
   26MOL    H8827138   1.363   3.902   5.219  1.3634 -0.7337  1.7272
   26MOL    H8927139   1.442   3.694   5.136  0.1683  1.1142 -0.6518
   26MOL    H9027140   1.326   3.443   4.775  0.8918  1.5564 -0.3041
   26MOL    H9127141   1.539   3.451   4.652 -0.0379  1.3281 -0.4906
   26MOL    H9227142   1.923   3.667   4.720 -0.3306  0.1318  0.0698
   26MOL    H9327143   2.148   3.686   4.783  1.1238  0.0823  0.6571
   26MOL    H9427144   2.376   3.655   4.812 -1.2326 -2.2589 -0.8152
   26MOL    H9527145   2.470   3.673   4.951  0.3173 -3.6874 -0.2992
   26MOL    H9627146   2.310   3.749   4.944 -0.3083 -1.1539  1.4379
   26MOL    H9727147   2.362   3.604   5.177 -0.8718 -0.0022  0.8618
   26MOL    H9827148   2.192   3.656   5.141 -0.7912 -0.4433 -0.9319
   26MOL    H9927149   2.227   3.488   5.181 -0.9626 -0.5098  0.2196
   26MOL   H10027150   2.353   3.386   4.749  0.0082 -1.0132 -0.3453
   26MOL   H10127151   2.477   3.179   4.744  2.2126  0.9309 -0.7084
   26MOL   H10227152   2.612   3.226   5.151 -0.2137  0.0241  0.1092
   26MOL   H10327153   2.468   3.428   5.171 -1.8019 -0.4474  0.2122
   26MOL   H10427154   2.149   3.302   4.968  1.1855  0.4080 -0.2632
   26MOL   H10527155   1.945   3.253   4.870 -0.6164 -0.2648 -0.1344
   26MOL   H10627156   1.763   3.448   5.024  0.2362  0.9417 -0.4666
   26MOL   H10727157   1.553   3.451   5.149 -3.7386  1.4849  0.5420
   26MOL   H10827158   1.018   3.571   5.114  1.7892 -1.6983 -0.8988
   26MOL   H10927159   0.953   3.781   5.217  0.4808  0.7811  0.9414
   26MOL   C11027160   2.759   3.088   4.914 -0.0283  0.8174  0.2576
   26MOL   C11127161   2.820   3.163   4.816  0.4403 -0.2432  0.7226
   26MOL   C11227162   2.957   3.160   4.790  0.4929 -0.2106  0.2761
   26MOL   C11327163   3.039   3.088   4.881 -1.1446  0.1942  0.0108
   26MOL   S11427164   3.219   3.079   4.854  0.1114  0.5603  0.2274
   26MOL   O11527165   3.254   3.132   4.722 -0.3650 -0.5930  0.5919
   26MOL   O11627166   3.266   2.946   4.891 -0.2861  0.0545 -0.3441
   26MOL   C11727167   3.287   3.193   4.979  0.1764  0.2395 -0.2256
   26MOL   C11827168   3.216   3.307   5.019 -0.3526 -0.5187 -0.6209
   26MOL   C11927169   3.262   3.394   5.116  0.3634 -0.2152  0.2014
   26MOL   C12027170   3.379   3.360   5.189  0.0659  0.6558  0.1475
   26MOL   O12127171   3.411   3.442   5.293 -0.3094  0.2407  0.1443
   26MOL   C12227172   3.521   3.527   5.281  0.4094 -0.6321 -0.3329
   26MOL   C12327173   3.496   3.662   5.254 -0.3689 -0.0339 -0.3191
   26MOL   C12427174   3.606   3.755   5.254 -0.1060 -0.5356  0.0296
   26MOL   C12527175   3.741   3.705   5.262  0.2591  0.4708 -0.2427
   26MOL   C12627176   3.857   3.800   5.265  0.5252  0.2114 -0.7355
   26MOL   C12727177   3.887   3.841   5.414 -0.3894 -0.0557 -0.1208
   26MOL   C12827178   3.986   3.728   5.213  0.0642 -0.2129 -0.3343
   26MOL   C12927179   3.830   3.926   5.178  0.4369 -0.0651 -0.7507
   26MOL   C13027180   3.862   3.936   5.042  0.4563  0.8170  0.3325
   26MOL   C13127181   3.860   4.054   4.964 -0.1598 -0.7838  0.0031
   26MOL   C13227182   3.818   4.175   5.026 -0.3562  0.4771 -0.1328
   26MOL   O13327183   3.820   4.295   4.960  0.1443  0.4947  0.0756
   26MOL   C13427184   3.780   4.175   5.159  0.0913  0.3349  0.3420
   26MOL   C13527185   3.783   4.053   5.228 -0.8431  0.6139 -0.1334
   26MOL   C13627186   3.755   3.562   5.278 -0.0053  0.3814 -0.1755
   26MOL   C13727187   3.647   3.475   5.288 -0.0103 -0.7545  0.5987
   26MOL   C13827188   3.453   3.247   5.153  0.0281 -0.3144  0.1482
   26MOL   C13927189   3.413   3.172   5.038 -0.2507  0.3690  0.0741
   26MOL   C14027190   2.988   3.016   4.996  0.3974 -0.1492 -0.2549
   26MOL   C14127191   2.845   3.023   5.006  0.0448  0.1403  0.2193
   26MOL   H14227192   2.757   3.226   4.754  1.6737  2.2727  1.9798
   26MOL   H14327193   3.003   3.221   4.714  1.4384  0.5294  1.4124
   26MOL   H14427194   3.120   3.329   4.975  0.4922  1.1367 -1.7274
   26MOL   H14527195   3.199   3.476   5.146  2.1524  1.4404 -0.4635
   26MOL   H14627196   3.398   3.706   5.240  1.9215  4.7436 -2.3937
   26MOL   H14727197   3.592   3.862   5.246 -1.3396 -0.5488  1.6606
   26MOL   H14827198   3.796   3.878   5.462 -0.2255 -0.5545  0.5698
   26MOL   H14927199   3.970   3.912   5.414  0.6651 -1.2838 -0.2029
   26MOL   H15027200   3.916   3.754   5.473  1.0892 -0.3406 -1.2264
   26MOL   H15127201   4.073   3.794   5.213 -1.3577  1.7363  0.9860
   26MOL   H15227202   4.032   3.639   5.259  1.9164  0.6445 -0.4626
   26MOL   H15327203   3.963   3.691   5.114 -1.7018  0.5954 -0.2374
   26MOL   H15427204   3.920   3.857   4.996 -0.9055 -1.2253  2.0571
   26MOL   H15527205   3.905   4.049   4.866 -1.6756 -0.3202 -0.7292
   26MOL   H15627206   3.749   4.264   5.211  0.5232  0.6348  0.0939
   26MOL   H15727207   3.761   4.051   5.333  0.5662  0.1532  0.1637
   26MOL   H15827208   3.849   3.515   5.302 -0.6326 -0.3905  0.8710
   26MOL   H15927209   3.661   3.370   5.310  1.3989 -0.5527  0.6873
   26MOL   H16027210   3.548   3.228   5.203 -1.3517 -2.4286  2.0666
   26MOL   H16127211   3.476   3.087   5.014 -1.7180 -1.1660  1.5170
   26MOL   H16227212   3.049   2.969   5.071 -0.7791 -0.2968  0.6227
   26MOL   H16327213   2.801   2.960   5.083 -1.0679 -0.6330 -1.0360
   26MOL   C16427214   3.738   4.312   4.850 -0.6413 -0.2845  0.4530
   26MOL   C16527215   3.794   4.302   4.721 -0.2208 -0.7420  0.1853
   26MOL   C16627216   3.713   4.301   4.607 -0.5221  0.4190 -0.1789
   26MOL   C16727217   3.576   4.329   4.615 -0.3113 -0.2982 -0.0215
   26MOL   S16827218   3.468   4.360   4.473 -0.3693 -0.0526  0.0018
   26MOL   O16927219   3.491   4.498   4.432  1.0318 -0.6435  0.3764
   26MOL   O17027220   3.329   4.313   4.498 -0.0714 -0.2391 -0.5894
   26MOL   C17127221   3.534   4.264   4.338 -1.0702 -0.5041 -0.2504
   26MOL   C17227222   3.549   4.326   4.207 -0.0195  0.1494  0.0834
   26MOL   C17327223   3.603   4.245   4.104 -0.7189 -0.6586  0.1874
   26MOL   C17427224   3.630   4.107   4.123  0.1164  0.5820  0.9465
   26MOL   O17527225   3.662   4.039   4.010 -0.3137  0.4389 -0.6137
   26MOL   C17627226   3.720   3.916   4.030  0.0187 -0.1411  0.5954
   26MOL   C17727227   3.626   3.809   4.023 -0.0273  0.4132 -0.1267
   26MOL   C17827228   3.675   3.678   4.043 -0.5015 -0.4170 -0.3431
   26MOL   C17927229   3.810   3.650   4.069  0.3674  0.4264 -0.2594
   26MOL   C18027230   3.860   3.500   4.081 -0.5602  0.2583 -0.5021
   26MOL   C18127231   3.908   3.448   3.940 -0.1383 -0.6171 -0.2301
   26MOL   C18227232   3.982   3.473   4.169 -0.7640 -0.0317  0.3144
   26MOL   C18327233   3.738   3.416   4.130  0.4137  0.2539  0.4916
   26MOL   C18427234   3.698   3.437   4.262  0.1553 -0.4489  0.3038
   26MOL   C18527235   3.582   3.365   4.315 -0.1313 -0.3003 -0.0013
   26MOL   C18627236   3.512   3.275   4.233 -0.6722  0.3764 -0.0705
   26MOL   O18727237   3.402   3.202   4.272 -0.1840 -0.3080 -0.6023
   26MOL   C18827238   3.554   3.250   4.100  0.2655 -0.6746 -0.2090
   26MOL   C18927239   3.664   3.318   4.049  0.1658 -0.2936 -0.4920
   26MOL   C19027240   3.902   3.753   4.087 -0.1246 -0.0094  0.1031
   26MOL   C19127241   3.854   3.882   4.062 -0.5073 -0.0628 -0.0857
   26MOL   C19227242   3.599   4.044   4.246  0.1196 -0.1341  0.5011
   26MOL   C19327243   3.551   4.121   4.354 -0.8722  0.9546 -0.3359
   26MOL   C19427244   3.520   4.347   4.745 -0.6606 -0.4329 -0.5438
   26MOL   C19527245   3.604   4.343   4.860  0.5148 -0.4927  0.4455
   26MOL   H19627246   3.900   4.287   4.708 -0.1692 -2.6584  2.4125
   26MOL   H19727247   3.751   4.299   4.506  1.0786  1.5448  0.3919
   26MOL   H19827248   3.540   4.434   4.198 -2.2102  0.0290  0.4996
   26MOL   H19927249   3.626   4.297   4.012  2.8163  0.6113  1.7260
   26MOL   H20027250   3.520   3.818   4.004  0.0336 -1.2624 -1.4512
   26MOL   H20127251   3.604   3.597   4.040  1.4074 -2.1098 -0.6839
   26MOL   H20227252   3.920   3.341   3.958 -0.1805 -0.3157  1.7025
   26MOL   H20327253   3.997   3.500   3.906 -0.7071  1.2036  1.0251
   26MOL   H20427254   3.834   3.459   3.861 -0.3063  0.7261  0.1072
   26MOL   H20527255   4.075   3.514   4.131 -0.0922 -0.9337  0.9559
   26MOL   H20627256   3.964   3.505   4.272  1.8294  0.7789  0.5527
   26MOL   H20727257   3.987   3.366   4.188 -2.5184 -0.3814 -1.0877
   26MOL   H20827258   3.744   3.514   4.322 -1.0827  0.7896 -0.2945
   26MOL   H20927259   3.558   3.376   4.420  1.9840  1.1662  0.3752
   26MOL   H21027260   3.491   3.189   4.037 -0.6720 -0.2741  0.3197
   26MOL   H21127261   3.693   3.297   3.947  2.4509  2.7245 -0.5516
   26MOL   H21227262   4.009   3.743   4.101  0.0057  0.6463 -0.4015
   26MOL   H21327263   3.918   3.966   4.088 -2.7515  2.1402 -1.5392
   26MOL   H21427264   3.608   3.937   4.260 -0.4512 -0.5363 -1.9291
   26MOL   H21527265   3.531   4.062   4.442  1.1912  0.3283 -0.2714
   26MOL   H21627266   3.414   4.366   4.758 -1.1433 -2.1533 -1.6822
   26MOL   H21727267   3.556   4.356   4.956 -0.6046  0.7811 -0.2653
   26MOL   C21827268   3.418   3.073   4.308  0.3380  0.3163 -0.0597
   26MOL   C21927269   3.464   3.045   4.437 -0.3483 -0.0744 -0.5647
   26MOL   C22027270   3.483   2.919   4.488  0.3646 -0.0826 -0.6070
   26MOL   C22127271   3.457   2.810   4.401  0.2804  0.5589  0.5923
   26MOL   S22227272   3.487   2.635   4.443 -0.2653 -0.2028 -0.0091
   26MOL   O22327273   3.618   2.606   4.379 -0.3107  0.4285  0.6673
   26MOL   O22427274   3.377   2.547   4.406 -0.4987  0.0365 -0.0357
   26MOL   C22527275   3.506   2.626   4.620  0.4340  0.0361  0.5426
   26MOL   C22627276   3.634   2.610   4.679  0.1621  0.6908  0.2313
   26MOL   C22727277   3.644   2.597   4.819  1.3624  0.5862 -0.2914
   26MOL   C22827278   3.532   2.612   4.902  0.3490  0.0811  0.5247
   26MOL   O22927279   3.554   2.607   5.043  0.3617  0.1174  0.8086
   26MOL   C23027280   3.491   2.695   5.129 -0.0988 -0.2287 -0.1096
   26MOL   C23127281   3.532   2.826   5.150  0.1212  0.5116 -0.1908
   26MOL   C23227282   3.469   2.906   5.246  0.1644 -0.0897  1.3874
   26MOL   C23327283   3.355   2.855   5.321 -0.1041  0.5471  0.4182
   26MOL   C23427284   3.284   2.947   5.425  0.1195  0.1344  0.6378
   26MOL   C23527285   3.365   3.072   5.462 -0.0507 -0.4415  0.7678
   26MOL   C23627286   3.159   2.998   5.345  0.1625  0.1773 -0.1203
   26MOL   C23727287   3.238   2.870   5.558  0.1112 -0.1164  0.6091
   26MOL   C23827288   3.332   2.839   5.664  0.6948  0.1237  0.1729
   26MOL   C23927289   3.287   2.774   5.779 -0.7416  0.1795  0.1761
   26MOL   C24027290   3.149   2.745   5.794 -0.3158 -0.3487  0.2264
   26MOL   O24127291   3.102   2.700   5.910 -0.1451  0.3190  0.2708
   26MOL   C24227292   3.058   2.770   5.689  0.3976  0.3462  0.2605
   26MOL   C24327293   3.103   2.826   5.567 -0.3171 -0.4658  0.1752
   26MOL   C24427294   3.321   2.717   5.303  0.5137 -0.7477 -0.3211
   26MOL   C24527295   3.388   2.647   5.208  0.1925  0.1734 -0.2269
   26MOL   C24627296   3.407   2.625   4.838 -0.0455 -0.5075 -0.0616
   26MOL   C24727297   3.389   2.632   4.701 -0.1280 -0.1436 -0.5583
   26MOL   C24827298   3.410   2.833   4.270 -0.8407 -0.4808  0.6605
   26MOL   C24927299   3.392   2.963   4.226  0.2977  0.0536  0.0945
   26MOL   H25027300   3.484   3.135   4.495  0.8876 -1.6470  1.4928
   26MOL   H25127301   3.525   2.900   4.586  1.0383 -0.8644 -1.0467
   26MOL   H25227302   3.715   2.609   4.607 -0.0523 -0.0663 -0.0070
   26MOL   H25327303   3.735   2.576   4.873  1.6704  0.7234 -0.7512
   26MOL   H25427304   3.614   2.860   5.089  0.2827 -0.4997 -0.5518
   26MOL   H25527305   3.504   3.006   5.265 -3.3305  2.1585 -3.0871
   26MOL   H25627306   3.466   3.044   5.493 -0.0524 -3.6705 -1.9541
   26MOL   H25727307   3.316   3.128   5.542  0.4027 -0.0289  0.7651
   26MOL   H25827308   3.389   3.135   5.376  0.1314 -0.2671  0.9442
   26MOL   H25927309   3.112   2.914   5.294  0.1414  0.1815 -0.1072
   26MOL   H26027310   3.097   3.055   5.415  2.9427  2.0738  0.8510
   26MOL   H26127311   3.197   3.063   5.266  3.7836  0.7463  1.9647
   26MOL   H26227312   3.437   2.860   5.652  1.0900 -1.2614  1.0404
   26MOL   H26327313   3.362   2.748   5.852  0.3745  3.2779  0.2332
   26MOL   H26427314   2.954   2.746   5.702  0.3083 -0.5605 -1.9185
   26MOL   H26527315   3.027   2.827   5.491  0.1035  0.3476 -0.2401
   26MOL   H26627316   3.243   2.681   5.368 -0.4340  2.4706  0.4110
   26MOL   H26727317   3.362   2.543   5.191  1.1114  0.2249 -2.0674
   26MOL   H26827318   3.319   2.621   4.901 -0.1119 -0.4647 -0.1502
   26MOL   H26927319   3.299   2.648   4.643 -2.1424  1.1912  2.8476
   26MOL   H27027320   3.375   2.760   4.198 -2.7282 -0.3094  1.3663
   26MOL   H27127321   3.366   2.982   4.123  1.9273  1.5883 -0.0521
   26MOL   C27227322   3.088   2.786   6.013  0.1668  0.4532  0.0699
   26MOL   C27327323   3.157   2.783   6.138  0.4014  0.1397 -0.0885
   26MOL   C27427324   3.113   2.853   6.256  0.2542 -0.1608 -0.0176
   26MOL   C27527325   2.991   2.913   6.247 -0.2328  0.2534  0.1102
   26MOL   S27627326   2.926   2.990   6.400 -0.0706 -0.3549  0.4949
   26MOL   O27727327   2.808   3.064   6.354  0.3083 -0.7678 -0.1193
   26MOL   O27827328   3.034   3.068   6.459  0.0661 -0.2610  0.0621
   26MOL   C27927329   2.884   2.857   6.502  0.1851 -0.1758 -0.0575
   26MOL   C28027330   2.983   2.774   6.548  0.5848 -0.0932 -0.0355
   26MOL   C28127331   2.953   2.661   6.624 -0.0638  0.1059  0.0308
   26MOL   C28227332   2.818   2.625   6.647 -0.0396 -0.3342  0.7644
   26MOL   O28327333   2.785   2.512   6.724 -0.4067 -0.2420 -0.3424
   26MOL   C28427334   2.856   2.395   6.687  0.0754 -0.1725  0.2173
   26MOL   C28527335   2.913   2.311   6.786  0.5957 -0.8462  0.2301
   26MOL   C28627336   3.001   2.209   6.750  0.7359 -0.4016 -0.0524
   26MOL   C28727337   3.018   2.169   6.616  0.0080  0.3115  0.4292
   26MOL   C28827338   3.099   2.042   6.586 -0.4677 -0.8894  0.6353
   26MOL   C28927339   3.035   1.916   6.637  0.0938  0.9864  0.1947
   26MOL   C29027340   3.113   2.025   6.433 -0.0841  0.1863 -0.4788
   26MOL   C29127341   3.249   2.065   6.630  0.5422 -0.0139 -0.1689
   26MOL   C29227342   3.309   2.187   6.607  0.3084  0.1932  0.0593
   26MOL   C29327343   3.447   2.207   6.630 -0.3390 -0.2572 -0.1264
   26MOL   C29427344   3.529   2.105   6.676 -0.6093 -0.0934  0.3718
   26MOL   O29527345   3.662   2.118   6.698  0.1413 -0.0045  0.7045
   26MOL   C29627346   3.467   1.977   6.705  0.2794  0.3034  0.6527
   26MOL   C29727347   3.328   1.957   6.687 -0.5674 -0.7373 -0.1049
   26MOL   C29827348   2.941   2.245   6.520 -0.0605  0.6500  0.2046
   26MOL   C29927349   2.870   2.358   6.557 -0.2812  0.1525 -0.2800
   26MOL   C30027350   2.712   2.713   6.604  0.1474 -0.2902  0.1702
   26MOL   C30127351   2.743   2.828   6.530 -0.2005  0.5135  0.0476
   26MOL   C30227352   2.921   2.917   6.127 -0.2809 -0.4117 -0.3753
   26MOL   C30327353   2.974   2.866   6.008 -0.2976  0.5667 -0.7063
   26MOL   H30427354   3.233   2.709   6.155 -0.8336 -1.1757 -0.1832
   26MOL   H30527355   3.172   2.848   6.347  0.4342  2.2706  0.0201
   26MOL   H30627356   3.083   2.811   6.530 -1.1930  3.5950 -3.0785
   26MOL   H30727357   3.029   2.603   6.675 -1.2712  0.4953  2.3409
   26MOL   H30827358   2.912   2.343   6.889 -2.9252 -0.9207  0.2669
   26MOL   H30927359   3.054   2.156   6.828  3.7084  1.0979 -1.0055
   26MOL   H31027360   2.934   1.905   6.596 -0.0665 -0.0055  0.8292
   26MOL   H31127361   3.018   1.906   6.744 -0.4721 -2.5584 -0.1426
   26MOL   H31227362   3.086   1.825   6.605 -0.0861  0.2592  1.9129
   26MOL   H31327363   3.177   1.945   6.397 -0.5459  0.3808 -1.7542
   26MOL   H31427364   3.017   2.007   6.385 -2.4356  2.0985  3.2663
   26MOL   H31527365   3.160   2.115   6.393 -1.8561  1.1130 -0.5474
   26MOL   H31627366   3.244   2.262   6.565 -0.4475 -1.0550 -1.0458
   26MOL   H31727367   3.496   2.302   6.613 -0.0692  0.2664  3.1679
   26MOL   H31827368   3.529   1.893   6.732  1.1226  0.5872 -0.3696
   26MOL   H31927369   3.278   1.865   6.711 -2.3818  0.2179 -0.1358
   26MOL   H32027370   2.942   2.224   6.414 -1.0189  0.8121  0.1592
   26MOL   H32127371   2.825   2.422   6.482 -0.4513 -1.2673 -1.4021
   26MOL   H32227372   2.609   2.698   6.631 -0.6391  0.0382 -2.4817
   26MOL   H32327373   2.663   2.890   6.494  1.0789  2.6460  0.7855
   26MOL   H32427374   2.823   2.961   6.124 -0.3927 -0.6939 -0.9547
   26MOL   H32527375   2.924   2.886   5.914  0.2952  0.1629 -1.1151
   26MOL   C32627376   3.733   2.194   6.614  0.4581  0.3251 -0.5073
   26MOL   C32727377   3.773   2.328   6.648 -0.1565  0.2032 -0.2129
   26MOL   C32827378   3.858   2.400   6.564  0.2186  0.2474 -0.0852
   26MOL   C32927379   3.906   2.338   6.443  0.0739  0.1562 -0.8702
   26MOL   S33027380   4.008   2.441   6.333  0.0758 -0.3574 -0.0534
   26MOL   O33127381   4.126   2.491   6.406 -0.0714  0.1885 -0.3461
   26MOL   O33227382   3.920   2.537   6.265 -0.1448 -0.2154  0.4500
   26MOL   C33327383   4.064   2.315   6.216  0.0151 -0.0305 -0.4274
   26MOL   C33427384   4.015   2.304   6.088 -0.7640  0.0541  0.4468
   26MOL   C33527385   4.057   2.204   6.002  0.1633 -0.0824  0.6129
   26MOL   C33627386   4.154   2.110   6.047 -0.2039 -0.8769  0.0236
   26MOL   O33727387   4.201   2.009   5.970 -0.2520  0.3129  0.0953
   26MOL   C33827388   4.114   1.944   5.878  0.3540 -0.4998  0.0722
   26MOL   C33927389   4.168   1.911   5.754 -0.4953  0.0915  0.4452
   26MOL   C34027390   4.087   1.844   5.660  0.7774 -0.0818  0.3802
   26MOL   C34127391   3.956   1.797   5.688 -0.3162 -1.1218 -0.1996
   26MOL   C34227392   3.883   1.717   5.586 -1.0008 -0.3734  1.1660
   26MOL   C34327393   3.925   1.568   5.616  0.2676  0.0422  0.1254
   26MOL   C34427394   3.734   1.726   5.598 -0.4018 -0.0120 -0.0712
   26MOL   C34527395   3.923   1.764   5.441  0.5867  0.4293 -0.1733
   26MOL   C34627396   4.005   1.682   5.361  0.0229 -0.0737 -0.1239
   26MOL   C34727397   4.050   1.729   5.235  0.1380  0.0841  0.5268
   26MOL   C34827398   4.014   1.861   5.192  0.4367  0.3125 -0.5187
   26MOL   O34927399   4.071   1.914   5.078  0.2027  0.0711 -0.3349
   26MOL   C35027400   3.928   1.938   5.270 -0.0809 -0.5243 -0.0615
   26MOL   C35127401   3.879   1.888   5.394 -0.2054  0.2561 -0.1169
   26MOL   C35227402   3.907   1.826   5.814  0.4505 -0.4754  0.8031
   26MOL   C35327403   3.974   1.909   5.904 -0.1969 -0.8491  0.2203
   26MOL   C35427404   4.207   2.122   6.179  0.4841  0.6617 -0.6489
   26MOL   C35527405   4.159   2.220   6.263  0.3365 -0.0442  0.2246
   26MOL   C35627406   3.867   2.204   6.416 -0.1084  0.6274  0.0095
   26MOL   C35727407   3.772   2.135   6.491  0.0814 -0.2794  0.0105
   26MOL   H35827408   3.749   2.370   6.745 -0.3777  1.7831 -0.9459
   26MOL   H35927409   3.886   2.501   6.590  0.4194 -0.0779  1.0037
   26MOL   H36027410   3.933   2.366   6.054  0.0533  2.7091  3.1634
   26MOL   H36127411   4.006   2.183   5.909 -0.2320 -1.2586  1.0875
   26MOL   H36227412   4.264   1.946   5.718 -1.6235  0.3438 -2.4388
   26MOL   H36327413   4.127   1.813   5.564 -0.5540 -2.1911  0.4898
   26MOL   H36427414   3.907   1.534   5.718 -0.1273  1.0277  0.3910
   26MOL   H36527415   4.033   1.568   5.603  0.3936  0.2325  1.1520
   26MOL   H36627416   3.868   1.502   5.550  0.2495 -1.8848  2.0160
   26MOL   H36727417   3.712   1.832   5.615 -1.2705  0.0888 -1.7113
   26MOL   H36827418   3.688   1.680   5.511  1.1470  0.7274 -1.3054
   26MOL   H36927419   3.698   1.664   5.680  1.4708 -1.7435 -0.5318
   26MOL   H37027420   4.047   1.590   5.397  2.1111  0.0143 -2.1203
   26MOL   H37127421   4.114   1.664   5.176 -1.1597 -0.0704 -0.7442
   26MOL   H37227422   3.902   2.037   5.234  1.5720  0.2609  0.8301
   26MOL   H37327423   3.807   1.951   5.444 -1.4323 -1.3187  0.1611
   26MOL   H37427424   3.816   1.775   5.843  0.5388 -0.9377  0.2765
   26MOL   H37527425   3.936   1.933   6.003  0.0217  0.3616  0.0239
   26MOL   H37627426   4.280   2.057   6.226  0.2652 -0.6962 -2.1442
   26MOL   H37727427   4.200   2.216   6.363  1.3679 -2.0657 -0.2600
   26MOL   H37827428   3.891   2.161   6.320  0.1522  0.7949 -0.0011
   26MOL   H37927429   3.744   2.034   6.462  0.5541 -1.1674  2.5285
   26MOL   C38027430   4.202   1.942   5.084 -0.4622 -0.8660  0.0067
   26MOL   C38127431   4.257   2.050   5.167 -1.0416  0.1075  0.4398
   26MOL   C38227432   4.393   2.069   5.178 -0.1758 -0.2165 -0.9763
   26MOL   C38327433   4.481   1.978   5.099 -0.5178  0.2395 -0.1151
   26MOL   S38427434   4.658   1.991   5.107 -0.4749 -0.2269  0.1542
   26MOL   O38527435   4.693   2.068   5.230 -0.0067  0.0112 -0.4388
   26MOL   O38627436   4.720   2.040   4.981 -0.0189 -0.1602 -0.4268
   26MOL   C38727437   4.727   1.821   5.135  0.8478 -0.2298  0.1764
   26MOL   C38827438   4.793   1.765   5.028 -0.2702  0.0576 -0.1014
   26MOL   C38927439   4.829   1.628   5.042 -0.4753 -0.3918 -0.3661
   26MOL   C39027440   4.790   1.545   5.151  1.1605 -0.0066  0.5773
   26MOL   O39127441   4.823   1.412   5.147 -0.2879  0.1138  0.5883
   26MOL   C39227442   4.879   1.354   5.252  0.2428  1.2805 -0.1799
   26MOL   C39327443   4.799   1.292   5.347 -0.0033 -1.3698 -0.1909
   26MOL   C39427444   4.857   1.247   5.468  0.4797 -0.3840 -0.3860
   26MOL   C39527445   4.996   1.261   5.497  0.5512  0.3695 -0.4855
   26MOL   C39627446   5.063   1.219   5.629  0.0958  0.3894  0.1207
   26MOL   C39727447   4.947   1.182   5.725  0.6227  0.5088 -0.4709
   26MOL   C39827448   5.136   1.078   5.611  0.2415  0.1939 -0.1246
   26MOL   C39927449   5.157   1.331   5.684  0.0052 -0.4239 -0.4570
   26MOL   C40027450   5.296   1.322   5.687  0.3685  0.7592  0.0558
   26MOL   C40127451   5.369   1.419   5.758 -0.2584 -0.4835 -0.4611
   26MOL   C40227452   5.312   1.541   5.807  0.0086  0.1891  0.3620
   26MOL   O40327453   5.379   1.636   5.883 -0.4442 -0.1915  0.2112
   26MOL   C40427454   5.173   1.561   5.784 -0.3083 -1.0369  0.4220
   26MOL   C40527455   5.100   1.456   5.722  1.1878  0.0559  0.2098
   26MOL   C40627456   5.078   1.312   5.394 -0.3700  0.2762  0.1983
   26MOL   C40727457   5.020   1.348   5.270  0.3305 -0.4843 -0.0389
   26MOL   C40827458   4.724   1.611   5.258 -0.1031 -0.4878  0.0707
   26MOL   C40927459   4.699   1.750   5.251 -0.6311  0.1307  0.0442
   26MOL   C41027460   4.428   1.878   5.017  0.4937 -0.4934  0.1169
   26MOL   C41127461   4.287   1.850   5.016 -0.0387  0.0730  0.0658
   26MOL   H41227462   4.183   2.108   5.220 -2.2263  0.1195 -1.1843
   26MOL   H41327463   4.445   2.142   5.238  2.4576 -2.0106 -0.9492
   26MOL   H41427464   4.821   1.827   4.943  0.2812  1.7412  1.2825
   26MOL   H41527465   4.877   1.581   4.957  0.3396  1.3548 -0.8960
   26MOL   H41627466   4.692   1.286   5.330 -0.0927  1.3041 -0.7514
   26MOL   H41727467   4.799   1.201   5.546  1.6015 -4.6731 -1.8909
   26MOL   H41827468   4.881   1.107   5.682 -1.2113  1.7291  0.1548
   26MOL   H41927469   4.875   1.262   5.745  1.7385  1.5619 -0.6243
   26MOL   H42027470   4.990   1.138   5.815 -2.4938 -0.9419  0.3629
   26MOL   H42127471   5.064   1.005   5.574 -0.7585  3.0510 -4.1565
   26MOL   H42227472   5.204   1.083   5.526  1.2549  1.3425  0.7352
   26MOL   H42327473   5.179   1.039   5.703  2.2464  0.9987 -0.6950
   26MOL   H42427474   5.341   1.230   5.653  0.4854  1.1684 -0.9193
   26MOL   H42527475   5.474   1.403   5.780 -0.1858  2.4936  1.6558
   26MOL   H42627476   5.135   1.654   5.824 -0.9085 -2.0227  2.2137
   26MOL   H42727477   4.993   1.468   5.710  1.1198 -1.0406 -0.3525
   26MOL   H42827478   5.185   1.323   5.398 -0.2563 -0.4153 -0.6443
   26MOL   H42927479   5.081   1.384   5.189  0.6335 -0.3138  0.2651
   26MOL   H43027480   4.695   1.559   5.348 -0.1699 -0.3063  0.1542
   26MOL   H43127481   4.661   1.804   5.336 -0.3496  0.6773 -0.1793
   26MOL   H43227482   4.498   1.811   4.969  1.2178  0.4893 -0.2102
   26MOL   H43327483   4.247   1.771   4.955  0.4448  0.3047 -0.5656
   26MOL   C43427484   5.430   1.603   6.010  0.7955  0.2160 -0.0483
   26MOL   C43527485   5.341   1.532   6.091 -0.3924 -0.1723 -0.1747
   26MOL   C43627486   5.387   1.488   6.218 -0.6295 -0.9294  0.0224
   26MOL   C43727487   5.503   1.536   6.270 -0.6073  0.4247 -0.2510
   26MOL   S43827488   5.535   1.532   6.447 -0.2175 -0.0306 -0.0056
   26MOL   O43927489   5.623   1.645   6.479 -0.3519  0.0604  0.1714
   26MOL   O44027490   5.574   1.396   6.477 -0.4524 -0.3313  0.0382
   26MOL   C44127491   5.384   1.557   6.536 -1.2894 -0.4150 -0.1594
   26MOL   C44227492   5.307   1.672   6.513 -0.4135 -0.7614  0.0870
   26MOL   C44327493   5.191   1.691   6.600 -0.0779  0.0165  0.1822
   26MOL   C44427494   5.155   1.602   6.703  0.2951  0.1685 -0.7755
   26MOL   O44527495   5.053   1.635   6.788 -1.0335  0.1386  0.0718
   26MOL   C44627496   4.928   1.581   6.755 -0.3802 -0.2263  0.1848
   26MOL   C44727497   4.824   1.662   6.700  0.3110 -0.4282 -0.1765
   26MOL   C44827498   4.694   1.603   6.688  0.0101 -0.9420  0.3574
   26MOL   C44927499   4.677   1.466   6.700  0.5927  0.0522  0.2068
   26MOL   C45027500   4.536   1.405   6.674 -0.8473 -0.6629  0.3056
   26MOL   C45127501   4.551   1.343   6.536  0.0368 -0.0352  0.0378
   26MOL   C45227502   4.504   1.287   6.769 -0.2143  0.0603 -0.5152
   26MOL   C45327503   4.415   1.499   6.686  0.2155  0.4404  0.2592
   26MOL   C45427504   4.350   1.555   6.573 -0.6402 -0.4536  0.3897
   26MOL   C45527505   4.237   1.637   6.598 -0.1342  0.0408 -0.2967
   26MOL   C45627506   4.191   1.667   6.730 -0.7240  0.7578  1.1155
   26MOL   O45727507   4.078   1.749   6.751 -0.5975  0.1366 -0.3072
   26MOL   C45827508   4.260   1.615   6.838 -0.0723 -0.2674 -0.3663
   26MOL   C45927509   4.369   1.527   6.814 -0.8004 -0.4774 -0.5480
   26MOL   C46027510   4.783   1.382   6.747  0.1522  0.4999  0.2824
   26MOL   C46127511   4.906   1.445   6.770  0.4591 -0.2332  0.1022
   26MOL   C46227512   5.242   1.493   6.731 -0.1474 -0.1236  0.2613
   26MOL   C46327513   5.355   1.473   6.648  0.4329  0.6210  0.0639
   26MOL   C46427514   5.588   1.609   6.189  0.0033  0.0330  0.5197
   26MOL   C46527515   5.558   1.630   6.052 -0.0251  0.4419 -0.1398
   26MOL   H46627516   5.250   1.486   6.055  1.4802 -2.4437 -2.1936
   26MOL   H46727517   5.319   1.427   6.275 -0.7636 -0.0737  0.7885
   26MOL   H46827518   5.344   1.744   6.442  2.5621  0.4946  2.7709
   26MOL   H46927519   5.129   1.775   6.572  0.7088  0.8347  0.8269
   26MOL   H47027520   4.824   1.767   6.674 -0.4985 -0.6856 -1.2474
   26MOL   H47127521   4.606   1.646   6.644  0.1850 -1.9503 -1.0195
   26MOL   H47227522   4.460   1.285   6.517  0.3292 -0.9074  1.2273
   26MOL   H47327523   4.619   1.258   6.528  0.7853  0.5441  0.2038
   26MOL   H47427524   4.578   1.419   6.462 -0.6857  1.0492  0.8687
   26MOL   H47527525   4.577   1.212   6.740 -0.0476  0.4042 -0.9861
   26MOL   H47627526   4.522   1.297   6.876  1.0651 -2.9142 -0.3956
   26MOL   H47727527   4.409   1.242   6.742 -0.2654 -0.0223 -0.2094
   26MOL   H47827528   4.376   1.537   6.470  1.1838  1.1870  0.5289
   26MOL   H47927529   4.182   1.679   6.515 -0.9347  2.9709  1.6381
   26MOL   H48027530   4.237   1.643   6.940  1.1299 -0.6856  0.0255
   26MOL   H48127531   4.419   1.489   6.902 -2.6565 -0.5533  0.4957
   26MOL   H48227532   4.775   1.279   6.778  2.3460  0.5512  1.0941
   26MOL   H48327533   4.984   1.387   6.818 -1.5204 -2.0447  1.2367
   26MOL   H48427534   5.221   1.429   6.815 -0.4321  0.6905  0.8140
   26MOL   H48527535   5.418   1.390   6.675 -1.4123 -1.6529 -2.3110
   26MOL   H48627536   5.680   1.644   6.235 -0.8838  0.1599  2.2415
   26MOL   H48727537   5.631   1.678   5.990  0.1806  2.0238  1.2775
   26MOL   C48827538   3.961   1.720   6.695  0.4658 -0.6070 -0.5388
   26MOL   C48927539   3.917   1.580   6.693 -0.2725 -0.4569  0.3974
   26MOL   C49027540   3.793   1.553   6.629 -0.5820  0.4050 -0.1816
   26MOL   C49127541   3.716   1.657   6.576  0.4601 -0.5025 -0.6016
   26MOL   S49227542   3.560   1.619   6.493 -0.2268  0.1046 -0.0040
   26MOL   O49327543   3.583   1.496   6.418  0.4338 -0.6349  0.1559
   26MOL   O49427544   3.514   1.742   6.423 -0.1969 -0.1376 -0.5831
   26MOL   C49527545   3.437   1.593   6.618 -0.4399  0.0198 -0.4612
   26MOL   C49627546   3.300   1.589   6.577  0.0816  0.3555  0.1853
   26MOL   C49727547   3.194   1.582   6.671 -0.5617  0.7423 -0.1583
   26MOL   C49827548   3.230   1.555   6.806  0.3174  0.1093  0.3225
   26MOL   O49927549   3.134   1.541   6.898 -0.6606 -0.2591  0.6562
   26MOL   C50027550   3.075   1.656   6.950 -0.0952  0.1140  0.7013
   26MOL   C50127551   2.937   1.646   6.982  0.6926 -0.8678 -1.0861
   26MOL   C50227552   2.869   1.757   7.027 -0.1474  0.4634 -0.7345
   26MOL   C50327553   2.937   1.878   7.052  0.1650 -0.0361  0.1278
   26MOL   C50427554   2.866   1.993   7.137  0.5238 -0.4352 -0.0662
   26MOL   C50527555   2.825   1.945   7.274 -0.1364  0.1216  0.0472
   26MOL   C50627556   2.962   2.111   7.159  0.2366  0.5842  0.3122
   26MOL   C50727557   2.745   2.051   7.062  0.2912 -0.4434  0.2578
   26MOL   C50827558   2.640   2.116   7.132  0.5316 -0.0146  0.1240
   26MOL   C50927559   2.523   2.170   7.060  0.6043 -0.0093 -0.0762
   26MOL   C51027560   2.528   2.161   6.918  0.6156  0.5619 -0.6228
   26MOL   O51127561   2.414   2.203   6.854  0.4377 -0.8492 -1.0095
   26MOL   C51227562   2.637   2.117   6.850 -0.0893  0.0420 -0.5762
   26MOL   C51327563   2.731   2.049   6.925 -0.8600 -0.3512  0.9263
   26MOL   C51427564   3.074   1.889   7.017  0.2758  0.6173  0.3883
   26MOL   C51527565   3.144   1.776   6.963 -0.4214 -0.3124 -0.5212
   26MOL   C51627566   3.366   1.559   6.844  0.7721  0.2837 -0.3504
   26MOL   C51727567   3.469   1.578   6.751 -0.3228  0.1044  1.1154
   26MOL   C51827568   3.747   1.792   6.590 -0.5637 -0.5032 -0.9215
   26MOL   C51927569   3.873   1.822   6.650 -0.7131 -0.4271  0.3527
   26MOL   H52027570   3.970   1.494   6.733  1.8333  0.5401 -0.1660
   26MOL   H52127571   3.757   1.452   6.618  0.4321  0.0629 -0.4411
   26MOL   H52227572   3.274   1.577   6.473 -2.8068 -0.1740  0.9116
   26MOL   H52327573   3.092   1.573   6.637 -0.4487  1.4731 -0.6972
   26MOL   H52427574   2.892   1.548   6.977 -2.4563  0.3737  0.9508
   26MOL   H52527575   2.766   1.750   7.060 -0.0851 -2.3951 -1.0335
   26MOL   H52627576   2.894   1.877   7.325 -0.0259 -1.3107 -1.9472
   26MOL   H52727577   2.732   1.892   7.253 -0.4419  1.9995 -3.8744
   26MOL   H52827578   2.795   2.024   7.343 -3.1401  0.2811 -1.3231
   26MOL   H52927579   3.008   2.134   7.064 -0.1391  1.0067  0.2276
   26MOL   H53027580   2.911   2.198   7.201  0.4355  0.4265  0.8829
   26MOL   H53127581   3.038   2.086   7.234 -1.9305  2.4124  3.2310
   26MOL   H53227582   2.642   2.121   7.240  2.0972  0.9304  0.0592
   26MOL   H53327583   2.448   2.227   7.113  1.3184 -0.5885  1.6168
   26MOL   H53427584   2.638   2.124   6.742  0.1243  0.8310 -0.5280
   26MOL   H53527585   2.804   1.989   6.873  0.7787  0.2153  2.5341
   26MOL   H53627586   3.135   1.977   7.025 -0.6417  1.2781  0.2121
   26MOL   H53727587   3.247   1.784   6.931  0.1502 -0.6621  1.1987
   26MOL   H53827588   3.395   1.542   6.947  1.0751  1.5134 -0.2114
   26MOL   H53927589   3.572   1.584   6.783  0.0095 -0.8769  0.2665
   26MOL   H54027590   3.683   1.873   6.558 -1.3669 -1.0917 -0.8179
   26MOL   H54127591   3.913   1.922   6.664 -0.6417  0.0499 -2.9170
   26MOL   C54227592   2.418   2.248   6.727  0.3468 -0.0493  0.2425
   26MOL   C54327593   2.367   2.169   6.627 -0.2594  0.1640  0.3862
   26MOL   C54427594   2.376   2.211   6.491 -0.0587 -0.0162 -0.4269
   26MOL   C54527595   2.435   2.336   6.456 -0.1806  0.1519 -0.7698
   26MOL   S54627596   2.434   2.386   6.283  0.0129  0.1032  0.4587
   26MOL   O54727597   2.487   2.521   6.282  0.4132 -0.3397 -0.1770
   26MOL   O54827598   2.303   2.358   6.232  0.2690  0.1120  0.2431
   26MOL   C54927599   2.548   2.274   6.198  0.3861 -0.3525 -0.4315
   26MOL   C55027600   2.655   2.212   6.267  0.4799 -0.2528  0.1265
   26MOL   C55127601   2.754   2.148   6.191  0.0153 -0.6299 -0.4619
   26MOL   C55227602   2.745   2.146   6.050  0.0338 -0.5865  0.2277
   26MOL   O55327603   2.851   2.111   5.973  0.4250 -0.4091  0.4168
   26MOL   C55427604   2.924   1.996   5.995 -0.6620 -0.1428  0.2599
   26MOL   C55527605   2.866   1.874   5.975  0.4364 -0.3105  0.2288
   26MOL   C55627606   2.944   1.753   5.985 -1.0188  0.2876 -0.0770
   26MOL   C55727607   3.069   1.756   6.048  0.3049  0.1472 -0.6442
   26MOL   C55827608   3.155   1.631   6.082 -0.0016  0.1710 -0.9734
   26MOL   C55927609   3.304   1.664   6.090 -0.2031 -0.7011  0.0229
   26MOL   C56027610   3.109   1.597   6.227  0.6872 -0.5872 -0.6422
   26MOL   C56127611   3.125   1.515   5.984  0.4275  0.4394  0.1032
   26MOL   C56227612   3.155   1.533   5.848 -0.1937  0.4305 -0.7946
   26MOL   C56327613   3.123   1.438   5.746  0.2748 -0.3121 -0.5339
   26MOL   C56427614   3.056   1.321   5.785 -0.1938  0.3013  0.1145
   26MOL   O56527615   3.001   1.234   5.694 -0.0573  0.0100  0.1797
   26MOL   C56627616   3.018   1.298   5.920  0.3196  0.1076 -0.2182
   26MOL   C56727617   3.060   1.393   6.023  0.2703 -0.7705  0.6250
   26MOL   C56827618   3.117   1.885   6.094  0.1211 -0.0436 -0.3105
   26MOL   C56927619   3.049   2.004   6.061 -0.1730 -0.6315  0.1235
   26MOL   C57027620   2.629   2.203   5.989  0.2923  0.1892  0.4825
   26MOL   C57127621   2.530   2.269   6.066 -0.5564  0.0504  0.2281
   26MOL   C57227622   2.484   2.425   6.562  0.5904  0.4645  0.5285
   26MOL   C57327623   2.471   2.378   6.694 -0.0961 -0.2127 -0.2917
   26MOL   H57427624   2.319   2.080   6.666  0.0308 -0.0634  0.2318
   26MOL   H57527625   2.333   2.161   6.406 -0.4389 -1.0023  0.3440
   26MOL   H57627626   2.659   2.216   6.375  0.4750 -3.1951  0.2717
   26MOL   H57727627   2.844   2.109   6.235  1.6355  2.4347 -0.9460
   26MOL   H57827628   2.766   1.871   5.936  0.1397 -0.8265  1.0050
   26MOL   H57927629   2.897   1.662   5.952 -2.1797 -0.1715  2.6359
   26MOL   H58027630   3.368   1.580   6.114  0.2799 -0.3422 -0.0005
   26MOL   H58127631   3.330   1.729   6.173  0.1311 -0.6206 -0.1433
   26MOL   H58227632   3.343   1.715   6.002  0.6956  0.3824  1.0385
   26MOL   H58327633   3.002   1.575   6.225  0.3932  0.7954 -0.8181
   26MOL   H58427634   3.164   1.514   6.271  0.4885  0.3668  1.4585
   26MOL   H58527635   3.117   1.676   6.303 -1.1969 -0.3413 -0.6808
   26MOL   H58627636   3.198   1.627   5.816  0.9494  0.7170  1.4821
   26MOL   H58727637   3.137   1.460   5.641 -2.2413 -1.1123 -1.0910
   26MOL   H58827638   2.961   1.213   5.953  0.9422  0.0219  0.6766
   26MOL   H58927639   3.034   1.369   6.125 -0.1814 -3.4460 -0.0845
   26MOL   H59027640   3.200   1.892   6.163 -3.2079 -1.6608  4.1551
   26MOL   H59127641   3.081   2.100   6.099  0.7938  0.2446 -2.7361
   26MOL   H59227642   2.611   2.203   5.882  2.5811  0.2203  0.0716
   26MOL   H59327643   2.447   2.319   6.019 -0.1074  1.2590  0.6902
   26MOL   H59427644   2.520   2.526   6.547  1.1926  0.2422  0.4616
   26MOL   H59527645   2.502   2.446   6.772  1.1806 -1.8485  0.6515
   26MOL   C59627646   3.088   1.144   5.645 -0.3201 -0.5148 -0.0208
   26MOL   C59727647   3.192   1.171   5.549 -0.0367  0.2127  0.0045
   26MOL   C59827648   3.284   1.075   5.513 -0.0787  0.7659  0.5199
   26MOL   C59927649   3.280   0.941   5.568 -0.3641 -0.1478 -0.0939
   26MOL   S60027650   3.406   0.818   5.537 -0.1281 -0.3683  0.6307
   26MOL   O60127651   3.444   0.847   5.398  0.3683 -0.4086 -0.2758
   26MOL   O60227652   3.348   0.692   5.574 -0.0941 -0.1867  0.7151
   26MOL   C60327653   3.554   0.858   5.643 -0.7197  0.2489 -0.1228
   26MOL   C60427654   3.549   0.940   5.758 -0.6275  0.0079  0.1729
   26MOL   C60527655   3.662   0.964   5.839  0.3166  0.4224  0.0338
   26MOL   C60627656   3.790   0.909   5.798  0.2137  0.1966  0.0971
   26MOL   O60727657   3.898   0.943   5.878 -0.1440 -0.1750 -0.1389
   26MOL   C60827658   3.896   0.927   6.009 -0.1767 -0.0292  0.3850
   26MOL   C60927659   3.865   0.803   6.068  0.1153 -0.3094 -0.3287
   26MOL   C61027660   3.865   0.792   6.208 -0.1024 -0.1321 -0.3111
   26MOL   C61127661   3.898   0.902   6.286 -0.0627 -0.0024  0.6696
   26MOL   C61227662   3.899   0.897   6.438  0.5819  0.2011  0.5302
   26MOL   C61327663   3.932   1.028   6.508 -0.0001 -0.3066  0.1323
   26MOL   C61427664   3.757   0.847   6.488  1.2814 -0.3867  0.0852
   26MOL   C61527665   4.007   0.783   6.487 -0.1460 -0.1012 -0.1368
   26MOL   C61627666   4.139   0.817   6.518 -0.2683 -0.3183  0.2429
   26MOL   C61727667   4.243   0.719   6.552 -0.0448  0.4082 -0.7737
   26MOL   C61827668   4.206   0.586   6.547 -0.4122 -0.9024  0.1262
   26MOL   O61927669   4.295   0.491   6.586 -0.4197  0.4418  0.0708
   26MOL   C62027670   4.075   0.550   6.512  0.8795 -0.0969 -0.2987
   26MOL   C62127671   3.972   0.641   6.491  0.8642 -0.6143  0.1248
   26MOL   C62227672   3.933   1.020   6.222 -0.5967 -0.2058  0.5090
   26MOL   C62327673   3.929   1.040   6.084 -0.1451  0.3284 -0.2942
   26MOL   C62427674   3.794   0.821   5.686  0.6939 -0.1049  0.3031
   26MOL   C62527675   3.677   0.800   5.609  0.5490 -0.3625 -0.4703
   26MOL   C62627676   3.177   0.908   5.659 -0.2149  0.2711 -0.0686
   26MOL   C62727677   3.080   1.012   5.690 -0.1812 -0.7875  0.4279
   26MOL   H62827678   3.226   1.267   5.511  2.3268  0.1647  1.8924
   26MOL   H62927679   3.363   1.105   5.445  1.2560 -0.0502  1.6959
   26MOL   H63027680   3.455   0.978   5.794 -0.4517 -0.6525  1.3608
   26MOL   H63127681   3.656   1.014   5.935 -0.3965 -2.5198  1.5781
   26MOL   H63227682   3.841   0.720   6.003  0.4434 -0.9280  0.3212
   26MOL   H63327683   3.836   0.697   6.251 -1.3722  1.2445  2.0172
   26MOL   H63427684   3.938   1.019   6.617  0.8393 -0.0422  0.1077
   26MOL   H63527685   3.860   1.106   6.482 -1.4397 -1.7131 -0.1869
   26MOL   H63627686   4.031   1.063   6.478 -0.1470 -2.3517 -2.9821
   26MOL   H63727687   3.713   0.759   6.440 -0.0225  0.3248 -0.0621
   26MOL   H63827688   3.751   0.822   6.594 -0.8746 -1.4140 -0.2421
   26MOL   H63927689   3.692   0.934   6.473  1.1596 -0.8327 -2.1993
   26MOL   H64027690   4.176   0.918   6.509 -0.5843 -0.3789 -2.0758
   26MOL   H64127691   4.344   0.744   6.582  0.9453 -1.0315 -2.7847
   26MOL   H64227692   4.046   0.446   6.504  1.1807 -0.2430  0.5408
   26MOL   H64327693   3.870   0.610   6.474  0.3225  0.8929  0.4830
   26MOL   H64427694   3.957   1.109   6.278 -0.6751  0.5748 -0.6837
   26MOL   H64527695   3.972   1.133   6.050  0.0201  0.1705 -0.5149
   26MOL   H64627696   3.891   0.785   5.656  1.4930  0.4682  2.1038
   26MOL   H64727697   3.677   0.738   5.521  0.1622  0.9577 -1.4157
   26MOL   H64827698   3.161   0.810   5.701  0.6514 -0.0424 -0.4560
   26MOL   H64927699   3.002   0.995   5.763  0.6591 -0.1439  1.4851
   26MOL   C65027700   4.352   0.513   6.710  0.4542 -0.6333  0.3970
   26MOL   C65127701   4.273   0.515   6.826  0.3479  0.0843 -0.2972
   26MOL   C65227702   4.339   0.548   6.951 -0.3933  0.0285  0.4260
   26MOL   C65327703   4.477   0.577   6.954  0.0022 -0.1387  0.5293
   26MOL   S65427704   4.567   0.614   7.110 -0.4507 -0.3230 -0.0559
   26MOL   O65527705   4.657   0.501   7.136  0.2465  0.3107 -0.2830
   26MOL   O65627706   4.462   0.657   7.206 -0.1336 -0.2729  0.0796
   26MOL   C65727707   4.658   0.757   7.073 -0.4015  0.2351 -0.4110
   26MOL   C65827708   4.601   0.872   7.018 -0.6151  0.3417  0.2905
   26MOL   C65927709   4.677   0.983   6.991  0.2498 -0.3279  0.0401
   26MOL   C66027710   4.817   0.977   7.003 -0.0048  0.2991  0.1338
   26MOL   O66127711   4.893   1.083   6.949 -0.5126 -0.3496  0.1524
   26MOL   C66227712   4.939   1.185   7.029 -0.7137 -0.1961  0.0174
   26MOL   C66327713   5.078   1.200   7.054 -0.3295  0.0794 -0.5641
   26MOL   C66427714   5.123   1.316   7.127  0.3467  0.7153  0.0260
   26MOL   C66527715   5.033   1.416   7.172  0.4056 -0.0711  0.7630
   26MOL   C66627716   5.092   1.544   7.242 -0.4101 -0.2622 -0.1043
   26MOL   C66727717   5.016   1.675   7.201 -0.8289  0.0676 -0.6757
   26MOL   C66827718   5.059   1.536   7.393  0.2074  0.7238  0.6864
   26MOL   C66927719   5.240   1.579   7.215 -0.1374  0.2967  0.8329
   26MOL   C67027720   5.331   1.613   7.316  0.1785 -0.2006 -0.3637
   26MOL   C67127721   5.468   1.622   7.292 -0.0522 -0.9240  0.4030
   26MOL   C67227722   5.517   1.583   7.171 -0.9481 -0.1737  0.0929
   26MOL   O67327723   5.655   1.584   7.158  0.1226  0.2982 -0.4186
   26MOL   C67427724   5.428   1.545   7.071  0.4005  0.4362  0.3134
   26MOL   C67527725   5.291   1.562   7.081  0.0178  0.0226  0.2589
   26MOL   C67627726   4.895   1.385   7.161 -0.6084  0.4719  0.3520
   26MOL   C67727727   4.847   1.276   7.082 -0.3525 -0.4668 -0.6633
   26MOL   C67827728   4.878   0.857   7.047  0.4302  1.2581  0.0682
   26MOL   C67927729   4.798   0.751   7.089  0.2989  0.4512 -0.0264
   26MOL   C68027730   4.554   0.553   6.839 -0.1510  0.1058  0.3116
   26MOL   C68127731   4.492   0.526   6.714  0.3130 -0.0092  0.6138
   26MOL   H68227732   4.168   0.495   6.819  0.0838  1.5485 -0.7048
   26MOL   H68327733   4.276   0.567   7.036 -0.7987 -0.3638  0.2146
   26MOL   H68427734   4.495   0.869   7.001 -0.3275  0.8115 -1.6445
   26MOL   H68527735   4.626   1.077   6.974  1.1614  0.6854  2.5752
   26MOL   H68627736   5.149   1.124   7.027  0.1265 -0.8557  3.0385
   26MOL   H68727737   5.229   1.317   7.149  0.1573  1.2923  0.9177
   26MOL   H68827738   4.907   1.675   7.205 -0.8403  1.6579 -0.6635
   26MOL   H68927739   5.036   1.694   7.095  0.4240  0.2162 -0.4237
   26MOL   H69027740   5.036   1.755   7.272 -1.2674 -2.1696  2.0683
   26MOL   H69127741   4.951   1.520   7.402  0.6216 -3.2664 -0.3229
   26MOL   H69227742   5.095   1.444   7.439 -1.0116 -0.5481 -0.8537
   26MOL   H69327743   5.076   1.621   7.459 -0.7554  0.3459  1.4413
   26MOL   H69427744   5.292   1.615   7.416  2.3975 -0.3241  0.5310
   26MOL   H69527745   5.536   1.649   7.371 -1.4090 -1.9686  1.9616
   26MOL   H69627746   5.466   1.521   6.973 -0.9654 -0.5831  0.0260
   26MOL   H69727747   5.228   1.534   6.997 -1.0811 -0.1247  1.1200
   26MOL   H69827748   4.819   1.458   7.184 -2.1338 -1.1372  0.5339
   26MOL   H69927749   4.743   1.276   7.054 -0.3251  1.2129 -0.8485
   26MOL   H70027750   4.985   0.844   7.049  0.3987  0.7832 -1.1285
   26MOL   H70127751   4.847   0.664   7.129 -1.5328 -0.0764  1.1466
   26MOL   H70227752   4.659   0.546   6.861 -0.1448  2.1213  0.9760
   26MOL   H70327753   4.553   0.514   6.626  1.8744  0.2082  1.6499
   26MOL   C70427754   5.714   1.706   7.142 -0.2823  0.4845 -0.2424
   26MOL   C70527755   5.674   1.790   7.037 -0.1226  0.3873  0.1070
   26MOL   C70627756   5.745   1.914   7.011 -0.2020  0.1380 -0.8482
   26MOL   C70727757   5.857   1.946   7.089 -0.0832 -0.3136 -0.2998
   26MOL   S70827758   5.943   2.097   7.063 -0.2772  0.0618  0.0634
   26MOL   O70927759   5.971   2.162   7.194 -0.9835  0.4459 -0.5899
   26MOL   O71027760   5.862   2.165   6.964 -0.1233 -0.2363  0.0238
   26MOL   C71127761   6.100   2.056   6.987 -0.1688  0.0601  0.0654
   26MOL   C71227762   6.149   1.924   6.980 -0.3542  0.2835  0.4220
   26MOL   C71327763   6.276   1.907   6.919  0.5753  0.3088  0.2048
   26MOL   C71427764   6.348   2.013   6.858 -0.0666  0.1773 -0.1847
   26MOL   O71527765   6.468   1.987   6.801  0.5650 -0.0130  0.0621
   26MOL   C71627766   6.470   1.898   6.697  0.3039 -0.4059 -0.5906
   26MOL   C71727767   6.373   1.898   6.595  0.3509  0.5233  0.4374
   26MOL   C71827768   6.385   1.806   6.493 -0.5256 -0.2890  0.0236
   26MOL   C71927769   6.496   1.716   6.481 -0.2951 -0.1611 -0.2327
   26MOL   C72027770   6.515   1.613   6.362  0.1806 -0.2038 -0.7221
   26MOL   C72127771   6.488   1.470   6.421  0.0211 -0.2456  0.0155
   26MOL   C72227772   6.419   1.636   6.239  0.1426 -0.1450 -0.6342
   26MOL   C72327773   6.654   1.632   6.301 -0.3099 -0.3932  0.4876
   26MOL   C72427774   6.690   1.760   6.245  0.4374 -0.2617  0.1248
   26MOL   C72527775   6.813   1.784   6.182  0.4170  0.6397  0.5724
   26MOL   C72627776   6.900   1.674   6.167  1.0061 -0.0303  0.6561
   26MOL   O72727777   7.015   1.694   6.100  0.0589  0.0705  0.3530
   26MOL   C72827778   6.869   1.553   6.228 -0.6282 -0.2164  0.7308
   26MOL   C72927779   6.746   1.531   6.295 -0.5603  0.3087 -0.0259
   26MOL   C73027780   6.601   1.732   6.580 -0.3158  0.7601  0.0210
   26MOL   C73127781   6.579   1.814   6.686 -0.6589 -0.2224  0.0061
   26MOL   C73227782   6.299   2.146   6.873  0.1911 -0.3454 -0.2118
   26MOL   C73327783   6.173   2.164   6.931  0.6630  0.3976 -0.3769
   26MOL   C73427784   5.899   1.863   7.198 -0.3533  0.1520  0.1032
   26MOL   C73527785   5.825   1.747   7.223  0.8989  0.0347 -0.9583
   26MOL   H73627786   5.598   1.757   6.969 -1.8752  2.1328  1.1653
   26MOL   H73727787   5.694   1.967   6.932 -1.8678  0.3690  0.3680
   26MOL   H73827788   6.104   1.838   7.028  0.6255 -1.0852 -1.0689
   26MOL   H73927789   6.324   1.810   6.923  0.4229  0.2421  0.4242
   26MOL   H74027790   6.287   1.963   6.596  0.9684  1.3483  0.8184
   26MOL   H74127791   6.298   1.797   6.429 -0.5651  0.5350 -0.0470
   26MOL   H74227792   6.552   1.458   6.508  1.6528  0.9418 -0.9950
   26MOL   H74327793   6.502   1.393   6.346  0.2822 -0.2355  0.0549
   26MOL   H74427794   6.389   1.451   6.464  0.8273 -0.9131  1.6227
   26MOL   H74527795   6.442   1.563   6.161  2.3068  1.0956 -1.1949
   26MOL   H74627796   6.312   1.628   6.257  0.2287 -1.1648 -0.5179
   26MOL   H74727797   6.442   1.736   6.204  3.5536 -0.5489  0.2131
   26MOL   H74827798   6.616   1.839   6.234  0.2666 -0.3128  0.8785
   26MOL   H74927799   6.839   1.882   6.142  0.5729 -0.5151 -2.3246
   26MOL   H75027800   6.945   1.477   6.229 -1.3480 -0.9247  1.9468
   26MOL   H75127801   6.728   1.436   6.343 -2.2035  1.0261  0.8403
   26MOL   H75227802   6.692   1.674   6.572 -0.7267  0.2337 -0.8878
   26MOL   H75327803   6.650   1.828   6.766 -0.2094  1.9191 -0.7265
   26MOL   H75427804   6.341   2.235   6.827  1.9796 -1.4395 -0.7560
   26MOL   H75527805   6.137   2.265   6.947  2.1814  0.6626  1.6899
   26MOL   H75627806   5.968   1.885   7.278 -1.3853  2.7659  0.3239
   26MOL   H75727807   5.856   1.691   7.310 -1.7435  0.0595  0.0417
   26MOL   C75827808   7.003   1.738   5.970  0.1234 -0.3171 -0.3375
   26MOL   C75927809   7.060   1.857   5.921 -0.3847 -0.0130 -0.5222
   26MOL   C76027810   7.032   1.906   5.790 -0.5344  0.5751  0.2623
   26MOL   C76127811   6.962   1.823   5.704  0.8810  0.5046 -0.3767
   26MOL   S76227812   6.931   1.884   5.534  0.1853  0.4162  0.0390
   26MOL   O76327813   6.987   2.019   5.531  0.1409 -0.1951 -0.5766
   26MOL   O76427814   6.788   1.861   5.499  0.7730 -0.4574 -0.3184
   26MOL   C76527815   7.040   1.789   5.423  0.0666  0.8676  0.3386
   26MOL   C76627816   7.176   1.778   5.457  0.2239 -0.5892 -0.3380
   26MOL   C76727817   7.260   1.703   5.370 -0.2754 -0.6229  0.0493
   26MOL   C76827818   7.215   1.659   5.247  0.2826  0.0494  0.0629
   26MOL   O76927819   7.290   1.582   5.166 -0.0175  0.2832 -0.3354
   26MOL   C77027820   7.348   1.476   5.226  0.0749  0.2405  0.3791
   26MOL   C77127821   7.272   1.377   5.289 -0.8651 -0.5524 -0.1126
   26MOL   C77227822   7.336   1.268   5.350  0.8682 -0.2589 -0.3401
   26MOL   C77327823   7.478   1.260   5.359  0.7665 -0.1176  0.1125
   26MOL   C77427824   7.546   1.142   5.428 -0.0891 -0.4302  0.9568
   26MOL   C77527825   7.512   1.163   5.578  0.8621  0.1696 -0.3777
   26MOL   C77627826   7.478   1.005   5.394 -0.5314 -1.1155  0.0082
   26MOL   C77727827   7.698   1.139   5.392  0.6808 -0.6169  0.3739
   26MOL   C77827828   7.794   1.165   5.494 -0.2788  0.3993  0.3046
   26MOL   C77927829   7.930   1.148   5.454 -0.3085  0.3872 -0.9184
   26MOL   C78027830   7.972   1.114   5.323 -0.1842 -0.3574 -0.6367
   26MOL   O78127831   8.105   1.117   5.292  0.3032  0.1551  0.2150
   26MOL   C78227832   7.873   1.091   5.227 -0.3330  0.6290 -1.1577
   26MOL   C78327833   7.737   1.113   5.254 -0.2534 -0.1427  0.3485
   26MOL   C78427834   7.549   1.372   5.306 -0.0391  0.5635  0.2164
   26MOL   C78527835   7.488   1.474   5.234  0.5968 -0.3244  0.7083
   26MOL   C78627836   7.078   1.679   5.207 -0.7532 -0.9042 -0.1850
   26MOL   C78727837   6.992   1.736   5.302 -0.1492 -0.9414 -0.2167
   26MOL   C78827838   6.913   1.704   5.749 -0.1383  0.7112  0.8674
   26MOL   C78927839   6.931   1.657   5.875 -0.4593  0.4108  0.3329
   26MOL   H79027840   7.108   1.929   5.985  0.2437  0.2450 -1.2636
   26MOL   H79127841   7.075   2.003   5.768 -0.6327  0.8754  1.3648
   26MOL   H79227842   7.211   1.816   5.552  1.7669  0.7539 -1.4168
   26MOL   H79327843   7.360   1.692   5.409 -0.5336 -3.2620  0.0912
   26MOL   H79427844   7.166   1.395   5.283 -0.9714 -1.2548 -0.4234
   26MOL   H79527845   7.276   1.191   5.397 -0.2965 -0.6365 -2.3567
   26MOL   H79627846   7.557   1.075   5.624  2.8164  1.0286 -0.6162
   26MOL   H79727847   7.407   1.167   5.608  1.0738 -1.0660  0.5815
   26MOL   H79827848   7.554   1.255   5.617  1.4701 -0.2068 -0.1291
   26MOL   H79927849   7.499   0.982   5.290  2.9046  0.2173  0.3267
   26MOL   H80027850   7.498   0.916   5.454  4.4706  0.6373  1.1557
   26MOL   H80127851   7.371   1.012   5.411 -0.7867  0.1228 -2.0025
   26MOL   H80227852   7.762   1.195   5.592 -0.2045 -1.1541  0.8270
   26MOL   H80327853   8.009   1.163   5.527  1.2264  2.7339 -3.0097
   26MOL   H80427854   7.909   1.072   5.127  2.3457 -1.9546  0.2295
   26MOL   H80527855   7.668   1.096   5.172  0.0380 -0.5426  0.1825
   26MOL   H80627856   7.656   1.363   5.320  0.1610  3.4287  0.8579
   26MOL   H80727857   7.549   1.551   5.188 -0.5930  0.2770  0.1142
   26MOL   H80827858   7.033   1.641   5.116 -0.4724  0.4673 -0.9187
   26MOL   H80927859   6.894   1.766   5.267 -0.5852 -1.0861  0.8863
   26MOL   H81027860   6.858   1.649   5.674  0.5653  1.2417 -0.0494
   26MOL   H81127861   6.891   1.559   5.896  0.9136 -0.6316 -1.6824
   26MOL   C81227862   8.179   1.024   5.356 -0.3900 -0.3353 -0.4465
   26MOL   C81327863   0.027   1.070   5.441  0.3886  1.0496  0.1396
   26MOL   C81427864   0.105   0.968   5.500  0.0797  0.4091  0.5874
   26MOL   C81527865   0.087   0.831   5.485  0.2422  0.5281  0.2814
   26MOL   S81627866   0.178   0.710   5.579 -0.1864  0.2810 -0.4412
   26MOL   O81727867   0.094   0.586   5.569  0.7816 -0.2955 -0.4807
   26MOL   O81827868   0.214   0.765   5.715  0.4182  0.3579 -0.1508
   26MOL   C81927869   0.328   0.691   5.485 -0.2668 -0.4604  0.1195
   26MOL   C82027870   0.446   0.743   5.532  0.6836  1.0609  0.7621
   26MOL   C82127871   0.570   0.713   5.479  0.4170  0.2131 -0.7201
   26MOL   C82227872   0.578   0.636   5.355  0.3553  0.0920 -0.0436
   26MOL   O82327873   0.693   0.616   5.286 -0.2987  0.3931  0.1222
   26MOL   C82427874   0.808   0.630   5.355 -0.0845  0.0118  0.5689
   26MOL   C82527875   0.854   0.514   5.419 -0.4732  0.8310 -0.1651
   26MOL   C82627876   0.954   0.515   5.516 -0.9549 -0.0624  0.6646
   26MOL   C82727877   1.025   0.635   5.535  0.1473 -0.1931  0.0798
   26MOL   C82827878   1.144   0.639   5.640  0.6482 -0.2152  0.6489
   26MOL   C82927879   1.274   0.606   5.569 -0.2962  0.2099 -0.4639
   26MOL   C83027880   1.155   0.781   5.704  0.0761  0.1140 -0.1464
   26MOL   C83127881   1.121   0.532   5.753 -0.1852  0.0927 -0.5379
   26MOL   C83227882   1.004   0.537   5.836 -0.5795  0.5147 -0.6590
   26MOL   C83327883   0.975   0.444   5.938 -0.1767  0.0813  0.3215
   26MOL   C83427884   1.063   0.340   5.968 -0.5172  0.3065  0.5032
   26MOL   O83527885   1.035   0.234   6.050  0.0397 -0.0551  0.6341
   26MOL   C83627886   1.190   0.337   5.900 -0.3952  0.0515 -0.2649
   26MOL   C83727887   1.217   0.433   5.795 -0.3722 -0.0613 -0.1850
   26MOL   C83827888   0.990   0.750   5.461 -0.1835 -0.3103 -0.1001
   26MOL   C83927889   0.880   0.748   5.368 -0.5709  0.3670 -0.1311
   26MOL   C84027890   0.461   0.584   5.299 -0.5413 -0.1544 -0.0163
   26MOL   C84127891   0.335   0.604   5.371  0.4772  0.3074 -0.2566
   26MOL   C84227892   8.237   0.793   5.401  1.1211  0.3351 -0.5889
   26MOL   C84327893   8.163   0.884   5.327  0.3510 -0.6493  0.2300
   26MOL   H84427894   0.049   1.175   5.455  0.2707  0.8390  2.0115
   26MOL   H84527895   0.188   1.003   5.561  0.9138 -3.5287  1.8782
   26MOL   H84627896   0.439   0.817   5.610 -0.3666  3.0962 -1.1954
   26MOL   H84727897   0.653   0.772   5.513 -1.3219  1.4515  1.4670
   26MOL   H84827898   0.804   0.419   5.409  0.4559  0.3715 -0.5719
   26MOL   H84927899   0.965   0.427   5.577 -0.7708  0.7713  1.8320
   26MOL   H85027900   1.265   0.509   5.519 -1.0542 -0.1197  0.3020
   26MOL   H85127901   1.359   0.602   5.637 -1.3745 -0.2984  0.8783
   26MOL   H85227902   1.309   0.677   5.494 -0.4634  0.9802  0.1719
   26MOL   H85327903   1.059   0.816   5.744 -0.4060 -2.3005  0.8534
   26MOL   H85427904   1.234   0.773   5.778  0.9116 -1.5833 -1.2108
   26MOL   H85527905   1.184   0.853   5.627  0.0535 -0.1444 -0.3948
   26MOL   H85627906   0.930   0.613   5.816  0.4153  1.0942 -2.2410
   26MOL   H85727907   0.879   0.444   5.987  0.2559 -1.3911  1.2148
   26MOL   H85827908   1.261   0.259   5.924  0.4176  1.1633  1.0069
   26MOL   H85927909   1.313   0.428   5.745 -0.3685  1.7958 -0.4002
   26MOL   H86027910   1.044   0.842   5.477  3.3812 -2.6253  1.7491
   26MOL   H86127911   0.849   0.840   5.320  0.1543  0.0487 -1.2232
   26MOL   H86227912   0.462   0.539   5.201  0.9286 -1.0851  0.4182
   26MOL   H86327913   0.241   0.566   5.336  1.6197 -1.3012 -1.6538
   26MOL   H86427914   8.223   0.688   5.383  0.2484  0.0619  1.5092
   26MOL   H86527915   8.090   0.846   5.256  1.1430 -2.0815  0.1706
   26MOL   C86627916   0.970   0.261   6.168  0.2519 -0.4559  0.2841
   26MOL   C86727917   1.048   0.288   6.285 -0.6045 -0.9947 -0.3592
   26MOL   C86827918   0.985   0.325   6.408  0.0720  0.0366  1.0178
   26MOL   C86927919   0.848   0.345   6.412  0.1319  0.3194  0.7751
   26MOL   S87027920   0.760   0.379   6.568 -0.6180  0.0836  0.6062
   26MOL   O87127921   0.866   0.417   6.663  0.1492 -0.7600 -0.3990
   26MOL   O87227922   0.677   0.262   6.601  0.6959  0.5966  0.0397
   26MOL   C87327923   0.649   0.517   6.534  0.0457 -1.2612 -0.7724
   26MOL   C87427924   0.687   0.637   6.473  0.1584 -0.0818 -0.1613
   26MOL   C87527925   0.591   0.725   6.428  0.1774  0.1628 -0.4549
   26MOL   C87627926   0.451   0.696   6.435 -0.0134  0.2519 -0.0178
   26MOL   O87727927   0.362   0.773   6.371  0.0138  0.0613  0.4461
   26MOL   C87827928   0.282   0.712   6.277 -0.1536 -0.0887  0.7150
   26MOL   C87927929   0.324   0.630   6.167  0.7404  0.2642 -0.3449
   26MOL   C88027930   0.239   0.565   6.075  0.2580 -0.5121  0.3292
   26MOL   C88127931   0.099   0.590   6.086  0.2515  0.4419 -0.0303
   26MOL   C88227932   8.246   0.505   6.008 -0.8111  0.2732 -0.0105
   26MOL   C88327933   8.168   0.624   5.935 -0.0175 -0.0635 -0.7750
   26MOL   C88427934   0.053   0.423   5.893  0.2733 -0.4136 -1.3078
   26MOL   C88527935   8.149   0.413   6.093  1.3453  0.7147  0.4723
   26MOL   C88627936   8.038   0.352   6.027 -0.3321 -0.2375 -0.1226
   26MOL   C88727937   7.950   0.280   6.101 -0.3413  0.7468 -0.8105
   26MOL   C88827938   7.977   0.263   6.238  0.5074 -0.0363 -0.0092
   26MOL   O88927939   7.877   0.194   6.306  0.3507 -0.2864  0.2729
   26MOL   C89027940   8.090   0.316   6.306  0.1548 -0.9872 -0.0479
   26MOL   C89127941   8.177   0.387   6.228 -1.1084 -0.0336  0.1565
   26MOL   C89227942   0.050   0.674   6.193 -0.3510  0.2356 -0.4295
   26MOL   C89327943   0.142   0.740   6.283  0.4474 -0.1871 -0.3463
   26MOL   C89427944   0.413   0.579   6.500 -0.7242 -0.2896 -0.0950
   26MOL   C89527945   0.514   0.500   6.566  1.0127  0.7471  0.4839
   26MOL   C89627946   0.772   0.315   6.297  0.3844  0.2871  0.0845
   26MOL   C89727947   0.827   0.273   6.178 -0.4594  0.1088 -0.0908
   26MOL   H89827948   1.154   0.287   6.264 -0.4609  0.9311  0.1207
   26MOL   H89927949   1.047   0.347   6.493  0.8760  0.2519  0.3830
   26MOL   H90027950   0.791   0.663   6.456  0.2225 -0.7584 -0.8821
   26MOL   H90127951   0.627   0.814   6.379 -1.7073 -0.1885 -2.5897
   26MOL   H90227952   0.430   0.611   6.167  0.7601 -0.1734  4.2981
   26MOL   H90327953   0.270   0.486   6.008  1.2525  1.2081 -1.3058
   26MOL   H90427954   8.235   0.687   5.876 -0.3800  1.4065  0.3395
   26MOL   H90527955   8.116   0.682   6.011  0.6748 -0.4409  0.0038
   26MOL   H90627956   8.087   0.592   5.870 -0.3723  1.7821 -1.2686
   26MOL   H90727957   8.227   0.374   5.836 -2.7543 -1.0044  3.1698
   26MOL   H90827958   0.114   0.489   5.832  1.5354 -1.2874 -1.0068
   26MOL   H90927959   0.114   0.346   5.941 -1.4162 -2.1957 -1.9288
   26MOL   H91027960   8.019   0.363   5.922  0.5681 -0.3482 -0.3046
   26MOL   H91127961   7.862   0.233   6.059 -0.6907 -1.3856  2.2064
   26MOL   H91227962   8.102   0.302   6.412  3.1430 -3.4315 -0.6293
   26MOL   H91327963   0.012   0.430   6.273  1.1488 -1.9587 -2.2777
   26MOL   H91427964   8.198   0.692   6.212  0.0673  1.6430  0.6126
   26MOL   H91527965   0.105   0.807   6.359  2.5075  0.0339  0.5135
   26MOL   H91627966   0.308   0.557   6.490 -0.6664 -1.1769  1.1866
   26MOL   H91727967   0.477   0.411   6.613  2.4145 -0.5453 -0.8193
   26MOL   H91827968   0.666   0.327   6.309  0.4070  0.5201  0.0580
   26MOL   H91927969   0.759   0.237   6.102 -0.8445  0.4696  0.0837
   26MOL   C92027970   7.889   0.063   6.352 -1.1662 -0.6323  0.7333
   26MOL   C92127971   7.999   0.016   6.429  0.0075  0.5209  0.9314
   26MOL   C92227972   7.984   8.140   6.482 -0.0021 -0.4654 -0.3518
   26MOL   C92327973   7.868   8.068   6.468 -0.0361 -0.3798 -0.2517
   26MOL   S92427974   7.871   7.906   6.537 -0.3532 -0.1069  0.5466
   26MOL   O92527975   8.007   7.849   6.506 -0.5400  0.0085  0.4394
   26MOL   O92627976   7.753   7.839   6.480  0.9052 -0.0065 -0.0889
   26MOL   C92727977   7.856   7.918   6.714 -0.2517 -0.5167  0.0958
   26MOL   C92827978   7.830   8.043   6.770  0.4699  0.1411 -0.7543
   26MOL   C92927979   7.836   8.056   6.916 -0.2605  0.2977 -0.5247
   26MOL   C93027980   7.859   7.937   6.992  0.3593  0.5767  0.1872
   26MOL   O93127981   7.857   7.945   7.128  0.0067  0.2974 -0.2227
   26MOL   C93227982   7.765   7.869   7.198 -0.7195  0.3481 -1.0286
   26MOL   C93327983   7.645   7.932   7.230 -0.3637 -0.2933 -0.1734
   26MOL   C93427984   7.545   7.871   7.309 -0.0875 -0.4170  0.7483
   26MOL   C93527985   7.574   7.739   7.353  0.0962 -0.4279  0.2680
   26MOL   C93627986   7.470   7.665   7.423  0.2182  0.3946  0.6850
   26MOL   C93727987   7.344   7.641   7.334 -0.3032  0.1024 -0.1300
   26MOL   C93827988   7.515   7.524   7.468 -0.2124 -0.1738  0.2816
   26MOL   C93927989   7.444   7.745   7.549  0.1594 -0.1857 -0.9325
   26MOL   C94027990   7.541   7.758   7.649  0.2711 -0.2089  0.1756
   26MOL   C94127991   7.518   7.842   7.755 -0.4054  0.4022  1.1168
   26MOL   C94227992   7.395   7.906   7.773 -0.5518  0.4637 -0.2768
   26MOL   O94327993   7.369   7.976   7.883 -0.5194  0.4833  0.3887
   26MOL   C94427994   7.300   7.896   7.674  0.4425  0.5225 -0.4546
   26MOL   C94527995   7.321   7.819   7.559 -0.7871  0.0399 -0.6732
   26MOL   C94627996   7.699   7.678   7.329 -0.1487 -0.3927 -1.1251
   26MOL   C94727997   7.796   7.743   7.252 -0.0010  0.7828  0.2257
   26MOL   C94827998   7.883   7.812   6.924 -0.2092  0.0447  0.6059
   26MOL   C94927999   7.882   7.806   6.782  0.2736  0.4506  0.3479
   26MOL   C95028000   7.763   8.113   6.382 -0.2680  0.2450  0.3479
   26MOL   C95128001   7.777   8.241   6.327  0.4620 -0.0804  0.5541
   26MOL   H95228002   8.087   0.070   6.461  0.4443 -0.1554  0.8605
   26MOL   H95328003   8.057   8.111   6.556  0.2044  0.9764  0.0328
   26MOL   H95428004   7.824   8.137   6.717 -0.4796  1.8347  2.2470
   26MOL   H95528005   7.816   8.157   6.950 -1.4542  0.4821 -1.7514
   26MOL   H95628006   7.616   8.023   7.178 -1.0376  0.0266  0.7392
   26MOL   H95728007   7.449   7.914   7.334 -0.6107 -1.5937  0.8119
   26MOL   H95828008   7.293   7.731   7.302 -2.0998  0.9280  4.6474
   26MOL   H95928009   7.279   7.578   7.395 -0.4902 -1.5170 -1.9522
   26MOL   H96028010   7.360   7.587   7.241 -2.5505  0.3310 -0.6738
   26MOL   H96128011   7.608   7.510   7.522 -0.0469 -0.9789 -0.1983
   26MOL   H96228012   7.432   7.493   7.532 -2.0131  1.9755 -0.9044
   26MOL   H96328013   7.508   7.451   7.387  0.0792 -1.7845  1.7050
   26MOL   H96428014   7.635   7.708   7.632  0.4014  0.3257 -0.7251
   26MOL   H96528015   7.590   7.846   7.835  0.6783 -2.0285  0.3284
   26MOL   H96628016   7.203   7.943   7.685  0.9541  1.5450 -0.2992
   26MOL   H96728017   7.237   7.827   7.491 -0.7956  2.1798 -0.4415
   26MOL   H96828018   7.719   7.576   7.359 -0.6312 -0.0897  0.2694
   26MOL   H96928019   7.881   7.680   7.229 -1.0100 -0.6521  0.3810
   26MOL   H97028020   7.886   7.721   6.982  0.0445 -0.7012 -0.5514
   26MOL   H97128021   7.892   7.718   6.720 -0.0732  0.6049  0.0740
   26MOL   H97228022   7.678   8.049   6.362 -1.7478  2.6897 -1.4306
   26MOL   H97328023   7.694   0.019   6.266  1.5540 -1.1499 -1.5641
   26MOL   C97428024   7.372   8.118   7.865 -0.2663  0.6360 -0.6394
   26MOL   C97528025   7.249   8.184   7.858 -0.3386 -0.0578 -0.0129
   26MOL   C97628026   7.250   0.070   7.834 -0.6048 -0.0211  0.4252
   26MOL   C97728027   7.371   0.138   7.823 -0.0234 -0.5586  0.2255
   26MOL   S97828028   7.377   0.307   7.755  0.0051 -0.1302  0.0584
   26MOL   O97928029   7.497   0.374   7.811  0.4552  0.1060 -0.1819
   26MOL   O98028030   7.243   0.370   7.762 -0.4186 -0.5268 -0.0101
   26MOL   C98128031   7.413   0.278   7.577  0.2429  0.1794  0.0581
   26MOL   C98228032   7.369   0.159   7.512 -0.9611  0.8899 -0.6644
   26MOL   C98328033   7.401   0.135   7.377  0.2444  0.5513  0.0113
   26MOL   C98428034   7.469   0.232   7.300 -0.2827 -0.5145 -0.0806
   26MOL   O98528035   7.474   0.219   7.158 -0.2101  0.2130  0.0216
   26MOL   C98628036   7.560   0.282   7.086 -0.0780 -0.7002  0.1120
   26MOL   C98728037   7.680   0.216   7.053 -0.1239  0.1340 -0.7364
   26MOL   C98828038   7.772   0.276   6.969 -0.1216 -0.3081 -0.0330
   26MOL   C98928039   7.741   0.406   6.903 -0.8305 -0.0678 -0.4595
   26MOL   C99028040   7.832   0.465   6.793  0.6345 -0.7588  0.4128
   26MOL   C99128041   7.811   0.367   6.676 -0.5735 -0.0749  0.3891
   26MOL   C99228042   7.790   0.608   6.740  0.5612  0.6559 -0.2158
   26MOL   C99328043   7.976   0.483   6.845  0.3259 -0.3637 -0.0286
   26MOL   C99428044   8.009   0.537   6.974 -0.3436  0.2639  0.0091
   26MOL   C99528045   8.145   0.538   7.016  0.0711 -0.5831  0.7812
   26MOL   C99628046   8.251   0.492   6.931 -0.4800 -0.1344 -0.1484
   26MOL   O99728047   0.127   0.500   6.972 -0.5035 -0.1192  0.2747
   26MOL   C99828048   8.216   0.450   6.797  0.3598 -0.2783  0.0652
   26MOL   C99928049   8.081   0.433   6.760  0.3486 -0.2307 -0.4767
   26MOL     C128050   7.617   0.465   6.933 -0.5990  0.6079  0.4390
   26MOL     C228051   7.534   0.414   7.033 -0.3350  0.2200  0.2402
   26MOL     C328052   7.509   0.348   7.364 -0.0007 -0.9696 -0.0703
   26MOL     C428053   7.487   0.373   7.502 -0.3970 -0.0192  0.1256
   26MOL     C528054   7.492   0.082   7.837  0.1749 -0.0642 -0.3732
   26MOL     C628055   7.494   8.189   7.855 -0.2444 -0.5760  0.3272
   26MOL     H728056   7.158   8.126   7.857 -0.7226  0.5594 -1.5762
   26MOL     H828057   7.158   0.125   7.837 -0.0348  0.9945 -0.3986
   26MOL     H928058   7.322   0.075   7.561  0.7405 -0.3600 -1.1284
   26MOL    H1028059   7.387   0.042   7.322  0.1435  0.9339 -0.6165
   26MOL    H1128060   7.703   0.120   7.097  3.8297  0.5093 -1.7136
   26MOL    H1228061   7.861   0.220   6.945  1.3325  2.6333 -1.7359
   26MOL    H1328062   7.708   0.344   6.652 -0.3289 -1.7751  0.9044
   26MOL    H1428063   7.854   0.269   6.698 -0.3634 -0.1383 -0.2894
   26MOL    H1528064   7.853   0.398   6.580  0.3399 -0.4156  0.6720
   26MOL    H1628065   7.694   0.602   6.688  2.1881  2.6429 -3.6287
   26MOL    H1728066   7.789   0.689   6.813 -0.8202  1.4724 -1.1262
   26MOL    H1828067   7.855   0.653   6.666  1.3265 -1.0877 -0.6270
   26MOL    H1928068   7.934   0.579   7.039  0.2956  1.1801  0.1649
   26MOL    H2028069   8.164   0.570   7.118 -1.2484  0.6728  0.6306
   26MOL    H2128070   0.026   0.418   6.716  0.8416 -1.1731  0.7848
   26MOL    H2228071   8.055   0.399   6.661 -1.0853  1.0544 -0.5607
   26MOL    H2328072   7.588   0.556   6.883 -0.9932  0.4879  0.4508
   26MOL    H2428073   7.451   0.474   7.066 -1.8427 -1.9627  0.5286
   26MOL    H2528074   7.573   0.410   7.303  1.0475 -1.6258  0.3430
   26MOL    H2628075   7.527   0.456   7.558 -0.9884 -0.0819  0.6456
   26MOL    H2728076   7.583   0.137   7.817 -0.5427  1.1264 -0.3722
   26MOL    H2828077   7.585   8.130   7.860 -1.7538 -3.1524 -1.5320
   26MOL    C2928078   0.216   0.397   6.943 -0.0030  0.5697 -0.1437
   26MOL    C3028079   0.341   0.430   6.900 -0.3419  0.1403  0.1183
   26MOL    C3128080   0.438   0.330   6.892 -0.9033 -0.5691 -0.3707
   26MOL    C3228081   0.420   0.203   6.952 -0.1864 -0.9625  0.2183
   26MOL    S3328082   0.559   0.090   6.971  0.7814  0.0032 -0.0722
   26MOL    O3428083   0.548   0.042   7.107 -0.5492  0.5680 -0.3072
   26MOL    O3528084   0.680   0.157   6.925  0.4561  0.1418  0.0908
   26MOL    C3628085   0.527   8.209   6.853 -0.6941  0.3972  0.0266
   26MOL    C3728086   0.464   8.242   6.731 -0.4582 -0.4681 -0.1498
   26MOL    C3828087   0.465   8.148   6.628  0.5888 -0.4597 -0.1658
   26MOL    C3928088   0.521   8.019   6.643 -0.8450 -0.5635  0.3403
   26MOL    O4028089   0.536   7.942   6.533  0.4821  0.3283  0.6105
   26MOL    C4128090   0.435   7.854   6.508  0.4040 -0.3950 -0.0193
   26MOL    C4228091   0.329   7.883   6.418 -0.1422  0.0229 -0.2600
   26MOL    C4328092   0.225   7.793   6.401  1.1421  0.8698  0.0464
   26MOL    C4428093   0.229   7.665   6.465 -0.8156 -0.3096 -0.1286
   26MOL    C4528094   0.115   7.562   6.449  0.9680  0.7062  0.3503
   26MOL    C4628095   0.013   7.594   6.339  0.0356 -0.9064  0.5084
   26MOL    C4728096   0.173   7.434   6.402 -0.2811  0.0138  0.3703
   26MOL    C4828097   0.041   7.535   6.583 -0.3262  0.1296 -0.7086
   26MOL    C4928098   8.252   7.643   6.663 -0.4044  0.7024 -0.3086
   26MOL    C5028099   8.177   7.626   6.783 -0.2087 -0.0887  0.5006
   26MOL    C5128100   8.152   7.498   6.825 -0.3155  0.3733 -0.6673
   26MOL    O5228101   8.088   7.475   6.940  0.4445 -0.3799  0.3255
   26MOL    C5328102   8.185   7.386   6.748  0.8591  0.0952  0.0268
   26MOL    C5428103   0.007   7.400   6.629 -0.5715  0.3180 -0.3628
   26MOL    C5528104   0.332   7.638   6.552 -0.1786  0.6130 -0.5014
   26MOL    C5628105   0.435   7.730   6.572 -0.9530  0.1595  0.0668
   26MOL    C5728106   0.581   7.992   6.768  0.5528 -1.2096  0.1019
   26MOL    C5828107   0.580   8.083   6.874 -0.2144 -0.5948 -0.4797
   26MOL    C5928108   0.293   0.170   6.998  0.4266 -0.1290  0.3196
   26MOL    C6028109   0.188   0.272   6.995 -0.1193  0.5613  0.2304
   26MOL    H6128110   0.365   0.533   6.876  2.9039 -0.5526  0.0945
   26MOL    H6228111   0.538   0.349   6.854 -0.0725 -0.2944  1.8468
   26MOL    H6328112   0.417   0.085   6.715  0.3799 -0.0887 -0.3440
   26MOL    H6428113   0.426   8.178   6.532 -2.8656  0.5403  1.4661
   26MOL    H6528114   0.314   7.975   6.364 -0.2473  0.4474  0.4806
   26MOL    H6628115   0.149   7.817   6.329  0.8433 -0.4939 -0.1087
   26MOL    H6728116   8.187   7.519   6.328 -2.3903  1.5255  0.7480
   26MOL    H6828117   0.053   7.608   6.239  1.0699 -0.7037  0.9458
   26MOL    H6928118   8.211   7.685   6.362 -0.6868 -0.8783 -1.2951
   26MOL    H7028119   0.107   7.355   6.367 -0.4561  0.2317  0.2072
   26MOL    H7128120   0.217   7.454   6.304  0.8068  0.7231  0.9900
   26MOL    H7228121   0.240   7.378   6.468  0.3005  1.5782  1.1459
   26MOL    H7328122   0.033   7.737   6.621  2.1638 -0.0288  0.0541
   26MOL    H7428123   8.151   7.711   6.845  1.7380  1.6926 -1.0536
   26MOL    H7528124   8.158   7.287   6.781  1.4801  0.1567  0.7296
   26MOL    H7628125   0.027   7.312   6.571 -0.5546 -0.0380  0.1774
   26MOL    H7728126   0.341   7.551   6.616  1.6516  1.7957  0.8843
   26MOL    H7828127   0.507   7.717   6.652 -1.1984 -0.6972  0.1520
   26MOL    H7928128   0.644   7.904   6.771  2.3634  0.1051  1.4240
   26MOL    H8028129   0.628   8.051   6.965  1.5173 -0.8397 -1.4553
   26MOL    H8128130   0.272   0.069   7.029 -0.9844 -1.5576 -4.9125
   26MOL    H8228131   0.087   0.247   7.023 -0.1031 -0.0544 -0.2467
   26MOL    H8328132   8.051   7.390   6.957 -2.2709  0.4710 -0.9834
   27MOL     C128133   7.509   1.365   3.510 -0.2839  0.0772  0.1579
   27MOL     C228134   7.594   1.393   3.399 -0.5461  0.3648 -0.4942
   27MOL     C328135   7.646   1.523   3.377 -0.0668  0.6280 -0.0225
   27MOL     C428136   7.598   1.626   3.461  0.7281 -0.0036  0.7259
   27MOL     S528137   7.645   1.796   3.435 -0.2815  0.2783 -0.2711
   27MOL     O628138   7.525   1.876   3.394 -0.2570  0.1670 -0.5798
   27MOL     O728139   7.759   1.800   3.346  0.8072  0.5034  0.2011
   27MOL     C828140   7.701   1.855   3.589 -0.5179 -0.0697  0.5962
   27MOL     C928141   7.786   1.766   3.656 -0.2427 -0.1086  0.6657
   27MOL    C1028142   7.832   1.799   3.784  0.1795 -0.1515  0.6174
   27MOL    C1128143   7.794   1.924   3.840 -0.1104 -0.3307  0.4685
   27MOL    O1228144   7.810   1.943   3.974 -0.2149 -0.1206  0.3259
   27MOL    C1328145   7.933   1.931   4.034  0.8348  0.4554  0.1191
   27MOL    C1428146   8.057   1.935   3.964  0.2541  0.8698  0.4637
   27MOL    C1528147   8.180   1.931   4.037 -0.4562 -0.5925 -0.2115
   27MOL    C1628148   8.179   1.918   4.177 -0.4881  0.3515  0.0036
   27MOL    C1728149   0.057   1.914   4.258  0.6048  0.0629 -0.3848
   27MOL    C1828150   0.150   2.032   4.212 -0.4001  0.3860  0.2056
   27MOL    C1928151   0.038   1.943   4.411  0.2916 -0.1701  0.9649
   27MOL    C2028152   0.126   1.779   4.244 -0.2539  0.6528  0.0943
   27MOL    C2128153   0.053   1.662   4.231  0.1830  0.1328 -0.1222
   27MOL    C2228154   0.111   1.536   4.229 -0.2317  0.4450  0.0312
   27MOL    C2328155   0.253   1.534   4.258  0.1676  0.4115  0.2051
   27MOL    O2428156   0.312   1.411   4.287 -0.3367  0.0889 -0.1646
   27MOL    C2528157   0.332   1.646   4.282 -0.2143 -0.4307 -0.1675
   27MOL    C2628158   0.263   1.767   4.268  0.4551 -0.2842 -0.3970
   27MOL    C2728159   8.049   1.910   4.236  0.5000 -0.3589  0.1362
   27MOL    C2828160   7.928   1.912   4.165 -0.7155 -0.1461 -1.1417
   27MOL    C2928161   7.710   2.019   3.770 -0.4779 -0.1537  0.0292
   27MOL    C3028162   7.673   1.984   3.639 -0.0701  0.3199  0.0585
   27MOL    C3128163   7.506   1.596   3.564 -0.0264  0.0227  0.1993
   27MOL    C3228164   7.467   1.466   3.596 -0.3822 -0.7481 -0.3040
   27MOL    H3328165   7.618   1.304   3.342  0.3149 -0.2206  0.7366
   27MOL    H3428166   7.715   1.547   3.298 -0.1799 -1.8406 -0.9045
   27MOL    H3528167   7.816   1.673   3.611  0.8803 -0.6866  2.5663
   27MOL    H3628168   7.912   1.737   3.820  3.1978  2.3075 -1.5771
   27MOL    H3728169   8.058   1.945   3.857 -0.1436  1.3580  0.5032
   27MOL    H3828170   0.018   1.927   3.980  0.7061 -0.0809  1.5605
   27MOL    H3928171   0.095   2.126   4.212 -2.9122 -0.9220 -4.0883
   27MOL    H4028172   0.202   2.026   4.117 -2.4096  0.4837 -0.9442
   27MOL    H4128173   0.227   2.048   4.287 -1.3759 -1.0188  1.5611
   27MOL    H4228174   0.001   2.044   4.427 -2.1211 -0.4793 -2.1482
   27MOL    H4328175   8.223   1.870   4.455 -2.1672  1.6808  0.2891
   27MOL    H4428176   0.131   1.932   4.468  0.2699 -0.0851  1.0154
   27MOL    H4528177   8.199   1.669   4.221  0.2607  1.1759 -0.2676
   27MOL    H4628178   0.059   1.442   4.220  1.2628 -0.2420 -1.8322
   27MOL    H4728179   0.437   1.635   4.300 -0.8625 -0.0936  4.4895
   27MOL    H4828180   0.325   1.853   4.286 -0.9577  0.4125  1.2538
   27MOL    H4928181   8.048   1.891   4.342  1.2597 -1.5697 -0.0678
   27MOL    H5028182   7.835   1.894   4.216 -0.0884 -1.1092 -0.2970
   27MOL    H5128183   7.675   2.112   3.813 -3.1133 -1.0940  0.0349
   27MOL    H5228184   7.617   2.054   3.578 -3.2855 -1.8814  0.3551
   27MOL    H5328185   7.464   1.673   3.627 -0.2216 -0.6540  0.9133
   27MOL    H5428186   7.406   1.437   3.680  0.4145 -0.0501  0.5276
   27MOL    H5528187   7.469   1.265   3.522  1.0613 -0.4809  0.0699
   27MOL    C5628188   0.275   1.301   4.221 -0.2223  0.4107  0.5618
   27MOL    C5728189   0.199   1.204   4.285 -0.6899 -0.0347  0.1047
   27MOL    C5828190   0.146   1.088   4.219  0.6953 -0.2089  0.2290
   27MOL    C5928191   0.161   1.087   4.081 -0.4087  0.2156 -0.1846
   27MOL    S6028192   0.093   0.947   3.987 -0.7306  0.1592 -0.1670
   27MOL    O6128193   0.053   0.833   4.077  0.1150 -0.0697 -0.1113
   27MOL    O6228194   0.174   0.906   3.870 -0.2413  0.2933  0.2249
   27MOL    C6328195   8.198   1.003   3.902  0.5744  0.3568  0.0778
   27MOL    C6428196   8.194   1.133   3.851  0.3625  0.5049 -0.2396
   27MOL    C6528197   8.086   1.170   3.773 -0.3098 -0.3994 -0.1952
   27MOL    C6628198   7.977   1.084   3.761  0.4087 -0.1803  0.7577
   27MOL    O6728199   7.855   1.125   3.698  0.3887 -0.3511 -0.1705
   27MOL    C6828200   7.832   1.084   3.570 -0.2299 -0.1345  0.3190
   27MOL    C6928201   7.764   0.968   3.539  0.2858 -0.2369 -0.6889
   27MOL    C7028202   7.742   0.940   3.400  0.0246 -0.7684 -0.9101
   27MOL    C7128203   7.784   1.028   3.295  0.2587 -0.3360  0.0741
   27MOL    C7228204   7.760   0.989   3.144 -0.4729 -0.0195 -0.1997
   27MOL    C7328205   7.624   1.053   3.104  1.1280  0.2754  0.3606
   27MOL    C7428206   7.861   1.039   3.045  0.5013  0.1851 -0.3320
   27MOL    C7528207   7.759   0.829   3.138  1.0656 -0.5814 -0.5455
   27MOL    C7628208   7.876   0.763   3.182  0.1017  0.1857  0.4108
   27MOL    C7728209   7.873   0.626   3.186  0.2621  0.1988 -0.2104
   27MOL    C7828210   7.769   0.552   3.133 -0.5339 -0.2100 -0.1043
   27MOL    O7928211   7.771   0.413   3.131  0.5798 -0.7622 -0.2773
   27MOL    C8028212   7.652   0.614   3.091 -0.5190  0.0815 -0.0710
   27MOL    C8128213   7.650   0.755   3.093 -0.3135 -0.5463  0.2382
   27MOL    C8228214   7.857   1.144   3.333  0.0857  0.1140  0.0272
   27MOL    C8328215   7.886   1.169   3.466 -0.7400  0.2943 -0.1828
   27MOL    C8428216   7.987   0.947   3.803  0.7155 -0.3269  0.1738
   27MOL    C8528217   8.098   0.908   3.880 -0.3400  0.1043 -0.3805
   27MOL    C8628218   0.246   1.178   4.015  0.4447 -0.4444 -0.7252
   27MOL    C8728219   0.301   1.287   4.082  0.3579 -0.3880  0.4830
   27MOL    H8828220   0.167   1.215   4.388 -0.1181  0.0099  0.2783
   27MOL    H8928221   0.080   1.013   4.260 -0.8743  0.3058 -1.3115
   27MOL    H9028222   0.032   1.188   3.869  0.7633 -0.5258  0.9761
   27MOL    H9128223   8.093   1.267   3.726 -1.6428 -0.2970 -0.1938
   27MOL    H9228224   7.732   0.897   3.614  0.9272 -2.2224 -2.2494
   27MOL    H9328225   7.682   0.856   3.368  1.0233 -2.0265  0.3852
   27MOL    H9428226   7.591   1.031   3.002  1.4443  1.1424  0.0638
   27MOL    H9528227   7.631   1.162   3.105 -1.5880  0.4566  1.4726
   27MOL    H9628228   7.550   1.016   3.174  2.0260 -2.0505  0.1252
   27MOL    H9728229   7.856   1.148   3.038  0.2284  0.2024  0.1241
   27MOL    H9828230   7.960   1.010   3.080  0.4963  0.6926  0.1127
   27MOL    H9928231   7.840   1.002   2.945  0.2479  2.0627 -0.9953
   27MOL   H10028232   7.963   0.823   3.203  2.5459 -3.3493  0.7990
   27MOL   H10128233   7.962   0.576   3.221 -0.5247 -1.4640 -0.5195
   27MOL   H10228234   7.563   0.560   3.063 -0.7502 -0.0225  0.8556
   27MOL   H10328235   7.559   0.805   3.061 -1.3065 -2.7463 -0.4918
   27MOL   H10428236   7.891   1.217   3.261 -1.0090  0.7588  0.1573
   27MOL   H10528237   7.938   1.261   3.493 -0.1731 -0.0861  0.0258
   27MOL   H10628238   7.907   0.878   3.780  1.4085 -1.0146 -0.2262
   27MOL   H10728239   8.103   0.806   3.916 -0.0158 -0.4231 -1.8956
   27MOL   H10828240   0.260   1.163   3.908  3.3670  2.3455 -0.8327
   27MOL   H10928241   0.362   1.357   4.027 -1.3118 -0.3058 -1.3530
   27MOL   C11028242   7.777   0.354   3.008  0.0789 -0.3471  0.0263
   27MOL   C11128243   7.659   0.305   2.948  0.2500  0.1707 -0.4773
   27MOL   C11228244   7.669   0.252   2.821  0.0138 -0.1053 -0.3489
   27MOL   C11328245   7.792   0.253   2.749  0.0171 -0.2837 -0.5813
   27MOL   S11428246   7.810   0.171   2.592 -0.5027  0.4117 -0.3246
   27MOL   O11528247   7.836   0.276   2.492  0.7094 -0.3932 -0.3474
   27MOL   O11628248   7.700   0.077   2.581  0.3656 -0.0691 -0.2006
   27MOL   C11728249   7.956   0.077   2.614  0.4267 -0.3638 -0.6269
   27MOL   C11828250   7.952   8.227   2.706  0.4025  0.6092  0.3590
   27MOL   C11928251   8.076   8.167   2.736  0.4375  0.6432  0.0933
   27MOL   C12028252   8.193   8.191   2.657 -0.0702 -0.5256  0.3696
   27MOL   O12128253   0.035   8.097   2.677 -0.0640  0.4209  0.2966
   27MOL   C12228254   0.163   8.108   2.627 -0.1194  0.8422  0.2026
   27MOL   C12328255   0.212   8.001   2.547  0.1930 -0.4950 -0.3465
   27MOL   C12428256   0.346   8.010   2.492  0.3090 -0.2958  0.0111
   27MOL   C12528257   0.430   8.116   2.530 -0.1967 -0.9810  0.2012
   27MOL   C12628258   0.572   8.123   2.480  0.0719  1.2326 -0.4730
   27MOL   C12728259   0.573   8.143   2.322 -0.1390 -0.6950 -0.1390
   27MOL   C12828260   0.646   8.249   2.535 -0.5409  0.3315  0.0490
   27MOL   C12928261   0.655   8.000   2.529  0.4447 -1.0797 -0.1638
   27MOL   C13028262   0.629   7.957   2.660  0.1844 -0.3776  0.0025
   27MOL   C13128263   0.689   7.845   2.712  0.9290  0.8407  0.6572
   27MOL   C13228264   0.787   7.785   2.635  0.1680 -0.0036  0.3234
   27MOL   O13328265   0.856   7.679   2.689 -0.6887 -0.1165  0.3778
   27MOL   C13428266   0.832   7.844   2.519  0.5455 -0.3172 -0.1958
   27MOL   C13528267   0.760   7.947   2.462  0.3313 -0.3965  0.6771
   27MOL   C13628268   0.376   8.220   2.612  0.3004 -0.6824  0.0537
   27MOL   C13728269   0.250   8.207   2.665  0.0172  0.0989  0.5570
   27MOL   C13828270   8.193   0.045   2.573 -0.6401 -0.5828  0.6577
   27MOL   C13928271   8.073   0.115   2.550  0.1672 -0.1367 -0.2256
   27MOL   C14028272   7.911   0.296   2.815  0.9122 -0.3653  0.3451
   27MOL   C14128273   7.903   0.349   2.944  0.1824  0.6343  0.3965
   27MOL   H14228274   7.564   0.301   2.999 -0.2840  0.8914 -1.3905
   27MOL   H14328275   7.586   0.219   2.761  0.1867  1.8226 -1.7099
   27MOL   H14428276   7.860   8.194   2.752  0.6529 -0.9013 -0.2067
   27MOL   H14528277   8.076   8.088   2.809  0.6567 -1.3757 -2.0254
   27MOL   H14628278   0.140   7.928   2.512 -1.0108 -0.4460  1.9126
   27MOL   H14728279   0.380   7.927   2.432 -0.6178 -0.8780  0.2690
   27MOL   H14828280   0.497   8.217   2.298 -1.1702 -1.5034  0.5622
   27MOL   H14928281   0.545   8.052   2.270 -0.0028 -0.9402  0.2137
   27MOL   H15028282   0.671   8.171   2.282 -1.8413  1.6586 -2.7993
   27MOL   H15128283   0.603   0.092   2.509  0.3060  1.2614  2.0750
   27MOL   H15228284   0.667   8.247   2.641 -3.2241  1.1676  0.6531
   27MOL   H15328285   0.744   0.010   2.489 -1.2748 -0.9570 -2.0457
   27MOL   H15428286   0.563   8.016   2.722 -1.2564  1.9031 -3.5419
   27MOL   H15528287   0.663   7.803   2.808 -1.0700  2.6417  0.9365
   27MOL   H15628288   0.913   7.806   2.458  0.3957 -0.9427 -0.0066
   27MOL   H15728289   0.784   7.978   2.361  1.4221 -2.0117  0.4205
   27MOL   H15828290   0.439   0.052   2.635 -1.3531  0.6550 -0.2726
   27MOL   H15928291   0.220   0.037   2.728  2.0914 -0.3711  2.2345
   27MOL   H16028292   0.027   0.074   2.517 -0.6684 -2.8174 -0.6281
   27MOL   H16128293   8.074   0.198   2.481 -0.4878 -0.1434 -0.2462
   27MOL   H16228294   8.003   0.296   2.758  0.2143  0.6509 -0.8007
   27MOL   H16328295   7.989   0.381   3.000 -0.0055 -0.4792  1.3545
   27MOL   C16428296   0.825   7.553   2.651 -0.1084 -0.3664  0.0937
   27MOL   C16528297   0.915   7.479   2.565 -0.2289  0.5198  0.4427
   27MOL   C16628298   0.862   7.361   2.512 -0.3121 -1.1269 -0.2253
   27MOL   C16728299   0.741   7.304   2.564  0.9345 -0.2127  0.7258
   27MOL   S16828300   0.685   7.141   2.512  0.1040  0.0683  0.4831
   27MOL   O16928301   0.731   7.114   2.376 -0.4117  0.3661  1.2904
   27MOL   O17028302   0.541   7.132   2.541 -0.0776  0.8850  0.2539
   27MOL   C17128303   0.757   7.023   2.621 -0.3626  0.2200 -0.0090
   27MOL   C17228304   0.731   6.892   2.596  0.1066  0.1547 -0.6230
   27MOL   C17328305   0.787   6.790   2.674 -0.4083  0.3849  0.5283
   27MOL   C17428306   0.876   6.822   2.779  0.1972  0.0583  0.8320
   27MOL   O17528307   0.942   6.734   2.856  0.5522 -0.8691  0.1438
   27MOL   C17628308   0.876   6.628   2.913 -0.1137 -0.9258 -0.4560
   27MOL   C17728309   0.932   6.503   2.910 -0.1414  0.1566  0.5910
   27MOL   C17828310   0.875   6.391   2.972 -0.5572  0.5850 -0.1778
   27MOL   C17928311   0.743   6.405   3.026  0.3340  0.1432  0.1601
   27MOL   C18028312   0.663   6.281   3.083  0.4413  0.3327  0.3382
   27MOL   C18128313   0.563   6.240   2.972  1.0499 -0.1439  0.0132
   27MOL   C18228314   0.754   6.161   3.115  0.1894  0.9123 -0.8702
   27MOL   C18328315   0.591   6.330   3.211  0.2751 -0.1219 -0.1876
   27MOL   C18428316   0.662   6.402   3.312 -0.1464  0.4407 -0.5728
   27MOL   C18528317   0.588   6.464   3.417  0.3406  0.4348  0.3188
   27MOL   C18628318   0.443   6.443   3.430 -0.1630 -0.0168  0.4231
   27MOL   O18728319   0.366   6.489   3.531 -0.6088  0.2850 -0.5453
   27MOL   C18828320   0.386   6.353   3.336  0.7144  0.8887  0.3599
   27MOL   C18928321   0.456   6.302   3.230  0.5235 -0.3968  0.7618
   27MOL   C19028322   0.691   6.538   3.034 -0.6829  0.8823  0.1879
   27MOL   C19128323   0.758   6.648   2.980  0.2387  0.1258  0.3130
   27MOL   C19228324   0.901   6.958   2.811 -0.8942  0.0192  0.5975
   27MOL   C19328325   0.839   7.058   2.731 -0.0897  0.2523 -0.2436
   27MOL   C19428326   0.656   7.373   2.646 -0.5038 -0.3997 -0.4808
   27MOL   C19528327   0.696   7.501   2.686 -0.1640 -0.1924 -1.0062
   27MOL   H19628328   1.012   7.517   2.535 -1.3690  2.1690 -1.3492
   27MOL   H19728329   0.931   7.301   2.454  0.1064  1.1865 -2.1462
   27MOL   H19828330   0.661   6.878   2.514  1.4639  0.9551 -1.9444
   27MOL   H19928331   0.764   6.685   2.660  1.7704 -0.1684  0.8745
   27MOL   H20028332   1.034   6.490   2.875 -0.5976 -1.1596 -0.3089
   27MOL   H20128333   0.928   6.297   2.979 -1.8399 -0.0597  1.2945
   27MOL   H20228334   0.494   6.159   2.995  2.5041 -0.6886  2.6571
   27MOL   H20328335   0.622   6.212   2.885  1.2183 -2.6192  0.8845
   27MOL   H20428336   0.488   6.317   2.952 -0.1327 -0.8408  1.6592
   27MOL   H20528337   0.799   6.171   3.214 -1.3645 -1.4678  0.1146
   27MOL   H20628338   0.690   6.073   3.125  1.8547 -0.6372 -3.1507
   27MOL   H20728339   0.821   6.145   3.030  0.2540 -0.9658 -0.4825
   27MOL   H20828340   0.767   6.424   3.318 -0.3022  0.4323  2.5648
   27MOL   H20928341   0.631   6.520   3.498 -1.6036  0.0963  1.6176
   27MOL   H21028342   0.283   6.320   3.347  0.4300  1.2866 -1.0747
   27MOL   H21128343   0.398   6.229   3.176 -1.4189  0.9274  0.9964
   27MOL   H21228344   0.590   6.549   3.071 -0.9736 -1.2120  0.0715
   27MOL   H21328345   0.706   6.742   2.990  2.0754  1.2436 -0.2946
   27MOL   H21428346   0.977   6.983   2.884  0.2804 -3.1427  0.5597
   27MOL   H21528347   0.866   7.159   2.756 -0.7615  0.5402 -0.6668
   27MOL   H21628348   0.556   7.339   2.669 -1.7060  3.0371 -0.4243
   27MOL   H21728349   0.622   7.560   2.739  0.7667  0.4191 -0.3795
   27MOL   C21828350   0.378   6.456   3.664  0.1411 -0.2739 -0.9608
   27MOL   C21928351   0.475   6.517   3.747 -0.9803  0.5775 -0.2300
   27MOL   C22028352   0.467   6.491   3.889 -0.0127  0.0951  0.6964
   27MOL   C22128353   0.366   6.407   3.938  0.5309  0.3882 -0.1560
   27MOL   S22228354   0.350   6.374   4.117  0.2317 -0.1196 -0.0362
   27MOL   O22328355   0.442   6.463   4.195 -0.6524  0.4803  0.4682
   27MOL   O22428356   0.348   6.227   4.136 -0.6210 -0.2494  0.2945
   27MOL   C22528357   0.185   6.429   4.166  0.2324  0.1821  0.5136
   27MOL   C22628358   0.086   6.343   4.220  0.5519  0.5250  0.1091
   27MOL   C22728359   8.230   6.391   4.287  0.2968 -0.3801 -0.1398
   27MOL   C22828360   8.196   6.530   4.288 -0.7131 -0.0050 -0.5178
   27MOL   O22928361   8.084   6.575   4.355  0.1286  0.9104  0.0595
   27MOL   C23028362   8.109   6.641   4.471  0.1439 -0.5259  0.5036
   27MOL   C23128363   8.112   6.782   4.471 -0.2504  1.0660  0.0127
   27MOL   C23228364   8.134   6.864   4.586  0.7473 -0.0130 -0.1220
   27MOL   C23328365   8.175   6.790   4.701 -0.1257 -0.8347  0.5841
   27MOL   C23428366   8.215   6.865   4.834  0.0104 -0.2385  0.0760
   27MOL   C23528367   8.210   7.014   4.816 -0.0865  0.3088  0.0871
   27MOL   C23628368   8.106   6.827   4.945  0.2159  0.0531  0.3669
   27MOL   C23728369   0.094   6.806   4.881 -0.0085 -0.8095  0.3598
   27MOL   C23828370   0.203   6.831   4.795  0.6842  0.4632  0.1893
   27MOL   C23928371   0.320   6.756   4.806  0.2437  0.1242 -0.0887
   27MOL   C24028372   0.319   6.661   4.907  0.3072 -0.2406  0.0660
   27MOL   O24128373   0.423   6.577   4.936  0.1159  0.0881 -0.3850
   27MOL   C24228374   0.217   6.644   5.004  0.1477 -0.1629 -0.4678
   27MOL   C24328375   0.100   6.715   4.989  0.0946  0.0998 -0.5560
   27MOL   C24428376   8.172   6.651   4.704 -0.0135 -0.4427 -0.6718
   27MOL   C24528377   8.139   6.576   4.591 -0.1628 -0.4164  0.8998
   27MOL   C24628378   0.031   6.616   4.214  0.3855  0.1197 -0.0606
   27MOL   C24728379   0.153   6.569   4.154 -1.1680 -0.3981 -0.2251
   27MOL   C24828380   0.281   6.333   3.854  0.6998 -0.2671 -0.5180
   27MOL   C24928381   0.291   6.356   3.713  0.0363  0.3098 -0.0985
   27MOL   H25028382   0.543   6.590   3.705  0.5758 -0.4865  0.4015
   27MOL   H25128383   0.537   6.545   3.952 -1.1534  0.2769  1.8368
   27MOL   H25228384   0.105   6.237   4.211  0.6843  0.4442  1.2938
   27MOL   H25328385   8.153   6.335   4.340  0.8107  1.6308  2.8583
   27MOL   H25428386   8.122   6.833   4.377  1.8135 -2.2353 -1.6376
   27MOL   H25528387   8.136   6.972   4.581  0.1100  0.1073  1.8358
   27MOL   H25628388   0.002   7.076   4.894 -0.6095  0.8897 -0.0651
   27MOL   H25728389   8.113   7.060   4.795 -0.1458  0.0966 -0.0997
   27MOL   H25828390   0.018   7.041   4.730 -0.1142 -1.4351 -0.4863
   27MOL   H25928391   8.139   6.866   5.042  1.6333  1.4846 -0.6718
   27MOL   H26028392   8.010   6.871   4.920 -0.0349 -0.1230  1.0039
   27MOL   H26128393   8.080   6.721   4.955  2.8751 -0.3244  4.8976
   27MOL   H26228394   0.192   6.908   4.720 -0.4324  0.2891  0.1795
   27MOL   H26328395   0.400   6.767   4.733 -0.6872 -0.9812 -1.3084
   27MOL   H26428396   0.238   6.580   5.089 -0.6494  1.3831  0.9204
   27MOL   H26528397   0.016   6.686   5.050 -0.0509 -2.1695 -1.8103
   27MOL   H26628398   8.187   6.587   4.790  0.7407 -2.3795 -2.1915
   27MOL   H26728399   8.127   6.469   4.594 -3.3368 -0.2095 -1.2487
   27MOL   H26828400   0.005   6.720   4.212 -2.1550 -0.3977  2.3713
   27MOL   H26928401   0.227   6.638   4.117  0.5345 -3.1809 -2.2785
   27MOL   H27028402   0.209   6.270   3.904  1.0794 -0.8905 -0.7519
   27MOL   H27128403   0.219   6.312   3.645 -1.0889  1.9138  0.0178
   27MOL   C27228404   0.442   6.470   4.854  0.4517  0.1720  0.0378
   27MOL   C27328405   0.335   6.401   4.782  0.5805 -0.3038 -0.3286
   27MOL   C27428406   0.360   6.290   4.700  0.0877  0.7589 -0.0552
   27MOL   C27528407   0.492   6.245   4.687  0.2248 -0.3750 -0.0343
   27MOL   S27628408   0.528   6.091   4.600  0.0366  0.2373 -0.1822
   27MOL   O27728409   0.412   6.024   4.540 -0.2572 -0.2437 -0.3557
   27MOL   O27828410   0.603   6.011   4.705  0.2536 -0.3484 -0.2449
   27MOL   C27928411   0.643   6.142   4.468 -0.2503  0.5122  0.5233
   27MOL   C28028412   0.597   6.169   4.339 -0.0801  0.5301  0.8094
   27MOL   C28128413   0.688   6.214   4.241  0.3057  0.2382  0.5670
   27MOL   C28228414   0.818   6.245   4.285 -0.5212  0.4819 -0.4430
   27MOL   O28328415   0.908   6.296   4.199 -0.3863  0.3701  0.6713
   27MOL   C28428416   0.891   6.428   4.164  0.0423 -0.4488 -0.3297
   27MOL   C28528417   0.831   6.469   4.041 -0.7150 -0.2132 -0.2914
   27MOL   C28628418   0.813   6.602   4.004 -0.9379 -0.1456  0.3240
   27MOL   C28728419   0.857   6.704   4.089  0.4098  0.5534 -0.0403
   27MOL   C28828420   0.847   6.846   4.034  0.8592  0.2420 -0.7357
   27MOL   C28928421   0.862   6.955   4.143  0.7332  0.3763  0.0286
   27MOL   C29028422   0.964   6.860   3.941 -0.3091  0.3891  0.9322
   27MOL   C29128423   0.720   6.870   3.954 -0.7604 -0.0914  1.2758
   27MOL   C29228424   0.598   6.825   4.011 -0.1315 -0.2337  0.2559
   27MOL   C29328425   0.475   6.842   3.942 -0.3314  0.0158 -0.0547
   27MOL   C29428426   0.471   6.907   3.813  0.2759 -0.3566 -0.2545
   27MOL   O29528427   0.357   6.917   3.738 -0.2644 -0.5967  0.3230
   27MOL   C29628428   0.594   6.962   3.765 -0.0912 -0.2929  0.5472
   27MOL   C29728429   0.717   6.941   3.830  0.4239  0.4045 -1.6167
   27MOL   C29828430   0.920   6.666   4.213  0.0940  0.2041  0.1894
   27MOL   C29928431   0.927   6.529   4.253 -0.1118 -0.2839  0.6138
   27MOL   C30028432   0.862   6.211   4.421  0.0532 -0.3765  0.3669
   27MOL   C30128433   0.776   6.155   4.512  0.8559 -0.5683  0.3169
   27MOL   C30228434   0.595   6.313   4.754  1.3343 -0.1286  0.4040
   27MOL   C30328435   0.571   6.430   4.835  0.0369  0.0043  1.0113
   27MOL   H30428436   0.236   6.442   4.790  0.7225  0.0078 -0.1733
   27MOL   H30528437   0.283   6.228   4.656  0.9056  0.3838 -0.9933
   27MOL   H30628438   0.494   6.165   4.306  0.6058 -3.6214 -1.1751
   27MOL   H30728439   0.659   6.243   4.141 -0.5830  1.7141  1.2312
   27MOL   H30828440   0.780   6.396   3.981 -0.3444 -2.2402  1.7934
   27MOL   H30928441   0.762   6.610   3.909  0.8216  0.7153 -0.5705
   27MOL   H31028442   0.796   6.947   4.230  2.0750 -0.0518  1.0258
   27MOL   H31128443   0.843   7.051   4.096  1.0634  1.0112  1.1610
   27MOL   H31228444   0.966   6.965   4.174  0.2714 -1.2029  2.1678
   27MOL   H31328445   1.049   6.833   4.003  0.9211  0.2702 -0.7603
   27MOL   H31428446   0.968   6.789   3.858 -1.1152  1.3158  0.0952
   27MOL   H31528447   0.992   6.957   3.901  0.4832 -0.1828  0.0582
   27MOL   H31628448   0.587   6.768   4.102 -2.3062  0.1070  0.2345
   27MOL   H31728449   0.384   6.801   3.983 -0.7819 -0.3433 -1.3919
   27MOL   H31828450   0.592   7.010   3.668  1.9928 -0.5513  0.3472
   27MOL   H31928451   0.810   6.981   3.793  1.3141 -0.0914  0.0487
   27MOL   H32028452   0.955   6.734   4.290 -0.2249  0.1388  0.3943
   27MOL   H32128453   0.968   6.509   4.351 -0.0085  1.4017  0.9409
   27MOL   H32228454   0.968   6.225   4.433 -0.4676  2.0942  2.5550
   27MOL   H32328455   0.803   6.122   4.611  0.5960  1.2220  0.9987
   27MOL   H32428456   0.689   6.260   4.749  1.1554 -0.4684  0.6280
   27MOL   H32528457   0.654   6.466   4.893 -0.4517 -2.0440  3.0535
   27MOL   C32628458   0.233   6.920   3.789  0.8040  0.0802  0.6606
   27MOL   C32728459   0.181   7.034   3.854 -0.8360 -0.0038 -0.0355
   27MOL   C32828460   0.045   7.028   3.889 -0.1808  0.0514 -0.5397
   27MOL   C32928461   8.218   6.908   3.878  0.4798  0.2000 -0.0503
   27MOL   S33028462   8.057   6.908   3.949 -0.1847 -0.1163 -0.1492
   27MOL   O33128463   8.061   6.998   4.066  0.4017 -0.1094  0.3143
   27MOL   O33228464   8.024   6.768   3.957  0.2696  0.1410  0.2414
   27MOL   C33328465   7.942   6.979   3.836 -0.0762 -0.1810  0.7423
   27MOL   C33428466   7.816   6.921   3.832 -0.9203  0.5561 -0.6911
   27MOL   C33528467   7.712   6.981   3.758 -0.0131 -0.4467  0.4106
   27MOL   C33628468   7.732   7.108   3.699 -0.1242 -0.0778  0.0035
   27MOL   O33728469   7.620   7.162   3.645 -0.3176 -0.3331 -0.6730
   27MOL   C33828470   7.595   7.134   3.513 -0.2656 -0.6328 -0.1654
   27MOL   C33928471   7.572   7.243   3.426  0.2235  0.2342  0.3929
   27MOL   C34028472   7.515   7.216   3.301  0.3802  0.7215  0.4427
   27MOL   C34128473   7.491   7.084   3.254  0.4531 -0.2821  0.2111
   27MOL   C34228474   7.446   7.059   3.107 -0.1721  0.0985 -0.1726
   27MOL   C34328475   7.461   7.181   3.012 -0.9303  0.4122 -0.4873
   27MOL   C34428476   7.537   6.950   3.049 -0.3231  0.0793 -0.1886
   27MOL   C34528477   7.302   7.020   3.099  0.2335 -0.0637  0.5358
   27MOL   C34628478   7.209   7.118   3.138 -1.0898  0.4067  0.2155
   27MOL   C34728479   7.069   7.098   3.124  0.2902 -0.0427  0.8148
   27MOL   C34828480   7.016   6.984   3.059  0.2488  0.5217  0.1209
   27MOL   O34928481   6.879   6.963   3.039  0.1134  0.1396  0.3679
   27MOL   C35028482   7.113   6.884   3.030  0.5639 -0.0692 -0.0820
   27MOL   C35128483   7.253   6.902   3.039 -0.1257 -0.1698 -0.0020
   27MOL   C35228484   7.518   6.977   3.349 -0.0777 -0.3775 -0.2133
   27MOL   C35328485   7.568   7.002   3.480 -0.3532  0.7518 -0.1820
   27MOL   C35428486   7.861   7.172   3.711  1.0480 -0.1371  0.5010
   27MOL   C35528487   7.965   7.109   3.780  0.2629  0.7061  0.0393
   27MOL   C35628488   0.017   6.794   3.813 -0.3511  0.2238  0.8426
   27MOL   C35728489   0.154   6.801   3.771  0.0442 -0.3450  0.1225
   27MOL   H35828490   0.248   7.115   3.879  0.1393 -1.9891  4.2416
   27MOL   H35928491   8.249   7.112   3.935 -1.1635  0.1586 -1.7684
   27MOL   H36028492   7.793   6.829   3.885 -1.9617  1.6919  0.8745
   27MOL   H36128493   7.610   6.946   3.763  0.6989 -2.3346  2.4073
   27MOL   H36228494   7.583   7.346   3.457  0.7260  0.8150 -1.6224
   27MOL   H36328495   7.501   7.291   3.225  2.4889 -1.8656 -2.7099
   27MOL   H36428496   7.394   7.261   3.043  0.9122  1.5991  0.5034
   27MOL   H36528497   7.439   7.149   2.910  3.4000  0.1857 -1.4296
   27MOL   H36628498   7.550   7.243   3.009 -0.2406 -0.6008 -0.9403
   27MOL   H36728499   7.535   6.868   3.120  0.1674  1.6060  1.6160
   27MOL   H36828500   7.513   6.911   2.950  1.6103 -1.7071 -0.0028
   27MOL   H36928501   7.638   6.992   3.045  0.9771 -2.7185  1.3354
   27MOL   H37028502   7.235   7.208   3.191 -0.5947 -0.1968  1.0117
   27MOL   H37128503   7.002   7.180   3.145 -0.6591 -1.1104  2.0964
   27MOL   H37228504   7.077   6.800   2.973  1.2069  0.0332 -0.6437
   27MOL   H37328505   7.317   6.824   3.001 -1.1145 -0.0868 -1.8952
   27MOL   H37428506   7.502   6.874   3.321  0.3670 -0.3327 -0.6419
   27MOL   H37528507   7.585   6.923   3.551  2.4012 -0.1661 -1.7516
   27MOL   H37628508   7.880   7.274   3.681 -0.5713 -0.2983 -1.1332
   27MOL   H37728509   8.056   7.163   3.802  0.6881 -0.6354  1.6997
   27MOL   H37828510   8.209   6.705   3.806 -1.5045  1.2024 -2.1080
   27MOL   H37928511   0.196   6.722   3.709 -2.5934 -0.8101 -1.1472
   27MOL   C38028512   6.836   6.920   2.919  0.4524 -0.2924 -0.1525
   27MOL   C38128513   6.871   6.986   2.802 -0.8541  0.8063 -0.1503
   27MOL   C38228514   6.825   6.945   2.676  0.6834 -0.5090 -0.2161
   27MOL   C38328515   6.731   6.835   2.664  0.2403 -0.6145 -0.1516
   27MOL   S38428516   6.668   6.786   2.499  0.2216 -0.4637  0.2283
   27MOL   O38528517   6.522   6.749   2.510  0.0987 -0.2181  0.0312
   27MOL   O38628518   6.761   6.693   2.441  0.2402  0.4011  0.0176
   27MOL   C38728519   6.654   6.940   2.404 -0.2086  0.3506  0.8478
   27MOL   C38828520   6.609   7.057   2.462  0.1117  0.0751 -0.2619
   27MOL   C38928521   6.580   7.168   2.389 -0.4523  0.0094  0.3361
   27MOL   C39028522   6.595   7.165   2.244  0.6835 -0.1832 -0.5212
   27MOL   O39128523   6.561   7.274   2.166 -0.7848  0.0372 -0.4346
   27MOL   C39228524   6.670   7.345   2.121 -0.0446 -0.0185 -0.1106
   27MOL   C39328525   6.716   7.322   1.989 -1.5803 -0.4824  0.1125
   27MOL   C39428526   6.820   7.403   1.937 -0.5710  0.2098 -0.0558
   27MOL   C39528527   6.871   7.515   2.007  0.5453  0.8700  0.5956
   27MOL   C39628528   6.988   7.594   1.962 -0.9775 -0.2361  0.0695
   27MOL   C39728529   6.981   7.747   1.998  0.1539 -0.6635 -0.0419
   27MOL   C39828530   7.112   7.536   2.026  0.1128 -0.0280  0.4898
   27MOL   C39928531   7.001   7.596   1.810 -0.0349 -0.3045  0.3396
   27MOL   C40028532   7.125   7.575   1.741  0.6405  0.0646 -0.4105
   27MOL   C40128533   7.121   7.583   1.599 -0.1252 -0.1333 -0.5214
   27MOL   C40228534   7.001   7.607   1.530 -0.5048  0.4326  0.1861
   27MOL   O40328535   7.004   7.602   1.392 -0.9760 -0.6321  0.1179
   27MOL   C40428536   6.885   7.627   1.599  0.4266  0.6105  0.5972
   27MOL   C40528537   6.887   7.629   1.736 -0.2146  0.1868  0.6747
   27MOL   C40628538   6.817   7.540   2.136 -0.0514  0.1589  0.6882
   27MOL   C40728539   6.718   7.459   2.188  0.6999  1.1547 -0.5175
   27MOL   C40828540   6.633   7.047   2.184  0.0933 -0.1475 -0.3272
   27MOL   C40928541   6.666   6.931   2.259 -0.2095  0.4399  0.1483
   27MOL   C41028542   6.699   6.764   2.785  0.3157 -0.8588  0.0280
   27MOL   C41128543   6.751   6.802   2.914 -0.5214 -0.8977 -0.5250
   27MOL   H41228544   6.951   7.058   2.809  1.5387 -1.6718 -0.9138
   27MOL   H41328545   6.864   6.994   2.588 -0.1423  0.5594  0.0128
   27MOL   H41428546   6.601   7.056   2.570  2.4858 -1.0449 -0.0423
   27MOL   H41528547   6.547   7.252   2.448 -2.4655 -0.4809 -0.0571
   27MOL   H41628548   6.681   7.233   1.939 -0.3568 -0.4207 -0.8933
   27MOL   H41728549   6.863   7.381   1.840 -1.7144 -0.9239 -0.3195
   27MOL   H41828550   6.978   7.772   2.104  0.5960  4.7344 -1.1624
   27MOL   H41928551   6.893   7.796   1.958  2.4192  2.0221 -1.8796
   27MOL   H42028552   7.065   7.798   1.950  1.1239 -0.5489  1.7267
   27MOL   H42128553   7.098   7.527   2.134 -0.2710 -1.0038  0.3702
   27MOL   H42228554   7.119   7.436   1.983 -0.0933  0.1362  0.0662
   27MOL   H42328555   7.194   7.604   2.008 -0.8213  0.9384 -0.1774
   27MOL   H42428556   7.222   7.560   1.786  1.4687  1.5964 -1.6739
   27MOL   H42528557   7.215   7.580   1.546  0.0844  1.1679 -0.2376
   27MOL   H42628558   6.793   7.662   1.554  0.6727 -0.3816 -0.7129
   27MOL   H42728559   6.792   7.636   1.786  0.3191  0.4013  1.6693
   27MOL   H42828560   6.837   7.629   2.193  3.6183  0.9863 -1.7119
   27MOL   H42928561   6.661   7.482   2.277  1.1011  0.3863 -0.0539
   27MOL   H43028562   6.622   7.036   2.077 -0.5906 -0.7655 -0.2012
   27MOL   H43128563   6.699   6.842   2.209  0.3644  1.2405 -0.9227
   27MOL   H43228564   6.634   6.678   2.789 -2.2822  0.9439 -2.0171
   27MOL   H43328565   6.743   6.745   3.005  0.1181  0.8200  0.6429
   27MOL   C43428566   6.935   7.704   1.322  0.7164  0.0576 -0.3202
   27MOL   C43528567   6.850   7.660   1.217 -0.4743 -0.3325 -0.0488
   27MOL   C43628568   6.804   7.753   1.124  0.2512  0.2833  0.0639
   27MOL   C43728569   6.820   7.888   1.147 -0.3624  0.3646  0.1065
   27MOL   S43828570   6.759   8.006   1.031  0.1164 -0.4490  0.3679
   27MOL   O43928571   6.654   8.088   1.096 -0.0816  0.5286  0.3594
   27MOL   O44028572   6.722   7.941   0.907 -0.5065 -0.1317 -0.0565
   27MOL   C44128573   6.900   8.115   0.981  0.2550 -0.2629  0.2915
   27MOL   C44228574   6.881   8.244   0.924  0.3145  0.1900 -0.4374
   27MOL   C44328575   6.991   0.068   0.896 -0.2008  0.3606 -0.0201
   27MOL   C44428576   7.119   0.013   0.911 -0.2375 -0.3567 -0.0874
   27MOL   O44528577   7.226   0.098   0.887  0.1960  0.7860  0.2985
   27MOL   C44628578   7.267   0.171   0.996 -0.4429 -0.5243  0.4326
   27MOL   C44728579   7.249   0.310   1.006 -0.1016 -0.4388 -0.1609
   27MOL   C44828580   7.290   0.376   1.125  0.1283  0.2017  0.2072
   27MOL   C44928581   7.339   0.305   1.237  0.3234  0.2582  0.3722
   27MOL   C45028582   7.362   0.372   1.376  0.0929  0.3490  0.0818
   27MOL   C45128583   7.427   0.268   1.479 -0.1242  0.0966  0.0716
   27MOL   C45228584   7.452   0.492   1.353 -0.3930 -0.2089 -0.7161
   27MOL   C45328585   7.230   0.418   1.444  0.2883 -0.4127  0.1366
   27MOL   C45428586   7.107   0.352   1.431 -0.3783 -0.2783  0.1422
   27MOL   C45528587   6.995   0.371   1.519  0.2759 -0.5544  0.3936
   27MOL   C45628588   7.005   0.470   1.618 -0.6723 -0.2029 -0.0460
   27MOL   O45728589   6.901   0.481   1.705  0.4158 -0.0205  0.3087
   27MOL   C45828590   7.120   0.546   1.626  0.1164 -0.3455 -0.4522
   27MOL   C45928591   7.233   0.524   1.544 -0.1807 -0.5514 -0.3478
   27MOL   C46028592   7.357   0.166   1.217 -0.1002  0.3963  0.6814
   27MOL   C46128593   7.333   0.103   1.096  0.4059 -0.4626  0.1032
   27MOL   C46228594   7.144   8.140   0.949  0.0800 -0.4176  0.0888
   27MOL   C46328595   7.032   8.065   0.990  0.6158  0.5856  0.2742
   27MOL   C46428596   6.890   7.933   1.259 -0.1179  0.0902 -0.3425
   27MOL   C46528597   6.960   7.838   1.335 -0.3873 -0.5188 -0.1865
   27MOL   H46628598   6.823   7.556   1.206  1.7607 -0.7919 -1.6002
   27MOL   H46728599   6.736   7.722   1.046 -1.4106  1.5397  0.9749
   27MOL   H46828600   6.782   0.032   0.912  0.1724 -0.1587 -0.4891
   27MOL   H46928601   6.972   0.164   0.849  1.4600 -0.2704 -2.0246
   27MOL   H47028602   7.211   0.373   0.926 -0.2972 -0.3982 -0.0369
   27MOL   H47128603   7.289   0.484   1.121 -0.9869  0.1550 -1.6457
   27MOL   H47228604   7.377   0.173   1.494  2.0824 -0.9158  1.2169
   27MOL   H47328605   7.434   0.315   1.577 -0.3558 -1.5831  0.9144
   27MOL   H47428606   7.528   0.233   1.458 -0.4941 -1.3875  0.7453
   27MOL   H47528607   7.542   0.459   1.303  0.8881  0.1614  1.3183
   27MOL   H47628608   7.396   0.572   1.304 -1.8595 -1.5345 -1.2576
   27MOL   H47728609   7.494   0.530   1.446  1.6749 -0.5277 -1.4976
   27MOL   H47828610   7.105   0.269   1.361 -0.7565 -1.3218  1.3688
   27MOL   H47928611   6.901   0.318   1.510  0.2778 -0.3350 -1.0378
   27MOL   H48028612   7.130   0.617   1.707  4.1042 -0.0545 -1.0878
   27MOL   H48128613   7.326   0.570   1.574 -1.2569  1.3198  0.2165
   27MOL   H48228614   7.401   0.108   1.297  0.4906  1.4754  1.1593
   27MOL   H48328615   7.355   8.252   1.082 -1.6223 -0.9025  0.0470
   27MOL   H48428616   7.243   8.098   0.945 -0.7313 -2.5644  1.6921
   27MOL   H48528617   7.047   7.970   1.039 -0.1226  0.8962  1.1051
   27MOL   H48628618   6.905   8.038   1.279 -0.1765  0.0929 -0.3137
   27MOL   H48728619   7.025   7.883   1.408 -2.5164 -1.5117  2.3922
   27MOL   C48828620   6.892   0.382   1.800  0.7423 -0.1040  0.1072
   27MOL   C48928621   7.006   0.327   1.861  0.3253 -0.0710  0.1569
   27MOL   C49028622   6.985   0.212   1.943 -0.2405  0.1752 -0.2567
   27MOL   C49128623   6.854   0.163   1.975 -0.2543 -0.9990  0.1068
   27MOL   S49228624   6.825   0.028   2.097  0.0379 -0.1222 -0.3191
   27MOL   O49328625   6.954   0.005   2.155 -0.6900  0.3769  0.2337
   27MOL   O49428626   6.750   8.172   2.034  0.0636  0.3519 -0.5656
   27MOL   C49528627   6.724   0.106   2.221  0.3669 -0.1578 -0.0106
   27MOL   C49628628   6.780   0.182   2.330  0.4760 -0.1375 -0.9728
   27MOL   C49728629   6.692   0.233   2.430 -0.2966 -0.7444 -0.0016
   27MOL   C49828630   6.555   0.209   2.428 -0.7194 -0.4285 -0.2837
   27MOL   O49928631   6.476   0.250   2.534 -0.4107  0.2549  0.1842
   27MOL   C50028632   6.437   0.380   2.529 -0.6323 -0.9686 -0.1733
   27MOL   C50128633   6.483   0.472   2.629 -0.3167  0.4527  0.0937
   27MOL   C50228634   6.425   0.601   2.634  0.1316  0.2186 -0.0748
   27MOL   C50328635   6.323   0.646   2.541 -0.0898  0.6003  0.0406
   27MOL   C50428636   6.266   0.789   2.559  0.6987  0.0328 -0.3121
   27MOL   C50528637   6.363   0.887   2.616  0.0511 -0.0056 -0.9360
   27MOL   C50628638   6.230   0.834   2.418 -0.4735 -0.8577  0.0337
   27MOL   C50728639   6.134   0.801   2.645  0.3548 -0.1670 -0.2883
   27MOL   C50828640   6.120   0.727   2.765 -0.0618 -0.1509  0.0585
   27MOL   C50928641   6.010   0.746   2.849  0.6738 -0.4755  0.2563
   27MOL   C51028642   5.906   0.839   2.809  0.2027  0.3329 -0.3028
   27MOL   O51128643   5.798   0.853   2.887 -0.2243 -0.1634 -0.6384
   27MOL   C51228644   5.922   0.905   2.683  0.9193 -1.0270 -0.9933
   27MOL   C51328645   6.039   0.894   2.608  0.2421 -0.2227  0.1674
   27MOL   C51428646   6.280   0.552   2.448  0.2220  0.0605 -0.4653
   27MOL   C51528647   6.333   0.419   2.442 -0.2147 -0.1625  0.4643
   27MOL   C51628648   6.503   0.138   2.319 -0.3521  0.2423  0.3615
   27MOL   C51728649   6.581   0.091   2.214 -0.2580  0.0869 -0.1625
   27MOL   C51828650   6.743   0.230   1.926 -0.2140  0.4770  0.2043
   27MOL   C51928651   6.758   0.338   1.837  0.0325 -0.0587 -0.4128
   27MOL   H52028652   7.104   0.368   1.841  0.6460 -0.2260  1.3519
   27MOL   H52128653   7.073   0.165   1.983 -0.5997  0.9360  1.4814
   27MOL   H52228654   6.888   0.186   2.344  0.2333 -0.4024  1.1098
   27MOL   H52328655   6.726   0.287   2.516  3.0361 -0.2669 -1.5639
   27MOL   H52428656   6.569   0.457   2.694 -0.4986 -0.7697  0.0742
   27MOL   H52528657   6.466   0.669   2.707 -2.2015  2.4618 -0.7655
   27MOL   H52628658   6.386   0.881   2.722 -0.7465 -0.5451 -0.7913
   27MOL   H52728659   6.315   0.984   2.615 -0.0925 -0.0643 -0.1648
   27MOL   H52828660   6.464   0.895   2.575  0.4969  1.8213  0.4715
   27MOL   H52928661   6.147   0.788   2.364  0.1068  0.6678 -2.2220
   27MOL   H53028662   6.220   0.941   2.398  1.5601 -1.0092 -2.0300
   27MOL   H53128663   6.309   0.806   2.348 -2.3031 -0.8550 -2.1056
   27MOL   H53228664   6.203   0.665   2.796 -0.0970  0.6157  1.7487
   27MOL   H53328665   5.996   0.687   2.939 -1.1411  0.9001  0.9270
   27MOL   H53428666   5.842   0.971   2.652  1.0967  0.5178  1.6422
   27MOL   H53528667   6.038   0.948   2.515 -1.9549 -0.9515 -0.2744
   27MOL   H53628668   6.208   0.580   2.372 -1.4596 -0.1068  1.0336
   27MOL   H53728669   6.298   0.348   2.368 -1.1292 -0.5045  1.2184
   27MOL   H53828670   6.397   0.122   2.318 -0.4663  1.0103 -0.3875
   27MOL   H53928671   6.540   0.034   2.132  1.7466 -0.1084 -1.0534
   27MOL   H54028672   6.644   0.197   1.955  0.8806 -1.8249  1.4364
   27MOL   H54128673   6.671   0.378   1.787 -0.0980  2.0131  1.3743
   27MOL   C54228674   5.702   0.758   2.870  0.1862  0.0388 -0.8103
   27MOL   C54328675   5.702   0.646   2.951 -0.0395  0.0339  0.2942
   27MOL   C54428676   5.621   0.538   2.917 -0.4247  0.4776 -0.5115
   27MOL   C54528677   5.536   0.541   2.809  0.1404 -0.1878  0.3158
   27MOL   S54628678   5.444   0.386   2.757 -0.0884  0.3083  0.0740
   27MOL   O54728679   5.465   0.362   2.613 -0.1109 -0.0639  0.0049
   27MOL   O54828680   5.307   0.413   2.797 -0.2151  0.0103  0.4361
   27MOL   C54928681   5.516   0.245   2.851  0.0185 -0.4562  0.0514
   27MOL   C55028682   5.422   0.167   2.921  0.5847 -0.0398  0.0672
   27MOL   C55128683   5.477   0.057   2.997  0.0413 -0.1071  0.0738
   27MOL   C55228684   5.614   0.032   3.008 -0.0593 -0.3456  0.3458
   27MOL   O55328685   5.651   8.189   3.102 -0.0852  0.0943  0.5775
   27MOL   C55428686   5.729   8.080   3.072 -0.4724 -0.1046  0.4011
   27MOL   C55528687   5.745   8.035   2.942 -0.0625 -0.2684  0.2525
   27MOL   C55628688   5.815   7.914   2.920 -0.8058  0.3528  0.3957
   27MOL   C55728689   5.888   7.848   3.026 -0.1473 -0.4183  0.2970
   27MOL   C55828690   5.987   7.724   2.996  0.1691 -0.4162  0.7615
   27MOL   C55928691   6.106   7.789   2.926  0.1673 -0.3595  0.1704
   27MOL   C56028692   6.034   7.654   3.128  0.4219  0.3377 -0.3918
   27MOL   C56128693   5.913   7.606   2.921  0.2657 -0.6034 -0.3379
   27MOL   C56228694   5.775   7.583   2.947  0.0533 -0.6881  0.1334
   27MOL   C56328695   5.699   7.491   2.874 -0.5298 -0.1794  0.3781
   27MOL   C56428696   5.767   7.420   2.768 -0.2047 -0.1887 -0.2064
   27MOL   O56528697   5.690   7.338   2.690 -0.3914  0.9796  0.6698
   27MOL   C56628698   5.901   7.445   2.741 -0.3549  0.6262 -0.4299
   27MOL   C56728699   5.976   7.530   2.822  0.4505 -0.2743  0.1881
   27MOL   C56828700   5.875   7.904   3.152  0.0248  0.0540 -0.0695
   27MOL   C56928701   5.799   8.018   3.176  0.9353 -0.4920  0.3122
   27MOL   C57028702   5.704   0.124   2.951  0.2302  0.2002  0.5124
   27MOL   C57128703   5.658   0.224   2.860  0.2025 -0.7113  1.0285
   27MOL   C57228704   5.528   0.653   2.731 -0.4794 -0.9221  1.0667
   27MOL   C57328705   5.610   0.763   2.765 -0.0186 -0.8041  0.7090
   27MOL   H57428706   5.772   0.648   3.033 -0.5912  3.0429  0.7668
   27MOL   H57528707   5.618   0.454   2.985  3.3164  0.3054 -0.4815
   27MOL   H57628708   5.319   0.197   2.908 -0.4767 -2.3033  2.6813
   27MOL   H57728709   5.405   8.244   3.041 -0.3109  0.5977  0.5632
   27MOL   H57828710   5.694   8.085   2.861  2.2008 -1.7191 -2.1291
   27MOL   H57928711   5.824   7.869   2.822 -3.0113  0.0835  0.3046
   27MOL   H58028712   6.156   7.857   2.996 -2.1786  0.6078  0.9555
   27MOL   H58128713   6.065   7.845   2.843 -1.7900 -1.3897  0.4144
   27MOL   H58228714   6.175   7.713   2.889  0.3361  0.7892 -1.9517
   27MOL   H58328715   6.071   7.555   3.102  0.9091  0.7297 -1.1949
   27MOL   H58428716   6.103   7.718   3.184  0.0771  1.1919 -0.9405
   27MOL   H58528717   5.947   7.616   3.181  0.9459 -1.6937 -0.9504
   27MOL   H58628718   5.725   7.633   3.028  0.1625 -0.4021  0.0226
   27MOL   H58728719   5.595   7.479   2.901 -1.3221  1.7191 -1.7128
   27MOL   H58828720   5.953   7.396   2.660  2.4291  1.2736  0.8972
   27MOL   H58928721   6.081   7.528   2.798 -0.1508 -0.4907 -2.5746
   27MOL   H59028722   5.931   7.862   3.234 -0.7315  0.2901  0.5806
   27MOL   H59128723   5.792   8.052   3.278 -1.4314  1.7603 -0.5463
   27MOL   H59228724   5.810   0.110   2.967  0.1562  1.4793  2.2050
   27MOL   H59328725   5.721   0.289   2.801  1.3820 -1.2645  1.6753
   27MOL   H59428726   5.456   0.660   2.651  0.7622 -2.2790 -0.1994
   27MOL   H59528727   5.601   0.856   2.710  1.5640 -0.6666  0.6431
   27MOL   C59628728   5.736   7.211   2.672 -0.0225 -0.2511  0.3631
   27MOL   C59728729   5.757   7.118   2.777 -0.6953  0.9501 -0.6470
   27MOL   C59828730   5.815   6.991   2.751 -0.1156 -0.2590  0.0050
   27MOL   C59928731   5.852   6.952   2.627  0.1648  0.0997  0.3537
   27MOL   S60028732   5.935   6.799   2.587 -0.4514  0.1521 -0.5888
   27MOL   O60128733   6.081   6.833   2.580  0.0356 -0.2475  0.5616
   27MOL   O60228734   5.872   6.747   2.466 -0.4929 -0.2906 -0.1278
   27MOL   C60328735   5.917   6.673   2.713 -0.3071 -0.2928  0.2071
   27MOL   C60428736   5.797   6.600   2.728  0.3741  0.3718  0.2903
   27MOL   C60528737   5.786   6.503   2.831  0.4534  0.1381 -0.1252
   27MOL   C60628738   5.895   6.476   2.914 -0.1553  1.0830 -0.7066
   27MOL   O60728739   5.888   6.380   3.018 -0.6363  0.3997  0.0356
   27MOL   C60828740   5.841   6.417   3.143 -0.2833  0.4560 -0.0525
   27MOL   C60928741   5.707   6.457   3.159  0.4517 -0.1031 -0.0283
   27MOL   C61028742   5.650   6.460   3.288 -0.5261 -0.0271 -0.3172
   27MOL   C61128743   5.733   6.437   3.404  0.6157 -0.0759 -1.3975
   27MOL   C61228744   5.660   6.434   3.543 -0.1408 -0.5246 -0.1133
   27MOL   C61328745   5.628   6.576   3.593  0.1113 -0.6476 -0.2742
   27MOL   C61428746   5.517   6.366   3.527 -0.4051 -0.6648 -0.0776
   27MOL   C61528747   5.745   6.355   3.641  0.3784 -0.0760 -0.4522
   27MOL   C61628748   5.737   6.217   3.645  0.3306 -0.0987  1.1796
   27MOL   C61728749   5.811   6.135   3.730  0.4984  0.4565  0.2887
   27MOL   C61828750   5.911   6.196   3.808  0.6446 -0.3655 -0.4973
   27MOL   O61928751   5.990   6.124   3.891 -0.3373 -0.0310 -0.1809
   27MOL   C62028752   5.929   6.340   3.794 -0.0022  0.0177 -0.4924
   27MOL   C62128753   5.846   6.422   3.716  0.2208  0.3970  1.0377
   27MOL   C62228754   5.871   6.409   3.387  0.2180 -0.3002 -0.3067
   27MOL   C62328755   5.919   6.393   3.256 -0.0088  0.0532  0.4115
   27MOL   C62428756   6.008   6.569   2.908  0.0963 -0.0353  0.0296
   27MOL   C62528757   6.018   6.667   2.809 -0.1346  0.2987  0.5054
   27MOL   C62628758   5.822   7.036   2.519 -0.5206 -0.0817 -0.6068
   27MOL   C62728759   5.776   7.169   2.543  0.5475  0.1522  0.0692
   27MOL   H62828760   5.731   7.149   2.877 -1.0912  0.0249 -0.4533
   27MOL   H62928761   5.849   6.927   2.831 -0.4497  1.3977  1.5065
   27MOL   H63028762   5.707   6.607   2.670  0.2273  0.5232  0.5353
   27MOL   H63128763   5.697   6.443   2.844  0.8765 -0.8214 -1.5671
   27MOL   H63228764   5.645   6.475   3.073 -0.5237 -1.1497  0.4453
   27MOL   H63328765   5.549   6.498   3.300 -1.0304 -1.1864 -0.8529
   27MOL   H63428766   5.548   6.619   3.533  0.9234 -0.3061 -1.1136
   27MOL   H63528767   5.712   6.645   3.585  1.6521 -2.0308  3.0633
   27MOL   H63628768   5.602   6.578   3.699 -1.0409  0.7963 -0.5687
   27MOL   H63728769   5.439   6.426   3.480 -1.2822  0.1353  2.3314
   27MOL   H63828770   5.521   6.270   3.476  2.4511 -1.1650  0.9424
   27MOL   H63928771   5.480   6.338   3.626  1.0818 -3.8639 -0.3858
   27MOL   H64028772   5.669   6.163   3.579  0.2268  0.6853  0.6394
   27MOL   H64128773   5.797   6.028   3.736  0.9038  0.3739 -0.2529
   27MOL   H64228774   6.006   6.385   3.855 -1.8354  0.7239  1.3658
   27MOL   H64328775   5.859   6.529   3.717 -0.8766  0.5935 -1.2852
   27MOL   H64428776   5.931   6.384   3.473 -0.6437  0.7862  0.6185
   27MOL   H64528777   6.015   6.347   3.236 -0.0219 -0.8395  2.2858
   27MOL   H64628778   6.087   6.550   2.979  0.9305  1.1231 -0.5828
   27MOL   H64728779   6.107   6.727   2.799 -0.0985  0.1056 -0.3181
   27MOL   H64828780   5.852   7.005   2.420 -1.5328 -1.9603 -0.3459
   27MOL   H64928781   5.759   7.233   2.458 -0.2740  0.6409  0.5891
   27MOL   C65028782   5.965   6.129   4.025  0.2696  0.4424  0.0218
   27MOL   C65128783   6.076   6.145   4.109  0.3666 -0.6678  0.1697
   27MOL   C65228784   6.052   6.121   4.247 -0.6405  0.0077  0.5376
   27MOL   C65328785   5.925   6.093   4.300  0.6161 -0.6109 -0.2939
   27MOL   S65428786   5.918   6.045   4.471 -0.2782  0.1950 -0.0363
   27MOL   O65528787   5.775   6.018   4.499  0.5260 -0.4793 -0.0001
   27MOL   O65628788   5.997   6.137   4.551 -0.0777 -0.3394 -0.6984
   27MOL   C65728789   6.000   5.890   4.479  0.2125  0.5840  0.2979
   27MOL   C65828790   6.140   5.891   4.470  0.2223  0.0678  0.0711
   27MOL   C65928791   6.213   5.775   4.475  0.5189 -0.4784 -0.3517
   27MOL   C66028792   6.147   5.645   4.471  0.1749  0.1419 -0.3659
   27MOL   O66128793   6.227   5.533   4.466  0.3344 -0.1632 -0.6283
   27MOL   C66228794   6.169   5.412   4.492 -0.1668 -0.2276 -0.3241
   27MOL   C66328795   6.131   5.323   4.391  0.5288  0.2172 -0.0731
   27MOL   C66428796   6.083   5.194   4.419 -0.3157  0.4136 -0.3668
   27MOL   C66528797   6.059   5.151   4.549  0.1676 -0.0580  0.6098
   27MOL   C66628798   6.011   5.015   4.588 -0.1349 -0.2046 -0.7693
   27MOL   C66728799   5.975   4.928   4.463 -0.1739 -0.2726  0.5198
   27MOL   C66828800   6.131   4.956   4.665  0.0281  0.1038 -0.3652
   27MOL   C66928801   5.883   5.028   4.681  0.0557 -0.4774  0.3283
   27MOL   C67028802   5.879   4.992   4.817 -0.3666  0.5832 -0.5614
   27MOL   C67128803   5.785   5.042   4.911 -0.2157  0.0698 -0.6061
   27MOL   C67228804   5.677   5.115   4.862  0.4381  0.2007 -0.2061
   27MOL   O67328805   5.577   5.152   4.948  0.3447  0.5088 -0.4766
   27MOL   C67428806   5.672   5.151   4.727  0.6420  0.4837  0.0204
   27MOL   C67528807   5.775   5.104   4.635  0.7284  0.1106 -0.2537
   27MOL   C67628808   6.095   5.238   4.652 -0.4534  0.8704 -0.0517
   27MOL   C67728809   6.149   5.364   4.623 -0.0938 -0.3769 -0.2370
   27MOL   C67828810   6.006   5.650   4.481 -0.3029  0.7659  0.2834
   27MOL   C67928811   5.935   5.766   4.483 -0.4679  0.0022  0.0208
   27MOL   C68028812   5.813   6.065   4.215  0.0809  0.3587 -0.4162
   27MOL   C68128813   5.838   6.096   4.075  0.2926 -0.1543 -0.2784
   27MOL   H68228814   6.169   6.188   4.075 -1.3635  2.8834 -0.3220
   27MOL   H68328815   6.118   6.157   4.324  1.0083 -1.5764 -0.0867
   27MOL   H68428816   6.200   5.979   4.487 -0.4259  0.5020  0.1283
   27MOL   H68528817   6.321   5.779   4.471  0.7040  1.1185  3.6446
   27MOL   H68628818   6.141   5.348   4.287 -0.5317  0.8322 -0.0401
   27MOL   H68728819   6.058   5.126   4.339  2.7453 -1.8161  0.4496
   27MOL   H68828820   6.063   4.912   4.400  0.9998  0.1003  2.0381
   27MOL   H68928821   5.898   4.976   4.403  1.2320  0.0756 -1.0415
   27MOL   H69028822   5.941   4.828   4.492 -1.3120  0.2347  0.9538
   27MOL   H69128823   6.209   4.964   4.590 -0.5406 -0.6972 -1.0548
   27MOL   H69228824   6.169   5.009   4.752 -0.3304  0.5442 -0.4793
   27MOL   H69328825   6.120   4.849   4.686  0.2048  0.0184 -0.6944
   27MOL   H69428826   5.959   4.939   4.867 -0.6352  0.8940  0.2031
   27MOL   H69528827   5.802   5.029   5.017 -0.0079  0.3482 -0.6049
   27MOL   H69628828   5.587   5.207   4.691  0.0887 -2.1030 -2.8464
   27MOL   H69728829   5.779   5.114   4.527  1.8616  1.2453 -0.1211
   27MOL   H69828830   6.070   5.207   4.753  0.0564 -1.4801 -0.6072
   27MOL   H69928831   6.161   5.431   4.707  0.6106  1.3231 -1.6651
   27MOL   H70028832   5.945   5.561   4.485 -0.7904  0.9364 -2.4345
   27MOL   H70128833   5.828   5.775   4.481 -0.3343  1.5125 -3.3475
   27MOL   H70228834   5.719   6.031   4.256  1.1367 -0.6152  1.2186
   27MOL   H70328835   5.756   6.068   4.009  2.4131 -1.1957 -2.5423
   27MOL   C70428836   5.464   5.076   4.948  1.0459 -0.3154 -0.3481
   27MOL   C70528837   5.347   5.117   4.871 -0.0485 -0.1940 -0.7633
   27MOL   C70628838   5.225   5.049   4.896  0.4197 -0.1112  0.6153
   27MOL   C70728839   5.219   4.937   4.980 -0.4392  0.1744 -0.0210
   27MOL   S70828840   5.054   4.864   5.007  0.3485 -0.3209  0.1742
   27MOL   O70928841   5.022   4.795   4.884  0.4876  0.1691  0.4618
   27MOL   O71028842   4.971   4.966   5.069  0.5064  0.1927  0.6959
   27MOL   C71128843   5.065   4.742   5.138  0.5015 -0.1912 -0.0582
   27MOL   C71228844   5.099   4.777   5.269  0.0543 -0.0353 -0.1090
   27MOL   C71328845   5.091   4.680   5.371  0.0494 -0.0616 -0.1690
   27MOL   C71428846   5.065   4.543   5.331  0.4635 -0.6356 -0.4816
   27MOL   O71528847   5.065   4.446   5.425  0.4487 -0.3659  0.1405
   27MOL   C71628848   5.186   4.410   5.480  0.0902  0.4638 -0.4759
   27MOL   C71728849   5.263   4.304   5.432  0.2554 -0.3109 -0.0133
   27MOL   C71828850   5.398   4.283   5.476  0.0789  0.6821 -0.6021
   27MOL   C71928851   5.449   4.356   5.583  0.1124 -0.6028 -0.1940
   27MOL   C72028852   5.592   4.311   5.637 -0.4645  0.6802  1.0652
   27MOL   C72128853   5.646   4.423   5.733  0.4521  0.2930  0.0992
   27MOL   C72228854   5.574   4.182   5.716  0.4759 -0.1723  0.0581
   27MOL   C72328855   5.700   4.293   5.525 -0.1287 -0.0191  0.0904
   27MOL   C72428856   5.792   4.184   5.523  0.8332 -0.5682 -0.4023
   27MOL   C72528857   5.895   4.171   5.430 -0.1431  0.0310  0.3033
   27MOL   C72628858   5.923   4.282   5.346 -0.5050  0.1076 -0.3477
   27MOL   O72728859   6.028   4.263   5.256  0.0328  0.5389  0.2838
   27MOL   C72828860   5.844   4.397   5.345 -0.4362  0.6931 -0.4375
   27MOL   C72928861   5.739   4.401   5.438  0.5336 -0.3512  0.1252
   27MOL   C73028862   5.369   4.456   5.642 -0.3823 -0.4515 -0.6848
   27MOL   C73128863   5.234   4.478   5.594 -0.0967  0.7332 -1.0269
   27MOL   C73228864   5.041   4.511   5.199 -0.6786  0.1442  0.3106
   27MOL   C73328865   5.036   4.611   5.106  0.2670  0.7267  0.4195
   27MOL   C73428866   5.334   4.907   5.054  0.3888  0.3397 -0.1285
   27MOL   C73528867   5.455   4.972   5.042  0.0870  0.5506  0.0987
   27MOL   H73628868   5.361   5.200   4.804 -0.3293 -0.8632 -1.6623
   27MOL   H73728869   5.137   5.080   4.841 -0.4667 -2.2561  0.7900
   27MOL   H73828870   5.124   4.877   5.304 -1.1500 -0.2263  1.3485
   27MOL   H73928871   5.108   4.713   5.472 -1.0615  1.0275 -0.3398
   27MOL   H74028872   5.221   4.249   5.349 -0.2370  0.3640 -0.2136
   27MOL   H74128873   5.452   4.203   5.428 -2.3616 -1.1818 -0.3517
   27MOL   H74228874   5.635   4.522   5.690 -0.5597 -0.6343 -1.8491
   27MOL   H74328875   5.749   4.402   5.762  0.1720 -1.8065 -0.2852
   27MOL   H74428876   5.589   4.411   5.825  0.7412  2.6312  0.5909
   27MOL   H74528877   5.496   4.184   5.791  1.9935 -2.0692  1.7412
   27MOL   H74628878   5.547   4.091   5.662  0.0784 -0.1821  0.2763
   27MOL   H74728879   5.667   4.165   5.770  0.2027 -2.6945 -0.2136
   27MOL   H74828880   5.774   4.095   5.581 -0.9645  1.3066  1.9967
   27MOL   H74928881   5.965   4.089   5.432 -0.4706 -0.2315  1.0017
   27MOL   H75028882   5.875   4.481   5.284 -2.2963  0.7014 -1.4081
   27MOL   H75128883   5.682   4.493   5.432  1.1268 -0.1530 -3.4067
   27MOL   H75228884   5.398   4.517   5.726  1.1097  0.1126 -1.5975
   27MOL   H75328885   5.178   4.552   5.650  2.5953 -0.3790  3.4326
   27MOL   H75428886   5.006   4.411   5.176 -0.3109  0.7234 -3.0931
   27MOL   H75528887   5.008   4.591   5.004 -0.0494 -0.5900  0.7529
   27MOL   H75628888   5.323   4.831   5.129 -1.5753  0.0281 -0.7040
   27MOL   H75728889   5.543   4.943   5.098 -0.9437 -0.7797  1.0511
   27MOL   C75828890   5.989   4.172   5.161  0.0762 -0.2909  0.4027
   27MOL   C75928891   6.017   4.036   5.180  0.2760  0.1106 -0.0526
   27MOL   C76028892   5.968   3.937   5.085 -0.2157 -1.1479 -0.6520
   27MOL   C76128893   5.909   3.979   4.969 -0.5718 -0.9944  0.4492
   27MOL   S76228894   5.858   3.861   4.847  0.5292 -0.9929 -0.3014
   27MOL   O76328895   5.793   3.925   4.731 -0.1923  0.4834 -0.2440
   27MOL   O76428896   5.773   3.780   4.931  0.2401  0.4580 -0.6120
   27MOL   C76528897   6.001   3.767   4.800 -0.4472 -0.2775 -0.3068
   27MOL   C76628898   6.029   3.646   4.876  1.0114  0.3765 -0.0970
   27MOL   C76728899   6.133   3.562   4.840 -0.5450  0.3880  0.9901
   27MOL   C76828900   6.210   3.593   4.725 -0.2749  0.7498  0.1100
   27MOL   O76928901   6.299   3.496   4.678  0.1918 -0.3104  0.4991
   27MOL   C77028902   6.280   3.448   4.548 -0.3766 -0.3146  0.3668
   27MOL   C77128903   6.389   3.409   4.472  0.3128  0.3826 -0.2893
   27MOL   C77228904   6.374   3.362   4.343  0.2036 -0.4816  0.1452
   27MOL   C77328905   6.253   3.372   4.277  0.8542  0.3525  0.2351
   27MOL   C77428906   6.240   3.320   4.130  1.0185  0.5833 -0.4497
   27MOL   C77528907   6.228   3.445   4.039  0.4585  0.1239 -0.5882
   27MOL   C77628908   6.355   3.232   4.076  0.1373 -0.0720  0.4083
   27MOL   C77728909   6.116   3.225   4.123  0.3090  0.3450  0.0029
   27MOL   C77828910   6.001   3.257   4.051 -0.6733  0.2264  0.1284
   27MOL   C77928911   5.880   3.180   4.074 -0.0232 -1.2388 -0.4156
   27MOL   C78028912   5.880   3.064   4.152  0.1900 -0.2403  0.3508
   27MOL   O78128913   5.772   2.981   4.155 -0.4652 -0.5376  0.6503
   27MOL   C78228914   5.996   3.029   4.219  0.7469  0.4938  0.5269
   27MOL   C78328915   6.110   3.104   4.205 -0.4945 -0.3582  0.6896
   27MOL   C78428916   6.147   3.418   4.351 -1.0083 -0.2427  0.0097
   27MOL   C78528917   6.153   3.453   4.487 -0.5158  0.0192 -0.6594
   27MOL   C78628918   6.184   3.713   4.661 -0.5297 -0.5461  0.5905
   27MOL   C78728919   6.086   3.799   4.692 -0.3331  0.4432  0.0478
   27MOL   C78828920   5.874   4.113   4.951  0.5638 -0.4211 -0.0371
   27MOL   C78928921   5.916   4.214   5.048  0.0974 -0.0290 -0.4031
   27MOL   H79028922   6.084   4.003   5.259 -1.4197  0.8627  1.7412
   27MOL   H79128923   6.002   3.835   5.088  0.5918 -0.8887 -0.8071
   27MOL   H79228924   5.956   3.624   4.953  1.2165  0.6775  0.1869
   27MOL   H79328925   6.139   3.472   4.899  1.4309  0.9542  1.7061
   27MOL   H79428926   6.488   3.400   4.512  0.2431 -1.5473 -0.4782
   27MOL   H79528927   6.463   3.327   4.292  0.0539 -0.4489 -0.1394
   27MOL   H79628928   6.193   3.423   3.938 -1.0309 -0.2253 -0.0201
   27MOL   H79728929   6.319   3.504   4.042 -1.0057  2.3918  0.2786
   27MOL   H79828930   6.150   3.512   4.075 -0.6318 -0.3776 -1.9832
   27MOL   H79928931   6.451   3.283   4.073  0.1091 -0.0659 -1.6360
   27MOL   H80028932   6.371   3.151   4.146  2.4217 -0.1917 -0.2288
   27MOL   H80128933   6.322   3.208   3.975  0.4976  2.6126 -0.4054
   27MOL   H80228934   5.999   3.352   3.999 -2.0354  0.1684  0.0549
   27MOL   H80328935   5.791   3.202   4.017 -0.3353 -2.2230 -0.3177
   27MOL   H80428936   6.000   2.937   4.274 -1.0283  0.7544  1.1338
   27MOL   H80528937   6.198   3.070   4.256 -0.1731 -0.5281  0.0159
   27MOL   H80628938   6.049   3.438   4.309 -0.3147  1.4120 -0.8425
   27MOL   H80728939   6.069   3.493   4.541 -1.2013 -1.0361 -0.9308
   27MOL   H80828940   6.237   3.724   4.567  0.3336 -1.9811  0.8963
   27MOL   H80928941   6.056   3.884   4.632  0.9386  1.5924  1.0072
   27MOL   H81028942   5.816   4.139   4.864 -0.0968 -1.1600  0.1719
   27MOL   H81128943   5.893   4.317   5.028  1.0755  0.4429  0.8666
   27MOL   C81228944   5.654   3.024   4.105  0.6204  0.3669  0.5146
   27MOL   C81328945   5.609   2.997   3.976 -0.0416 -0.0923 -0.7329
   27MOL   C81428946   5.489   3.048   3.936  0.0966 -0.1101  0.4458
   27MOL   C81528947   5.398   3.112   4.028 -0.8027  0.1763  0.0513
   27MOL   S81628948   5.247   3.170   3.954 -0.3157 -0.1168  0.1095
   27MOL   O81728949   5.213   3.075   3.845 -0.0041  0.2849 -0.1655
   27MOL   O81828950   5.265   3.312   3.928  0.2943 -0.5361  0.4859
   27MOL   C81928951   5.131   3.165   4.087 -0.1467 -0.3706  0.3056
   27MOL   C82028952   5.121   3.266   4.183 -0.2897  0.1046 -1.0014
   27MOL   C82128953   5.025   3.264   4.284  0.4293  0.1414 -0.1022
   27MOL   C82228954   4.935   3.154   4.293  0.0592  0.0659  0.0583
   27MOL   O82328955   4.858   3.130   4.404 -0.3312  0.6615  0.2744
   27MOL   C82428956   4.868   3.013   4.475 -0.3015 -0.2379 -0.8645
   27MOL   C82528957   4.751   2.941   4.509 -0.2290  0.3087  0.4941
   27MOL   C82628958   4.763   2.825   4.590 -0.1767  0.7203  0.4095
   27MOL   C82728959   4.884   2.784   4.645 -0.0632  0.3115 -0.0761
   27MOL   C82828960   4.891   2.680   4.756  0.8419  0.4016 -0.0015
   27MOL   C82928961   5.030   2.659   4.814 -0.2717 -0.5350 -0.2045
   27MOL   C83028962   4.798   2.722   4.878 -0.4403 -0.3885  0.4217
   27MOL   C83128963   4.839   2.538   4.704  0.3851  0.3901  0.6964
   27MOL   C83228964   4.793   2.439   4.786 -0.0489 -0.5578 -0.0795
   27MOL   C83328965   4.771   2.305   4.746 -0.1221 -0.2266  0.6243
   27MOL   C83428966   4.788   2.268   4.612 -0.0753  0.0831  0.5672
   27MOL   O83528967   4.786   2.131   4.581 -0.5130 -0.6355 -0.3476
   27MOL   C83628968   4.826   2.372   4.517 -0.1934  0.5634  0.1348
   27MOL   C83728969   4.860   2.499   4.569  0.0515 -0.5308 -0.3913
   27MOL   C83828970   5.003   2.851   4.602 -0.0897  0.5467 -0.2170
   27MOL   C83928971   4.990   2.964   4.521  0.1032  0.0231  0.3746
   27MOL   C84028972   4.944   3.056   4.194 -0.0762 -0.3911 -0.0217
   27MOL   C84128973   5.044   3.052   4.103 -0.1091  0.6454  0.7859
   27MOL   C84228974   5.437   3.141   4.156 -0.0682  0.0287 -0.7379
   27MOL   C84328975   5.570   3.097   4.195  0.2381  0.2992  0.5008
   27MOL   H84428976   5.662   2.934   3.906 -1.3332 -4.9993  2.4609
   27MOL   H84528977   5.461   3.033   3.832  0.3860 -1.7220  0.5968
   27MOL   H84628978   5.196   3.343   4.176  0.1829 -0.1409  1.2608
   27MOL   H84728979   5.014   3.342   4.357  2.1205  2.1702 -1.9511
   27MOL   H84828980   4.655   2.979   4.479 -0.1401 -0.3593 -0.6927
   27MOL   H84928981   4.681   2.761   4.617 -0.9723  1.0586 -1.1606
   27MOL   H85028982   5.102   2.620   4.742  1.0210  0.4460  0.5296
   27MOL   H85128983   5.016   2.595   4.901 -1.2901 -1.3363 -0.9407
   27MOL   H85228984   5.074   2.746   4.864  0.6503 -1.3083  0.3421
   27MOL   H85328985   4.823   2.825   4.902  0.2992 -0.6073  0.6071
   27MOL   H85428986   4.697   2.711   4.839 -0.6770  0.3677  0.8121
   27MOL   H85528987   4.815   2.663   4.968  3.2944  2.8055  1.9580
   27MOL   H85628988   4.780   2.460   4.892 -2.0369 -0.1224 -0.3795
   27MOL   H85728989   4.747   2.222   4.811 -1.7516 -0.2330  0.0439
   27MOL   H85828990   4.841   2.349   4.413  2.5042  1.5616  0.2782
   27MOL   H85928991   4.903   2.568   4.498  0.2804 -0.2188  0.0470
   27MOL   H86028992   5.102   2.835   4.640 -0.2127  2.4521  0.9504
   27MOL   H86128993   5.082   3.019   4.502 -1.1154  2.1214  0.3901
   27MOL   H86228994   4.881   2.969   4.199  0.2791 -0.6360  0.2060
   27MOL   H86328995   5.045   2.973   4.029 -0.4788  0.5625  0.8705
   27MOL   H86428996   5.375   3.192   4.228  1.4017 -0.0444  0.5947
   27MOL   H86528997   5.607   3.126   4.293 -1.0229  0.9111  0.8104
   27MOL   C86628998   4.879   2.084   4.494 -0.0295 -0.3736 -0.5699
   27MOL   C86728999   4.835   2.052   4.363  0.0058 -0.8534 -0.4080
   27MOL   C86829000   4.929   2.009   4.269 -0.4955  0.2559  0.0901
   27MOL   C86929001   5.062   1.998   4.304 -0.2368  0.3231 -0.2687
   27MOL   S87029002   5.173   1.971   4.175  0.1006  0.5465  0.0959
   27MOL   O87129003   5.104   1.869   4.095 -0.5245 -0.2202  0.8100
   27MOL   O87229004   5.311   1.957   4.236 -0.0819  0.3263  0.8954
   27MOL   C87329005   5.172   2.122   4.085 -0.5008  0.2440 -0.1403
   27MOL   C87429006   5.080   2.145   3.982 -0.4873  0.4049  0.0836
   27MOL   C87529007   5.073   2.263   3.919 -0.6482  1.0164 -0.4190
   27MOL   C87629008   5.165   2.365   3.955  0.3136  0.1756 -0.1204
   27MOL   O87729009   5.172   2.481   3.889 -0.0481 -0.6204 -0.1915
   27MOL   C87829010   5.056   2.524   3.825 -0.5624  0.2077  0.5885
   27MOL   C87929011   5.042   2.494   3.687  0.3508  0.0788  0.2850
   27MOL   C88029012   4.936   2.556   3.616 -0.1127  0.1547 -0.2361
   27MOL   C88129013   4.835   2.637   3.685  0.0732 -0.3933 -0.2801
   27MOL   C88229014   4.723   2.713   3.613  0.1213 -0.5233 -0.1686
   27MOL   C88329015   4.731   2.678   3.458 -0.2010 -0.0327 -0.7061
   27MOL   C88429016   4.583   2.675   3.664  0.7537 -0.3629 -0.8279
   27MOL   C88529017   4.757   2.864   3.621  0.5323  0.2662 -1.2017
   27MOL   C88629018   4.879   2.917   3.681  0.3833  0.4334  0.0486
   27MOL   C88729019   4.907   3.058   3.670  0.2941  0.3138 -0.2823
   27MOL   C88829020   4.808   3.141   3.619  0.0091  0.0533 -0.2031
   27MOL   O88929021   4.824   3.276   3.624  0.2784  0.7039  1.0006
   27MOL   C89029022   4.675   3.093   3.577 -0.1688 -0.0977 -0.6235
   27MOL   C89129023   4.659   2.954   3.566 -0.1890 -0.1493 -0.3930
   27MOL   C89229024   4.853   2.656   3.825 -0.2799  0.2182 -0.1577
   27MOL   C89329025   4.966   2.606   3.897 -0.2078  0.7400  0.2885
   27MOL   C89429026   5.258   2.343   4.055 -0.2868 -0.7156  0.0965
   27MOL   C89529027   5.266   2.218   4.125  0.2041 -0.2396 -0.6758
   27MOL   C89629028   5.106   2.034   4.436 -0.1180  0.5188  0.2622
   27MOL   C89729029   5.014   2.075   4.540  0.4039 -0.9964 -0.7423
   27MOL   H89829030   4.731   2.052   4.335 -0.5166 -2.2267  1.4597
   27MOL   H89929031   4.890   1.990   4.170 -1.8925  0.5911  0.5658
   27MOL   H90029032   5.008   2.068   3.958  0.6902 -0.9674  0.8500
   27MOL   H90129033   5.010   2.275   3.832  0.2705  4.6983 -0.6466
   27MOL   H90229034   5.106   2.429   3.629  2.4656  0.8288  1.7174
   27MOL   H90329035   4.935   2.538   3.510 -0.6098 -0.4774 -0.1327
   27MOL   H90429036   4.723   2.571   3.440 -0.1282  0.0810 -1.4321
   27MOL   H90529037   4.822   2.714   3.411 -0.9432  0.7573 -1.5387
   27MOL   H90629038   4.644   2.726   3.414 -1.4203 -1.6679 -0.1503
   27MOL   H90729039   4.582   2.709   3.767 -0.1471 -0.5896 -0.7543
   27MOL   H90829040   4.502   2.728   3.612  1.2216 -0.0454 -1.2415
   27MOL   H90929041   4.565   2.568   3.659  1.3306 -0.6231  1.9177
   27MOL   H91029042   4.956   2.860   3.730  1.4037 -1.6710 -3.8226
   27MOL   H91129043   4.992   3.098   3.722 -0.2873 -0.5834  1.4065
   27MOL   H91229044   4.597   3.163   3.553 -0.6608  0.1997  1.6592
   27MOL   H91329045   4.572   2.918   3.514 -2.1690  1.2393  1.8422
   27MOL   H91429046   4.799   2.735   3.877 -3.3797 -0.9255 -1.4886
   27MOL   H91529047   4.980   2.618   4.003 -0.9115 -2.4650  0.7864
   27MOL   H91629048   5.325   2.422   4.086 -0.6764 -0.4265  0.2082
   27MOL   H91729049   5.336   2.196   4.205 -0.8152 -0.5305  0.1458
   27MOL   H91829050   5.212   2.023   4.452 -0.3765 -3.0991 -0.2244
   27MOL   H91929051   5.030   2.098   4.644  1.7855 -3.1978 -0.4476
   27MOL   C92029052   4.802   3.344   3.740  0.8242 -0.4016 -0.0299
   27MOL   C92129053   4.909   3.376   3.830  0.2647  0.0392  0.1009
   27MOL   C92229054   4.887   3.431   3.962 -0.2900 -0.4917  0.2265
   27MOL   C92329055   4.755   3.447   4.003 -0.1440  0.5402 -0.4192
   27MOL   S92429056   4.712   3.522   4.155  0.4837 -0.1467  0.3728
   27MOL   O92529057   4.661   3.652   4.117 -0.2092 -0.3505 -0.1314
   27MOL   O92629058   4.828   3.516   4.240 -0.1337  0.1709  0.3999
   27MOL   C92729059   4.581   3.434   4.235  1.0931 -0.1773  0.2460
   27MOL   C92829060   4.464   3.504   4.264  0.1259 -0.4877  0.1551
   27MOL   C92929061   4.360   3.443   4.334  0.3974  0.0423 -0.2297
   27MOL   C93029062   4.375   3.310   4.377 -0.6874 -0.3254  0.2214
   27MOL   O93129063   4.279   3.256   4.464 -0.1600  0.1204 -0.1610
   27MOL   C93229064   4.272   3.119   4.488 -0.1250 -0.0783 -0.0566
   27MOL   C93329065   4.334   3.071   4.601 -0.3737  0.0256 -0.0971
   27MOL   C93429066   4.321   2.936   4.636 -0.4085 -0.2726 -0.0185
   27MOL   C93529067   4.255   2.842   4.550  0.1176 -0.0470 -0.6604
   27MOL   C93629068   4.266   2.690   4.570  0.3670  0.3214  0.3752
   27MOL   C93729069   4.181   2.602   4.470  1.2793  0.1908  0.2877
   27MOL   C93829070   4.416   2.653   4.548  0.4083 -0.5944 -0.5014
   27MOL   C93929071   4.215   2.650   4.711 -0.4563 -0.1082 -0.3794
   27MOL   C94029072   4.291   2.592   4.810 -0.7424 -0.6484  0.7609
   27MOL   C94129073   4.253   2.578   4.940  0.7792  0.3496  0.2382
   27MOL   C94229074   4.130   2.640   4.981  0.3556 -0.0572  0.7627
   27MOL   O94329075   4.103   2.635   5.116  0.4232 -0.3304 -0.3903
   27MOL   C94429076   4.043   2.696   4.884 -0.1672 -0.0276 -0.6094
   27MOL   C94529077   4.086   2.701   4.749  0.1462  0.0315  0.7416
   27MOL   C94629078   4.196   2.896   4.433  0.3995 -0.3541  0.2761
   27MOL   C94729079   4.202   3.032   4.406  0.2257 -0.1972 -0.5321
   27MOL   C94829080   4.485   3.234   4.329  0.2504 -0.7112  0.8141
   27MOL   C94929081   4.588   3.302   4.257  0.3460 -0.2897 -0.6669
   27MOL   C95029082   4.643   3.411   3.920  0.0384  0.3336 -0.0602
   27MOL   C95129083   4.665   3.375   3.787  0.0268  0.5306 -0.4145
   27MOL   H95229084   5.013   3.368   3.799  0.3317 -0.1853  0.3817
   27MOL   H95329085   4.970   3.472   4.019 -0.7845 -0.6433  1.0579
   27MOL   H95429086   4.462   3.611   4.251  2.8052 -0.2314  1.5208
   27MOL   H95529087   4.283   3.508   4.372 -1.0788 -1.1669 -1.0605
   27MOL   H95629088   4.393   3.129   4.671 -0.5758  2.2187 -1.7313
   27MOL   H95729089   4.371   2.892   4.721  0.0628  1.9531  0.8764
   27MOL   H95829090   4.075   2.626   4.465  2.0423  3.3994 -1.1277
   27MOL   H95929091   4.197   2.494   4.479  1.1920 -0.2554 -3.9894
   27MOL   H96029092   4.217   2.636   4.374  0.0929  0.3882 -0.0938
   27MOL   H96129093   4.427   2.544   4.544  0.8737 -0.4788 -3.2683
   27MOL   H96229094   4.454   2.694   4.455 -0.4434 -1.7846 -1.3972
   27MOL   H96329095   4.479   2.697   4.624  0.6380 -0.7929 -0.5746
   27MOL   H96429096   4.388   2.558   4.779 -1.3824 -0.5044 -1.5022
   27MOL   H96529097   4.319   2.526   5.008  0.4887  0.2225  0.4209
   27MOL   H96629098   3.947   2.740   4.909 -0.2277 -0.6714  0.3175
   27MOL   H96729099   4.022   2.740   4.671  0.7016 -2.4909 -1.0521
   27MOL   H96829100   4.137   2.838   4.363  0.1007  2.0592 -1.5411
   27MOL   H96929101   4.147   3.059   4.317 -2.6452  0.4680  1.3846
   27MOL   H97029102   4.490   3.127   4.341 -1.6404 -0.8135  0.8190
   27MOL   H97129103   4.674   3.247   4.223  1.1067  1.1932 -1.1475
   27MOL   H97229104   4.541   3.414   3.955  0.1954 -2.8221  0.7462
   27MOL   H97329105   4.586   3.361   3.715 -1.1169  0.4720  0.8272
   27MOL   C97429106   3.989   2.573   5.156  0.6576 -0.3444  0.5873
   27MOL   C97529107   3.885   2.647   5.204 -0.8155 -0.1846 -0.1808
   27MOL   C97629108   3.784   2.587   5.281 -0.0952  0.3692  0.2767
   27MOL   C97729109   3.789   2.445   5.302  0.4410  0.5909 -0.6555
   27MOL   S97829110   3.678   2.359   5.408 -0.3887  0.1500 -0.0832
   27MOL   O97929111   3.728   2.220   5.413 -0.7189 -0.2293 -0.5238
   27MOL   O98029112   3.537   2.372   5.363 -0.5085 -0.1101  0.1917
   27MOL   C98129113   3.706   2.437   5.566 -0.4624  0.1187  0.4324
   27MOL   C98229114   3.809   2.408   5.654 -0.5907  0.3605 -0.3777
   27MOL   C98329115   3.843   2.493   5.766  0.7086  0.0309 -0.0964
   27MOL   C98429116   3.767   2.612   5.788  0.8592 -0.7984 -0.4508
   27MOL   O98529117   3.804   2.692   5.893  0.3688 -0.0193 -0.4058
   27MOL   C98629118   3.919   2.768   5.879 -0.3311  0.1142  0.2877
   27MOL   C98729119   3.944   2.837   5.760  0.1146  0.4150 -0.0836
   27MOL   C98829120   4.068   2.906   5.747 -0.1646  0.1656  0.0164
   27MOL   C98929121   4.158   2.927   5.855 -0.6695  0.2093 -0.5634
   27MOL   C99029122   4.282   3.017   5.852 -0.6340 -0.1409  0.0811
   27MOL   C99129123   4.398   2.919   5.885  0.1097  0.3888 -0.6576
   27MOL   C99229124   4.304   3.079   5.714 -1.4844  0.0095  0.7424
   27MOL   C99329125   4.261   3.122   5.955 -0.1565 -1.2033 -0.7070
   27MOL   C99429126   4.339   3.139   6.071 -0.6067 -0.1725 -0.5523
   27MOL   C99529127   4.307   3.240   6.167  0.7576  0.4552  1.1087
   27MOL   C99629128   4.199   3.318   6.145 -0.3271  0.7603 -0.6550
   27MOL   O99729129   4.175   3.419   6.227 -0.2326 -0.3036  0.4122
   27MOL   C99829130   4.119   3.307   6.026  0.2618 -0.1605 -0.3003
   27MOL   C99929131   4.148   3.206   5.934 -0.7293 -0.0246  0.3726
   27MOL     C129132   4.127   2.856   5.974  0.1771  0.1287 -0.6491
   27MOL     C229133   4.011   2.779   5.983  0.3865 -0.0307  0.5042
   27MOL     C329134   3.651   2.634   5.706 -0.3331 -0.0915  0.3715
   27MOL     C429135   3.630   2.546   5.595 -0.0741 -0.0145 -0.5939
   27MOL     C529136   3.881   2.367   5.230  0.2626 -0.2333 -0.4415
   27MOL     C629137   3.980   2.432   5.160  0.1198 -0.1092 -0.0741
   27MOL     H729138   3.896   2.755   5.205 -2.9348  0.0724 -0.7243
   27MOL     H829139   3.703   2.641   5.326 -0.7407  2.3861 -3.1438
   27MOL     H929140   3.882   2.334   5.624  0.7517  0.8772  1.5883
   27MOL    H1029141   3.926   2.462   5.828  0.6761 -1.6754 -0.9008
   27MOL    H1129142   3.868   2.830   5.682  0.8611  0.9617 -0.8709
   27MOL    H1229143   4.073   2.953   5.650  0.1884  3.4210  1.5397
   27MOL    H1329144   4.386   2.840   5.811 -0.4114 -0.1682  0.0203
   27MOL    H1429145   4.393   2.887   5.988  0.2034 -3.6112 -1.8289
   27MOL    H1529146   4.493   2.969   5.864  0.3886 -0.1872 -0.7819
   27MOL    H1629147   4.394   3.140   5.723 -0.9231 -0.6033 -0.6604
   27MOL    H1729148   4.321   3.010   5.632 -1.1611 -0.1001  0.8996
   27MOL    H1829149   4.222   3.147   5.690 -0.9797  0.5110  0.4172
   27MOL    H1929150   4.425   3.075   6.087 -1.3441 -0.6781  1.4961
   27MOL    H2029151   4.377   3.254   6.248  0.7992  2.4387  0.7479
   27MOL    H2129152   4.037   3.376   6.019  1.2059  1.1996  1.5353
   27MOL    H2229153   4.089   3.188   5.845 -2.5212  2.8696  0.8836
   27MOL    H2329154   4.184   2.870   6.064  0.7173 -0.1522 -0.9459
   27MOL    H2429155   4.003   2.716   6.070  0.9842 -0.2248  0.4189
   27MOL    H2529156   3.588   2.720   5.726 -0.2039  0.3045 -0.9195
   27MOL    H2629157   3.538   2.560   5.541 -1.1545  0.5896  1.3543
   27MOL    H2729158   3.876   2.259   5.240 -2.2943 -0.1392 -0.3060
   27MOL    H2829159   4.054   2.364   5.120  1.5286  0.5958  1.2525
   27MOL    C2929160   4.222   3.542   6.199  0.5905  0.1943  1.0732
   27MOL    C3029161   4.155   3.657   6.244 -0.4025  0.3669  0.2751
   27MOL    C3129162   4.206   3.786   6.227 -0.0900 -0.3559 -0.4873
   27MOL    C3229163   4.325   3.806   6.155 -0.7149  0.0274  0.8590
   27MOL    S3329164   4.392   3.970   6.125  0.2926  0.4988 -0.1727
   27MOL    O3429165   4.424   3.966   5.980  0.1353  0.3570 -0.4568
   27MOL    O3529166   4.509   3.987   6.217  0.1176  0.0595 -0.3791
   27MOL    C3629167   4.267   4.088   6.156 -0.1310  0.2471 -0.4024
   27MOL    C3729168   4.155   4.088   6.069 -0.3442 -0.0351  0.3679
   27MOL    C3829169   4.049   4.175   6.097 -0.3605 -0.0693  0.2771
   27MOL    C3929170   4.059   4.266   6.207  0.6597  0.8862  0.7947
   27MOL    O4029171   3.955   4.352   6.240  0.0690 -0.7831 -0.3333
   27MOL    C4129172   3.820   4.310   6.242  0.2219  1.0278  0.1200
   27MOL    C4229173   3.782   4.183   6.293 -0.2298 -0.0158  0.5851
   27MOL    C4329174   3.643   4.145   6.280  0.1659 -0.1221 -0.4484
   27MOL    C4429175   3.542   4.233   6.218  0.0600 -0.1438  0.1374
   27MOL    C4529176   3.389   4.209   6.211  0.2358  0.3460 -0.3408
   27MOL    C4629177   3.358   4.136   6.078  0.7807 -0.1750  0.6948
   27MOL    C4729178   3.335   4.118   6.317 -0.1432  0.1878 -0.1744
   27MOL    C4829179   3.314   4.339   6.234 -0.0438  0.3763  1.0305
   27MOL    C4929180   3.320   4.400   6.362  0.0976  0.6127  0.1093
   27MOL    C5029181   3.248   4.518   6.380  0.3302  0.2994  0.1928
   27MOL    C5129182   3.177   4.584   6.276  0.0474  0.1564 -1.3225
   27MOL    O5229183   3.117   4.704   6.297  0.1230 -0.0745 -0.0287
   27MOL    C5329184   3.166   4.520   6.148 -0.1262 -0.7030 -0.5714
   27MOL    C5429185   3.239   4.401   6.133  0.3256  0.7099  0.2194
   27MOL    C5529186   3.588   4.357   6.167 -0.5375 -0.6058 -0.2268
   27MOL    C5629187   3.720   4.393   6.177 -0.1704 -0.1652 -0.3492
   27MOL    C5729188   4.176   4.266   6.294  0.8800 -0.3210  0.0620
   27MOL    C5829189   4.281   4.175   6.269 -0.1600  0.1753  0.4299
   27MOL    C5929190   4.393   3.691   6.111  0.7215 -0.2189 -0.1429
   27MOL    C6029191   4.350   3.557   6.135  0.8058  0.3116  0.5966
   27MOL    H6129192   4.066   3.642   6.302  0.6421 -4.0437  0.8954
   27MOL    H6229193   4.151   3.871   6.264  0.4873 -1.4435  3.0548
   27MOL    H6329194   4.161   4.021   5.985 -0.3064 -0.3470  0.6196
   27MOL    H6429195   3.963   4.169   6.032 -0.0869  4.6906 -0.7170
   27MOL    H6529196   3.857   4.116   6.333  0.0138  1.5486  2.8286
   27MOL    H6629197   3.619   4.047   6.318 -0.0754  0.2611  0.4111
   27MOL    H6729198   3.392   4.032   6.081  1.4776  0.0030 -0.7893
   27MOL    H6829199   3.413   4.178   5.994  0.6907 -0.3302  0.5569
   27MOL    H6929200   3.252   4.138   6.052  0.8696 -0.1785  0.3364
   27MOL    H7029201   3.228   4.106   6.334  0.0933  0.6011  1.7162
   27MOL    H7129202   3.376   4.018   6.300  0.2208  0.1121  1.1082
   27MOL    H7229203   3.365   4.151   6.416  0.2054 -0.0100 -0.2109
   27MOL    H7329204   3.389   4.372   6.441  2.3281  0.3824 -1.8596
   27MOL    H7429205   3.239   4.571   6.474  0.7466 -0.5738  0.7415
   27MOL    H7529206   3.109   4.557   6.064 -1.0482  0.7066  0.6456
   27MOL    H7629207   3.239   4.370   6.029 -0.4885 -2.1533  1.0488
   27MOL    H7729208   3.520   4.428   6.122 -0.3476 -0.4680 -0.2952
   27MOL    H7829209   3.746   4.490   6.137  1.9698  0.4483  2.3317
   27MOL    H7929210   4.196   4.336   6.373  0.6273 -0.3139  0.1193
   27MOL    H8029211   4.370   4.186   6.328  0.0568 -0.9972  0.3234
   27MOL    H8129212   4.482   3.700   6.050 -0.4842 -0.0507 -1.9112
   27MOL    H8229213   4.410   3.476   6.097 -0.0342 -0.4262  0.8376
   27MOL    H8329214   3.029   4.696   6.264  0.2586  0.9376 -0.6499
   28MOL     C129215   5.677   2.389   2.803 -0.6581 -0.3328 -0.5475
   28MOL     C229216   5.659   2.367   2.662  0.0374 -0.1809  0.0777
   28MOL     C329217   5.746   2.272   2.600  0.4657  0.0345 -0.1952
   28MOL     C429218   5.844   2.206   2.673 -0.2035 -0.4648  0.6239
   28MOL     S529219   5.952   2.088   2.588 -0.5831  0.3867  0.1593
   28MOL     O629220   5.967   1.972   2.676 -0.1474  0.2664  0.6651
   28MOL     O729221   6.078   2.152   2.557  0.5667  0.3495  0.2575
   28MOL     C829222   5.875   2.037   2.439 -0.2782  0.3660 -0.0320
   28MOL     C929223   5.930   2.088   2.325 -0.9301 -1.1655  0.0075
   28MOL    C1029224   5.872   2.048   2.202 -0.0628  0.4160 -0.2749
   28MOL    C1129225   5.762   1.957   2.202 -0.6404  0.2628 -0.6160
   28MOL    O1229226   5.696   1.925   2.089 -0.4072  0.1025  0.0617
   28MOL    C1329227   5.756   1.932   1.969 -0.7472 -0.0743  0.7083
   28MOL    C1429228   5.835   1.820   1.931 -1.3059 -0.0135 -0.0844
   28MOL    C1529229   5.902   1.827   1.808  0.3667 -0.2850  0.2562
   28MOL    C1629230   5.901   1.935   1.715  0.9635 -0.4883 -0.3766
   28MOL    C1729231   6.003   1.946   1.601  0.4000  0.3299 -0.9270
   28MOL    C1829232   5.932   1.904   1.476  0.0999  0.3859 -0.1401
   28MOL    C1929233   6.044   2.089   1.579 -0.6063 -0.2238  0.0449
   28MOL    C2029234   6.126   1.852   1.616 -0.4761 -0.5658 -1.1836
   28MOL    C2129235   6.206   1.872   1.731  0.6121 -0.5142  0.1997
   28MOL    C2229236   6.328   1.804   1.745 -0.2623 -0.7740  0.3309
   28MOL    C2329237   6.368   1.713   1.648  0.3357  0.1101  0.7748
   28MOL    O2429238   6.478   1.633   1.668  0.0643  0.2630 -0.0480
   28MOL    C2529239   6.286   1.692   1.531 -0.5693 -0.8577 -0.0842
   28MOL    C2629240   6.168   1.764   1.516  0.4183 -0.0318 -0.8741
   28MOL    C2729241   5.810   2.038   1.756  0.6384  0.4984 -0.0058
   28MOL    C2829242   5.736   2.036   1.878 -1.1145 -0.8686 -0.0910
   28MOL    C2929243   5.717   1.899   2.322 -0.1723 -0.7242  0.2712
   28MOL    C3029244   5.779   1.936   2.439  0.4419  0.8957  0.0398
   28MOL    C3129245   5.854   2.217   2.809 -0.6409 -0.0731 -0.0802
   28MOL    C3229246   5.772   2.312   2.875  0.2364 -0.2448  0.0362
   28MOL    H3329247   5.603   2.430   2.595 -1.6710 -1.0731  0.6371
   28MOL    H3429248   5.747   2.259   2.493  1.1439  5.2070 -0.9518
   28MOL    H3529249   6.006   2.165   2.331 -0.4972 -1.6463  0.8043
   28MOL    H3629250   5.910   2.093   2.112  0.3527 -0.8424 -0.7370
   28MOL    H3729251   5.853   1.735   1.995  1.5783 -0.1407 -0.9930
   28MOL    H3829252   5.958   1.739   1.781 -0.9664 -1.6343  1.8262
   28MOL    H3929253   6.004   1.930   1.399 -0.1627  0.1935 -0.4522
   28MOL    H4029254   5.830   1.943   1.468 -0.2966 -0.8703 -1.4037
   28MOL    H4129255   5.927   1.796   1.489  2.1295  0.2614 -0.1797
   28MOL    H4229256   5.960   2.146   1.541  1.1688  2.0584 -0.5897
   28MOL    H4329257   6.082   2.149   1.662 -0.6678 -1.1263  0.7415
   28MOL    H4429258   6.129   2.081   1.511 -0.9852  0.6993 -0.5323
   28MOL    H4529259   6.174   1.942   1.806  0.2151  0.6056 -1.0078
   28MOL    H4629260   6.389   1.818   1.833 -1.4326  0.4322  0.9600
   28MOL    H4729261   6.310   1.627   1.448  1.0985 -0.2665 -0.0796
   28MOL    H4829262   6.114   1.740   1.426 -0.0412 -1.9240 -0.1372
   28MOL    H4929263   5.790   2.122   1.691 -1.8466  0.9076  1.2382
   28MOL    H5029264   5.680   2.124   1.907 -1.3083 -1.3879  1.1361
   28MOL    H5129265   5.636   1.827   2.324  2.3257 -3.6342 -0.1184
   28MOL    H5229266   5.740   1.889   2.528 -0.1983 -0.8603 -1.1477
   28MOL    H5329267   5.933   2.168   2.864 -1.2795 -0.5775  0.3884
   28MOL    H5429268   5.797   2.322   2.979  0.8418 -1.1939 -0.0034
   28MOL    H5529269   5.623   2.467   2.856  3.9853  2.8125 -0.1005
   28MOL    C5629270   6.603   1.690   1.669  0.1962 -0.6394 -0.3529
   28MOL    C5729271   6.654   1.742   1.545  0.2425  0.2897 -0.8277
   28MOL    C5829272   6.786   1.788   1.532 -0.4405  0.8545 -0.5348
   28MOL    C5929273   6.869   1.773   1.645 -0.7220  0.1039  1.2916
   28MOL    S6029274   7.036   1.833   1.630 -0.0299 -0.4020  0.0362
   28MOL    O6129275   7.081   1.875   1.764 -0.4168 -0.1120 -0.2826
   28MOL    O6229276   7.036   1.935   1.519  0.1708 -0.1829 -0.5281
   28MOL    C6329277   7.128   1.687   1.571  0.6549 -0.1511  0.4080
   28MOL    C6429278   7.204   1.693   1.451 -0.0817  0.2071 -0.0020
   28MOL    C6529279   7.270   1.585   1.392  0.1853 -1.2528  0.8695
   28MOL    C6629280   7.255   1.464   1.456  0.0454  0.0196 -0.0557
   28MOL    O6729281   7.322   1.356   1.397  0.0352  0.1465  0.2582
   28MOL    C6829282   7.440   1.319   1.464 -0.3373  0.2510  0.3284
   28MOL    C6929283   7.564   1.363   1.421 -0.4167  0.5929 -0.2299
   28MOL    C7029284   7.683   1.319   1.484 -0.4862 -0.0268  0.4022
   28MOL    C7129285   7.683   1.228   1.593  0.6188 -0.0009  0.2246
   28MOL    C7229286   7.811   1.182   1.659  0.4399 -0.2935  0.2304
   28MOL    C7329287   7.826   1.033   1.628  0.2358  0.4024 -0.2858
   28MOL    C7429288   7.938   1.256   1.597 -0.4344  0.3733 -0.2050
   28MOL    C7529289   7.813   1.201   1.819 -0.4022 -0.2770  0.2759
   28MOL    C7629290   7.806   1.334   1.867  0.2999 -0.4613  0.0131
   28MOL    C7729291   7.818   1.356   2.009 -0.0646 -0.3893 -0.5372
   28MOL    C7829292   7.826   1.251   2.096  0.6180  0.6685  0.2679
   28MOL    O7929293   7.846   1.283   2.226 -0.7071  0.1096  0.1508
   28MOL    C8029294   7.841   1.121   2.052 -0.4084  0.1223 -0.1373
   28MOL    C8129295   7.828   1.092   1.910 -0.1338 -0.0306  0.4296
   28MOL    C8229296   7.554   1.189   1.633  0.0576  0.0050 -0.3385
   28MOL    C8329297   7.436   1.230   1.570  0.3334 -0.5375  0.3045
   28MOL    C8429298   7.171   1.453   1.571  0.7250 -0.2789 -0.6395
   28MOL    C8529299   7.111   1.565   1.632  0.7159  0.4692 -0.0964
   28MOL    C8629300   6.817   1.735   1.771 -0.2427 -0.6920 -0.1392
   28MOL    C8729301   6.686   1.695   1.782  0.7481 -0.1647  0.7144
   28MOL    H8829302   6.578   1.750   1.469 -0.4533 -1.2988 -0.3296
   28MOL    H8929303   6.834   1.824   1.442  1.2940 -2.7012 -1.0950
   28MOL    H9029304   7.222   1.795   1.420 -0.5541  0.2945 -0.0077
   28MOL    H9129305   7.344   1.588   1.314 -0.5183 -4.0635  0.0245
   28MOL    H9229306   7.565   1.430   1.337 -0.1672 -0.6385 -1.2265
   28MOL    H9329307   7.775   1.354   1.441 -1.3345 -0.2040 -1.6459
   28MOL    H9429308   7.736   0.983   1.662  0.7745  0.5866  1.4327
   28MOL    H9529309   7.923   0.994   1.660  0.0559 -1.6267 -2.1273
   28MOL    H9629310   7.821   1.015   1.520 -0.5679 -0.1471 -0.1529
   28MOL    H9729311   7.952   1.227   1.493 -0.1356 -0.1065 -0.0366
   28MOL    H9829312   7.933   1.364   1.594  2.0794  0.5690  1.4666
   28MOL    H9929313   8.038   1.236   1.636 -0.1737  0.5528 -0.7885
   28MOL   H10029314   7.794   1.416   1.798 -0.0674 -0.7524 -0.2683
   28MOL   H10129315   7.831   1.459   2.040 -0.1379 -0.2571 -0.9459
   28MOL   H10229316   7.861   1.046   2.127 -0.6431 -0.5898 -0.7842
   28MOL   H10329317   7.829   0.989   1.877 -0.0487  0.4681 -1.1864
   28MOL   H10429318   7.534   1.119   1.713  0.6319  0.9047  0.6096
   28MOL   H10529319   7.342   1.194   1.611 -0.0221  0.8931  0.7680
   28MOL   H10629320   7.167   1.361   1.627  3.9143 -0.3807 -0.4593
   28MOL   H10729321   7.054   1.553   1.723 -0.0105 -0.8511 -0.7108
   28MOL   H10829322   6.886   1.741   1.854  1.1093  1.1695 -1.3544
   28MOL   H10929323   6.657   1.653   1.877  1.0331 -1.3745  0.2844
   28MOL   C11029324   7.975   1.320   2.255  0.1060  0.6959  0.2950
   28MOL   C11129325   8.083   1.232   2.233 -0.5704  0.6192 -0.2184
   28MOL   C11229326   8.223   1.276   2.254 -0.2585  0.3440  0.3682
   28MOL   C11329327   8.247   1.409   2.292 -0.2084  0.8839 -0.4295
   28MOL   S11429328   0.160   1.466   2.294 -0.1000  0.5400  0.5532
   28MOL   O11529329   0.244   1.348   2.281  0.4493 -0.7000 -0.3571
   28MOL   O11629330   0.173   1.555   2.413 -0.4014 -0.0822  0.4264
   28MOL   C11729331   0.174   1.575   2.147  0.4127  0.4031  0.0099
   28MOL   C11829332   0.247   1.530   2.039  0.5425 -0.5453  0.7603
   28MOL   C11929333   0.251   1.599   1.915 -0.4201 -0.1792 -0.1396
   28MOL   C12029334   0.179   1.722   1.907 -0.2128  0.5967 -0.1726
   28MOL   O12129335   0.175   1.788   1.786 -0.3774  0.1348  0.3644
   28MOL   C12229336   0.270   1.885   1.779  0.2643 -0.6554  0.8273
   28MOL   C12329337   0.263   2.004   1.862 -0.6631  0.6704  0.0565
   28MOL   C12429338   0.365   2.102   1.849 -0.4272 -0.3317 -0.1315
   28MOL   C12529339   0.476   2.092   1.757  0.4153  0.6031  0.1269
   28MOL   C12629340   0.584   2.208   1.741  0.1637  0.1410  0.2424
   28MOL   C12729341   0.722   2.145   1.697 -0.6027  0.2946  0.0141
   28MOL   C12829342   0.541   2.308   1.624 -0.4222  0.1200  0.0676
   28MOL   C12929343   0.604   2.284   1.877 -1.0422 -0.6894  0.7005
   28MOL   C13029344   0.663   2.213   1.983 -0.4848 -0.0118  0.8490
   28MOL   C13129345   0.674   2.272   2.111 -0.1538 -0.3714  0.4715
   28MOL   C13229346   0.639   2.410   2.128 -0.4133  0.6028  0.8390
   28MOL   O13329347   0.646   2.450   2.256  0.0661 -0.2080  0.0624
   28MOL   C13429348   0.581   2.485   2.021 -0.2268  0.5808 -0.4236
   28MOL   C13529349   0.559   2.418   1.902 -0.3471  0.3548  0.7902
   28MOL   C13629350   0.483   1.975   1.676 -0.0923 -0.5321 -0.4000
   28MOL   C13729351   0.378   1.885   1.681  0.3303 -0.1711 -0.1051
   28MOL   C13829352   0.099   1.764   2.014 -0.1042  0.9472 -0.3831
   28MOL   C13929353   0.088   1.684   2.133 -0.0047  0.6260  0.1725
   28MOL   C14029354   8.137   1.494   2.320 -0.2593  0.3509  0.6542
   28MOL   C14129355   7.998   1.451   2.305 -0.1169 -0.1444  0.6029
   28MOL   H14229356   8.057   1.131   2.205 -0.9157  0.0037  2.1686
   28MOL   H14329357   0.051   1.216   2.217 -0.1580  0.8009 -0.1665
   28MOL   H14429358   0.302   1.437   2.043  1.7039  0.0683 -0.3093
   28MOL   H14529359   0.304   1.561   1.829 -0.6456 -0.9220  0.0449
   28MOL   H14629360   0.179   2.021   1.927 -2.6807 -0.0620 -2.2830
   28MOL   H14729361   0.359   2.193   1.907  0.3831  0.5075 -1.3469
   28MOL   H14829362   0.802   2.218   1.688  0.8527 -1.0765  1.6512
   28MOL   H14929363   0.720   2.088   1.604 -0.4206  0.1333  0.1106
   28MOL   H15029364   0.752   2.073   1.773 -0.7157  0.6702  0.4172
   28MOL   H15129365   0.633   2.364   1.611 -0.4090 -0.1197 -0.9076
   28MOL   H15229366   0.530   2.255   1.530 -0.5690 -1.1475  0.7888
   28MOL   H15329367   0.450   2.359   1.654 -1.0064 -1.4979  1.1151
   28MOL   H15429368   0.694   2.110   1.973 -2.0777 -0.3752 -0.6625
   28MOL   H15529369   0.707   2.223   2.201 -0.8737 -1.0000  0.4001
   28MOL   H15629370   0.541   2.582   2.047 -1.2411  0.4636 -1.5139
   28MOL   H15729371   0.498   2.462   1.825 -0.9649 -0.8533  0.5795
   28MOL   H15829372   0.556   1.978   1.596  0.2870 -1.4088 -0.0891
   28MOL   H15929373   0.371   1.814   1.600 -2.1224  2.0902 -1.9511
   28MOL   H16029374   0.032   1.847   1.994 -1.0405 -0.0532 -1.4192
   28MOL   H16129375   0.020   1.711   2.213 -0.9313  0.2972 -0.4945
   28MOL   H16229376   8.164   1.591   2.359 -2.1761  0.8019  0.9369
   28MOL   H16329377   7.907   1.503   2.330  0.4093  0.1777  1.8909
   28MOL   C16429378   0.532   2.470   2.330 -0.2000 -0.1997  0.4414
   28MOL   C16529379   0.543   2.567   2.431 -0.5893  0.3011 -0.3515
   28MOL   C16629380   0.436   2.575   2.529  0.4019 -0.5679  0.5447
   28MOL   C16729381   0.328   2.485   2.525  1.1338 -0.3117  0.0725
   28MOL   S16829382   0.203   2.490   2.647 -0.5369  0.3761 -0.1694
   28MOL   O16929383   0.085   2.429   2.588  0.2599 -0.2206  0.0913
   28MOL   O17029384   0.195   2.623   2.713  0.3058  0.1757 -0.1665
   28MOL   C17129385   0.254   2.378   2.779  0.1620  0.0519  0.0050
   28MOL   C17229386   0.207   2.396   2.902 -0.3366 -0.5573 -0.4036
   28MOL   C17329387   0.233   2.311   3.007  0.7940 -0.1428 -0.7232
   28MOL   C17429388   0.326   2.208   3.001  0.2413  0.9753 -0.2730
   28MOL   O17529389   0.332   2.114   3.101  0.9884 -0.3809  0.2050
   28MOL   C17629390   0.450   2.051   3.123 -0.6916  0.1461  0.2412
   28MOL   C17729391   0.426   1.916   3.146 -0.5365  0.4078  0.8799
   28MOL   C17829392   0.533   1.833   3.187 -1.0037  0.5958 -0.2456
   28MOL   C17929393   0.662   1.886   3.217  0.1232  0.6371 -0.6100
   28MOL   C18029394   0.767   1.787   3.262  0.1393 -0.2699  0.3027
   28MOL   C18129395   0.853   1.864   3.370  0.3631  0.1813 -0.0845
   28MOL   C18229396   0.718   1.661   3.341  0.6287 -0.0380  0.3416
   28MOL   C18329397   0.848   1.741   3.138  0.2923  0.9408  1.1136
   28MOL   C18429398   0.777   1.703   3.018  0.2918 -0.4381  0.5427
   28MOL   C18529399   0.848   1.662   2.902  0.1910 -0.8765  0.7416
   28MOL   C18629400   0.987   1.649   2.905  0.8349 -0.2071  0.2152
   28MOL   O18729401   1.055   1.595   2.793 -0.5469  0.9683 -0.2109
   28MOL   C18829402   1.056   1.688   3.021 -0.2101 -0.6347 -0.9353
   28MOL   C18929403   0.990   1.740   3.139  0.1068  0.3005  0.6660
   28MOL   C19029404   0.679   2.026   3.206  0.0896 -0.2175  0.6545
   28MOL   C19129405   0.572   2.109   3.163  1.0986  0.6552 -0.5877
   28MOL   C19229406   0.394   2.198   2.876 -0.5098 -0.0956  0.2448
   28MOL   C19329407   0.350   2.275   2.763 -0.1983 -0.2390  0.6126
   28MOL   C19429408   0.309   2.404   2.408  0.1911 -0.4923  0.2379
   28MOL   C19529409   0.414   2.382   2.318 -0.0904 -0.1866 -0.5255
   28MOL   H19629410   0.636   2.621   2.439 -2.2656  3.1032  0.8950
   28MOL   H19729411   0.434   2.645   2.612 -0.8793  2.4632 -1.9539
   28MOL   H19829412   0.144   2.480   2.926  1.8887  0.5163  1.8437
   28MOL   H19929413   0.177   2.319   3.099  0.0881  0.2337 -1.1826
   28MOL   H20029414   0.333   1.869   3.120 -1.2055  0.3467  3.2674
   28MOL   H20129415   0.515   1.728   3.209 -0.2390  0.4399 -0.3313
   28MOL   H20229416   0.934   1.806   3.414 -1.2634 -2.7095 -0.7467
   28MOL   H20329417   0.788   1.904   3.448 -0.1650  0.0778 -0.4648
   28MOL   H20429418   0.894   1.955   3.328 -2.8056  0.5282 -2.5783
   28MOL   H20529419   0.653   1.598   3.281  0.6469 -0.4938  0.7996
   28MOL   H20629420   0.799   1.596   3.376  3.7225  4.1121  1.2708
   28MOL   H20729421   0.671   1.689   3.435  0.7943  0.0409  0.4026
   28MOL   H20829422   0.670   1.692   3.020  0.4321 -2.9941 -2.5627
   28MOL   H20929423   0.795   1.633   2.813 -1.3282 -0.4009  1.4716
   28MOL   H21029424   1.164   1.683   3.026 -0.2797 -1.3042  0.1948
   28MOL   H21129425   1.038   1.768   3.232 -0.3933 -0.5489  1.1951
   28MOL   H21229426   0.774   2.076   3.220 -0.1832  0.0532  1.6061
   28MOL   H21329427   0.579   2.217   3.160 -0.0215  0.7608  0.3380
   28MOL   H21429428   0.475   2.127   2.864  0.2555  0.5531  1.4506
   28MOL   H21529429   0.398   2.256   2.669 -0.7476 -1.4892  0.5791
   28MOL   H21629430   0.213   2.359   2.388 -0.1314 -0.5060  1.7196
   28MOL   H21729431   0.392   2.316   2.235 -0.5556 -1.6796  0.7505
   28MOL   C21829432   1.104   1.464   2.789  0.5480  0.3473  0.3978
   28MOL   C21929433   1.095   1.366   2.895  0.2816 -0.1160  0.3289
   28MOL   C22029434   1.158   1.241   2.883  0.3600 -0.1005  0.2123
   28MOL   C22129435   1.234   1.206   2.771  0.2708 -0.4563 -0.8312
   28MOL   S22229436   1.308   1.037   2.767  0.3621  0.1591  0.0296
   28MOL   O22329437   1.288   0.989   2.902  0.1397  0.2404 -0.0874
   28MOL   O22429438   1.450   1.058   2.729 -0.4581  0.0845  0.0338
   28MOL   C22529439   1.224   0.935   2.649 -0.6033 -0.7579  0.3341
   28MOL   C22629440   1.209   0.798   2.682 -0.3772 -0.4727  0.2568
   28MOL   C22729441   1.160   0.709   2.581  0.2852  0.1604 -0.0121
   28MOL   C22829442   1.121   0.769   2.456  0.1005  0.2510  0.8097
   28MOL   O22929443   1.064   0.698   2.358 -0.5669 -0.1631  0.1236
   28MOL   C23029444   0.929   0.700   2.336  0.1997 -0.3850 -0.5832
   28MOL   C23129445   0.874   0.644   2.217 -1.4807 -0.5569  0.6356
   28MOL   C23229446   0.737   0.655   2.192 -0.1125 -0.5272 -0.6838
   28MOL   C23329447   0.652   0.716   2.285 -0.4595  0.7412  0.1722
   28MOL   C23429448   0.502   0.734   2.245  0.2887 -0.2350  0.2733
   28MOL   C23529449   0.499   0.811   2.113 -0.3230 -0.5244  0.3949
   28MOL   C23629450   0.442   0.595   2.216  0.7924 -0.2273 -0.2888
   28MOL   C23729451   0.418   0.801   2.357  1.0677  0.7352  0.3968
   28MOL   C23829452   0.383   0.937   2.347 -0.1770 -0.5762 -0.0641
   28MOL   C23929453   0.309   1.018   2.443 -0.1227  0.1380  0.1532
   28MOL   C24029454   0.270   0.948   2.560  0.0380  0.0847  0.3923
   28MOL   O24129455   0.208   1.008   2.667 -0.0628 -0.0436 -0.1417
   28MOL   C24229456   0.287   0.803   2.569  0.4636 -0.6262  0.3373
   28MOL   C24329457   0.361   0.732   2.473  0.0857  0.5621  0.4218
   28MOL   C24429458   0.700   0.766   2.407 -0.3201  0.0520  0.2384
   28MOL   C24529459   0.840   0.749   2.436  0.0530  0.4456 -0.1779
   28MOL   C24629460   1.138   0.905   2.425 -0.8422 -0.6633  0.2381
   28MOL   C24729461   1.186   0.993   2.526  0.7718  0.5116  0.3870
   28MOL   C24829462   1.244   1.308   2.668  0.4526  0.8525  0.1820
   28MOL   C24929463   1.182   1.432   2.676 -0.5596  0.4873 -0.3762
   28MOL   H25029464   1.040   1.394   2.984 -2.0196 -1.9605 -0.4511
   28MOL   H25129465   1.138   1.166   2.958  1.3215  0.6567  1.2383
   28MOL   H25229466   1.258   0.761   2.771 -1.5041 -2.1124  0.2209
   28MOL   H25329467   1.159   0.603   2.601 -0.3676 -0.6014 -3.7011
   28MOL   H25429468   0.934   0.587   2.149 -0.8862  0.6845  0.1033
   28MOL   H25529469   0.698   0.613   2.101  0.8640  0.2511 -1.4629
   28MOL   H25629470   0.543   0.755   2.030 -1.5850  1.6661 -1.8301
   28MOL   H25729471   0.561   0.901   2.113  0.3619 -0.9735  2.0480
   28MOL   H25829472   0.403   0.846   2.075  0.4418  0.9424 -0.2188
   28MOL   H25929473   0.481   0.559   2.120 -0.0636 -0.8990 -0.3894
   28MOL   H26029474   0.443   0.524   2.299 -0.2265 -1.1391 -1.0468
   28MOL   H26129475   0.336   0.605   2.197  0.8950 -1.3937 -1.5611
   28MOL   H26229476   0.423   0.996   2.265 -1.5338  1.7400  0.8906
   28MOL   H26329477   0.287   1.122   2.422  0.4371  0.4835  1.2594
   28MOL   H26429478   0.233   0.756   2.649 -1.4703 -2.9727 -2.2456
   28MOL   H26529479   0.390   0.630   2.495 -3.0993 -0.5036 -0.0006
   28MOL   H26629480   0.631   0.795   2.485 -0.4153  0.9432 -0.1594
   28MOL   H26729481   0.882   0.782   2.530 -1.6228  0.1478  0.7010
   28MOL   H26829482   1.122   0.941   2.324 -1.5598 -1.7504 -0.0371
   28MOL   H26929483   1.212   1.096   2.507  1.9245 -0.1710 -1.9560
   28MOL   H27029484   1.295   1.274   2.579  0.4554  2.1791 -0.3283
   28MOL   H27129485   1.204   1.500   2.595  0.9281  1.4278  0.8076
   28MOL   C27229486   0.078   1.045   2.649 -0.5535  0.3028 -0.3354
   28MOL   C27329487   0.042   1.167   2.584 -0.5114  0.8242 -0.9436
   28MOL   C27429488   8.154   1.200   2.578  0.4133  0.2344 -0.5063
   28MOL   C27529489   8.058   1.118   2.640  0.1996  0.1061  0.4994
   28MOL   S27629490   7.888   1.170   2.634 -0.0565 -0.4898 -0.3571
   28MOL   O27729491   7.880   1.299   2.559 -0.0365  0.1657  0.2399
   28MOL   O27829492   7.834   1.175   2.770 -0.0053  0.1182  0.1285
   28MOL   C27929493   7.790   1.059   2.533 -0.0685 -1.1252  0.0121
   28MOL   C28029494   7.646   1.064   2.541 -0.1544  0.5857  0.9766
   28MOL   C28129495   7.567   0.973   2.469  0.2724 -0.6062  0.5126
   28MOL   C28229496   7.624   0.877   2.389 -0.0135  0.3950  0.2068
   28MOL   O28329497   7.548   0.784   2.320  0.4221  0.0061  0.3273
   28MOL   C28429498   7.588   0.722   2.202 -0.1880  0.1562  0.1781
   28MOL   C28529499   7.563   0.589   2.195  0.0960  0.5828 -0.1667
   28MOL   C28629500   7.598   0.512   2.083  0.1176 -0.0439 -0.1092
   28MOL   C28729501   7.676   0.574   1.981  0.0126  0.7379  0.1312
   28MOL   C28829502   7.733   0.499   1.858 -0.3734 -0.3471 -0.3865
   28MOL   C28929503   7.609   0.485   1.765 -0.3024 -0.3912 -1.2747
   28MOL   C29029504   7.838   0.575   1.786 -0.5071 -0.2034 -0.7044
   28MOL   C29129505   7.792   0.361   1.905 -0.2469 -0.2116  0.3472
   28MOL   C29229506   7.857   0.347   2.031  0.1776  0.5816 -0.0755
   28MOL   C29329507   7.936   0.238   2.055  0.0708  0.0311 -0.0962
   28MOL   C29429508   7.961   0.141   1.956 -0.1847  0.1951  0.8962
   28MOL   O29529509   8.055   0.040   1.980 -0.0559  0.2595  0.0470
   28MOL   C29629510   7.903   0.153   1.827  0.5878  0.1845  0.0559
   28MOL   C29729511   7.808   0.257   1.806  0.2958  0.0359  0.2360
   28MOL   C29829512   7.706   0.715   1.991  0.1737 -0.1614 -0.5560
   28MOL   C29929513   7.658   0.789   2.103 -0.1322 -0.0345  0.4352
   28MOL   C30029514   7.771   0.872   2.387  0.5206 -0.5307  0.1736
   28MOL   C30129515   7.849   0.969   2.452 -0.3145  0.2106 -0.3102
   28MOL   C30229516   8.100   1.008   2.714 -0.4376  0.4053 -0.3851
   28MOL   C30329517   8.233   0.968   2.717 -0.3236 -0.3377 -0.2309
   28MOL   H30429518   0.118   1.226   2.535  0.2850  1.6052  1.1769
   28MOL   H30529519   8.120   1.282   2.516  0.5431 -1.4801 -2.8869
   28MOL   H30629520   7.598   1.139   2.603 -1.2757 -0.5165  1.4604
   28MOL   H30729521   7.461   0.962   2.483  0.0370  1.7319  0.8182
   28MOL   H30829522   7.515   0.533   2.274  0.9420  1.5972  1.0782
   28MOL   H30929523   7.575   0.407   2.086  1.0964 -0.2621 -0.1440
   28MOL   H31029524   7.536   0.425   1.820 -1.7876  2.5986  0.1194
   28MOL   H31129525   7.635   0.428   1.676 -1.1413 -1.5257 -0.8101
   28MOL   H31229526   7.564   0.580   1.738  1.2416  0.7643  0.0706
   28MOL   H31329527   7.878   0.522   1.700 -2.0782  0.0943 -1.6322
   28MOL   H31429528   7.808   0.672   1.747  1.5084 -0.1489 -2.2353
   28MOL   H31529529   7.926   0.598   1.846 -0.5911 -2.1219  0.1707
   28MOL   H31629530   7.849   0.426   2.105  0.3104  0.6590 -0.1433
   28MOL   H31729531   7.984   0.224   2.151 -0.7550  0.9261  0.4465
   28MOL   H31829532   7.910   0.076   1.752 -3.1542 -2.6477  2.4016
   28MOL   H31929533   7.761   0.254   1.709  1.3085 -1.0724 -0.2302
   28MOL   H32029534   7.774   0.766   1.925  0.2003 -0.8709 -1.0852
   28MOL   H32129535   7.675   0.895   2.113  0.5706 -0.1819  0.7905
   28MOL   H32229536   7.826   0.792   2.341 -0.7563 -0.7374 -1.0414
   28MOL   H32329537   7.955   0.952   2.455 -0.3077  0.3613  0.3584
   28MOL   H32429538   8.030   0.949   2.772  2.4195 -1.2445  1.5683
   28MOL   H32529539   0.005   0.892   2.788 -2.8320 -0.8164  0.1833
   28MOL   C32629540   8.143   0.007   1.881 -0.1615  0.3614 -0.2867
   28MOL   C32729541   8.108   8.165   1.788 -0.4746 -0.1114  0.5648
   28MOL   C32829542   8.187   8.138   1.674  0.1781  0.3942 -0.5686
   28MOL   C32929543   0.056   8.212   1.666  0.3280 -0.3201 -0.2695
   28MOL   S33029544   0.165   8.158   1.534  0.4046  0.7568  0.3074
   28MOL   O33129545   0.243   0.017   1.483  0.0804  0.2346  0.6179
   28MOL   O33229546   0.079   8.079   1.439 -0.0046  0.6333  0.1407
   28MOL   C33329547   0.283   8.050   1.607 -0.0081  0.0139  0.0129
   28MOL   C33429548   0.259   7.913   1.625 -0.3367  0.3047 -0.1171
   28MOL   C33529549   0.361   7.832   1.672 -0.6270  0.3357  0.3355
   28MOL   C33629550   0.486   7.887   1.717 -0.9248 -0.5519 -0.5250
   28MOL   O33729551   0.587   7.814   1.771 -0.2437  0.0750  0.5434
   28MOL   C33829552   0.560   7.754   1.891  0.7536 -0.0684 -0.1356
   28MOL   C33929553   0.590   7.827   2.005  0.3039 -0.1049 -0.6040
   28MOL   C34029554   0.584   7.766   2.129  0.3077 -0.0587 -0.4719
   28MOL   C34129555   0.539   7.629   2.143  0.8469  0.3704 -0.5421
   28MOL   C34229556   0.513   7.567   2.280 -0.2407 -0.0943  0.3122
   28MOL   C34329557   0.568   7.424   2.277  0.1410  0.4759  0.2531
   28MOL   C34429558   0.593   7.644   2.389  0.3576  0.6417 -0.2913
   28MOL   C34529559   0.364   7.580   2.329 -0.4160  0.6607 -0.3944
   28MOL   C34629560   0.319   7.514   2.438  0.7904  0.2529 -0.5522
   28MOL   C34729561   0.185   7.518   2.480  0.2952  0.8115  0.4892
   28MOL   C34829562   0.092   7.606   2.417 -0.6693 -0.2108  0.4876
   28MOL   O34929563   8.222   7.625   2.465  0.3159 -0.5005 -0.6175
   28MOL   C35029564   0.140   7.679   2.308  0.2452 -0.8392 -0.1588
   28MOL   C35129565   0.270   7.657   2.255  0.1996 -0.3022 -0.2884
   28MOL   C35229566   0.504   7.558   2.024 -0.2026 -0.3092  0.2076
   28MOL   C35329567   0.512   7.619   1.901  0.7257  0.1111  0.0670
   28MOL   C35429568   0.508   8.025   1.695  0.2316 -0.1159 -0.1782
   28MOL   C35529569   0.404   8.104   1.646  0.5116 -0.2157 -0.0755
   28MOL   C35629570   0.095   0.049   1.764 -0.3753  0.1157  0.5069
   28MOL   C35729571   0.012   0.079   1.870  0.1030  0.1751 -0.1907
   28MOL   H35829572   8.018   8.106   1.801 -0.9698 -0.3703 -3.2336
   28MOL   H35929573   8.157   8.065   1.600  0.9735 -0.0275 -0.4806
   28MOL   H36029574   0.165   7.872   1.591  0.5091  0.3991 -2.7164
   28MOL   H36129575   0.338   7.726   1.670  1.3889 -0.1115  0.4107
   28MOL   H36229576   0.633   7.926   1.993 -1.1493  0.6672  0.3688
   28MOL   H36329577   0.614   7.837   2.205  1.3656  0.3242 -1.2528
   28MOL   H36429578   0.515   7.355   2.213 -1.1230  1.3875  0.3035
   28MOL   H36529579   0.573   7.367   2.370 -0.2290  0.1929  0.1000
   28MOL   H36629580   0.670   7.427   2.238  0.2130 -1.0455  0.3192
   28MOL   H36729581   0.695   7.666   2.355  0.7152  0.3676  0.5828
   28MOL   H36829582   0.537   7.736   2.397  1.1632  1.0478  0.7934
   28MOL   H36929583   0.588   7.605   2.491  0.4024  0.9767 -0.1609
   28MOL   H37029584   0.383   7.447   2.494  0.4364 -0.1806 -0.6542
   28MOL   H37129585   0.155   7.453   2.561  1.3994  0.8538  0.9314
   28MOL   H37229586   0.080   7.750   2.252  1.3491  0.3925  0.2105
   28MOL   H37329587   0.299   7.714   2.168 -2.0691 -1.1529 -1.6400
   28MOL   H37429588   0.485   7.452   2.024  2.6175 -0.8504 -1.4922
   28MOL   H37529589   0.513   7.559   1.812  1.0444 -0.5569  0.5155
   28MOL   H37629590   0.605   8.067   1.719  0.7793 -0.9110 -0.9528
   28MOL   H37729591   0.423   8.207   1.623 -1.8803  0.5964  1.3736
   28MOL   H37829592   0.187   0.105   1.758 -0.4410  0.0472 -1.6091
   28MOL   H37929593   0.031   0.154   1.945 -0.1216 -0.2939  0.3400
   28MOL   C38029594   8.125   7.535   2.424 -0.3584  0.3986  0.6323
   28MOL   C38129595   8.099   7.518   2.294 -0.0384 -0.4747 -0.0038
   28MOL   C38229596   7.996   7.437   2.253  0.3863  0.1535 -0.2901
   28MOL   C38329597   7.900   7.382   2.342  0.9577  0.6039  0.5544
   28MOL   S38429598   7.754   7.300   2.285 -0.6431 -0.2098 -0.4941
   28MOL   O38529599   7.698   7.208   2.390  0.0314  0.5075 -0.5060
   28MOL   O38629600   7.779   7.240   2.158  0.2681 -0.5211 -0.7980
   28MOL   C38729601   7.637   7.436   2.261  0.1362  0.5439 -0.1437
   28MOL   C38829602   7.638   7.548   2.355 -0.3002 -0.7013 -1.2118
   28MOL   C38929603   7.549   7.655   2.334 -0.5316 -0.3513 -0.2690
   28MOL   C39029604   7.464   7.647   2.224  0.0444  0.5464  0.3032
   28MOL   O39129605   7.383   7.753   2.199 -0.3999  0.0755  0.1573
   28MOL   C39229606   7.268   7.758   2.280 -0.4696 -0.7973  0.4496
   28MOL   C39329607   7.226   7.653   2.361 -0.3889  0.6186  0.9523
   28MOL   C39429608   7.102   7.662   2.428 -0.4733  0.3990  0.2307
   28MOL   C39529609   7.015   7.780   2.421 -0.0336  0.4485  0.6966
   28MOL   C39629610   6.889   7.790   2.503  0.1996  0.4198  1.1226
   28MOL   C39729611   6.781   7.851   2.416  0.0085 -0.2131 -0.1685
   28MOL   C39829612   6.833   7.656   2.539 -0.4957 -0.3468 -0.2609
   28MOL   C39929613   6.910   7.869   2.635  0.4257 -0.3816 -0.1161
   28MOL   C40029614   7.022   7.848   2.719  0.1191 -0.2758 -0.4750
   28MOL   C40129615   7.055   7.930   2.830 -0.2538 -0.5706 -0.7947
   28MOL   C40229616   6.967   8.036   2.873 -0.5624  0.7064  0.9829
   28MOL   O40329617   6.997   8.105   2.988  0.0465 -0.1299  0.4416
   28MOL   C40429618   6.854   8.053   2.793 -0.7255 -0.2677 -0.7154
   28MOL   C40529619   6.827   7.975   2.679  0.8283  0.0671  0.1313
   28MOL   C40629620   7.059   7.885   2.343 -0.0545 -0.2857  0.2107
   28MOL   C40729621   7.189   7.879   2.279 -0.1083 -0.0699  0.1037
   28MOL   C40829622   7.452   7.535   2.140  0.4051 -0.8012 -0.4926
   28MOL   C40929623   7.544   7.429   2.155  0.8283  0.5615  0.4842
   28MOL   C41029624   7.935   7.385   2.484 -0.6936  0.5862 -0.0057
   28MOL   C41129625   8.047   7.466   2.520 -0.4226  0.0450 -0.7097
   28MOL   H41229626   8.161   7.559   2.216 -0.1184  1.1336  0.7564
   28MOL   H41329627   7.994   7.419   2.147 -0.3830  2.0512 -0.6235
   28MOL   H41429628   7.712   7.566   2.431 -0.5063 -0.6425 -1.0275
   28MOL   H41529629   7.539   7.736   2.406 -1.3255  0.9538 -1.8109
   28MOL   H41629630   7.286   7.565   2.374  1.3432  1.8264  1.2574
   28MOL   H41729631   7.069   7.586   2.498  0.4299 -1.3151 -1.1605
   28MOL   H41829632   6.683   7.833   2.462 -0.9001  0.5449 -1.7739
   28MOL   H41929633   6.780   7.814   2.313 -0.1083 -1.0626  0.1283
   28MOL   H42029634   6.795   7.959   2.412  1.7351 -0.4356 -0.2579
   28MOL   H42129635   6.745   7.660   2.603  0.9163 -1.3288  1.8101
   28MOL   H42229636   6.800   7.594   2.456  0.4467 -3.1809  1.4090
   28MOL   H42329637   6.903   7.604   2.604  0.1300 -0.1946 -0.8017
   28MOL   H42429638   7.104   7.788   2.684  1.0453 -0.5157  2.0195
   28MOL   H42529639   7.151   7.916   2.877 -0.8163  0.0559  0.5659
   28MOL   H42629640   6.792   8.137   2.823  0.2494  0.0484  0.4546
   28MOL   H42729641   6.738   7.998   2.623  1.0576 -1.4751 -0.9211
   28MOL   H42829642   6.993   7.969   2.332 -1.1897 -1.3714 -1.4443
   28MOL   H42929643   7.222   7.965   2.222  0.5034 -0.1530  0.3275
   28MOL   H43029644   7.391   7.544   2.051 -1.6696  0.6173  1.0143
   28MOL   H43129645   7.524   7.336   2.102 -0.4076 -0.0628  2.0161
   28MOL   H43229646   7.884   7.332   2.563 -1.8651 -1.5618 -2.1434
   28MOL   H43329647   8.072   7.495   2.621  2.8273 -0.6964 -1.2236
   28MOL   C43429648   6.908   8.201   3.026 -0.6485 -0.4471  0.6983
   28MOL   C43529649   6.800   8.174   3.108 -0.7830  0.8117  0.0348
   28MOL   C43629650   6.709   0.017   3.145 -0.3445 -0.1970  0.0688
   28MOL   C43729651   6.730   0.149   3.097 -0.5057  0.5088  0.7788
   28MOL   S43829652   6.603   0.269   3.110 -0.3324 -0.0594  0.3618
   28MOL   O43929653   6.651   0.392   3.048 -0.6033 -0.1218 -0.4936
   28MOL   O44029654   6.568   0.283   3.254 -0.6193  0.1089 -0.3870
   28MOL   C44129655   6.467   0.206   3.015  0.3143 -0.1680  0.5985
   28MOL   C44229656   6.483   0.162   2.882  0.1893 -0.3404 -0.0135
   28MOL   C44329657   6.381   0.114   2.802  0.0049 -0.3234 -0.1053
   28MOL   C44429658   6.250   0.116   2.866  0.6554 -0.2021  0.1942
   28MOL   O44529659   6.138   0.075   2.795 -0.5850 -0.5150 -0.0273
   28MOL   C44629660   6.072   0.166   2.717  0.0980  0.3013  0.2502
   28MOL   C44729661   5.967   0.118   2.637  0.1828  0.2400  0.9032
   28MOL   C44829662   5.897   0.199   2.550 -0.6967  0.4414  0.3092
   28MOL   C44929663   5.923   0.338   2.541  0.6900  0.4387 -0.7017
   28MOL   C45029664   5.828   0.429   2.454  0.6174  0.0920  0.0571
   28MOL   C45129665   5.706   0.357   2.397 -0.0585  0.0110  0.0925
   28MOL   C45229666   5.772   0.521   2.564  0.0349  0.1078 -0.2852
   28MOL   C45329667   5.908   0.509   2.348  0.3990  0.7812  0.1949
   28MOL   C45429668   5.896   0.645   2.335 -0.5256 -0.2912 -0.6431
   28MOL   C45529669   5.960   0.714   2.229  0.5981  0.1533  0.2213
   28MOL   C45629670   6.034   0.638   2.138  0.1945 -0.4527 -0.2620
   28MOL   O45729671   6.096   0.688   2.028  0.0830 -0.1749 -0.5808
   28MOL   C45829672   6.047   0.498   2.151  0.3870 -0.3058  0.3792
   28MOL   C45929673   5.992   0.437   2.259 -0.4768  0.1075  0.4863
   28MOL   C46029674   6.031   0.384   2.617 -0.7300  0.5164  0.8745
   28MOL   C46129675   6.113   0.303   2.699  0.3236 -0.1923 -0.4703
   28MOL   C46229676   6.227   0.166   2.996 -0.2972  0.0384  0.3417
   28MOL   C46329677   6.342   0.205   3.077  0.4382  0.2060 -0.5140
   28MOL   C46429678   6.838   0.181   3.016 -0.1051  0.4839 -0.7792
   28MOL   C46529679   6.923   0.081   2.980 -0.8794 -0.5870 -0.0251
   28MOL   H46629680   6.780   8.075   3.148 -0.3285  0.2046 -1.2335
   28MOL   H46729681   6.630   8.236   3.211 -1.0567 -2.6869 -2.0104
   28MOL   H46829682   6.582   0.160   2.839 -0.5413  1.1420 -1.8537
   28MOL   H46929683   6.399   0.090   2.699 -0.7325  0.1242 -0.3415
   28MOL   H47029684   5.948   0.011   2.639  1.1302  0.0339 -0.3540
   28MOL   H47129685   5.815   0.151   2.499 -0.3553  0.7808 -0.5678
   28MOL   H47229686   5.630   0.422   2.355  0.2628  1.0580  1.1207
   28MOL   H47329687   5.651   0.282   2.454 -0.2344 -0.7100 -1.0029
   28MOL   H47429688   5.736   0.301   2.308 -3.3100 -1.0804 -0.3753
   28MOL   H47529689   5.837   0.592   2.616 -2.4255  1.0985  1.5796
   28MOL   H47629690   5.694   0.588   2.527  0.5038  1.2215  0.6907
   28MOL   H47729691   5.746   0.462   2.653 -1.4480 -0.9605 -1.4017
   28MOL   H47829692   5.832   0.706   2.398  1.9068  1.2370  0.4294
   28MOL   H47929693   5.939   0.817   2.203 -2.4532 -0.2697  0.7980
   28MOL   H48029694   6.097   0.433   2.081 -0.2216  0.0579 -0.4013
   28MOL   H48129695   6.008   0.331   2.273 -0.7588 -0.1335 -0.9682
   28MOL   H48229696   6.049   0.490   2.613 -2.0203  0.6876 -1.7664
   28MOL   H48329697   6.200   0.335   2.754  1.0374 -3.3298  0.3360
   28MOL   H48429698   6.127   0.160   3.036 -0.9551 -2.4448 -1.5393
   28MOL   H48529699   6.335   0.242   3.178 -2.9007  0.4125 -0.7513
   28MOL   H48629700   6.853   0.280   2.976 -0.0196  0.1952 -1.4581
   28MOL   H48729701   7.003   0.104   2.911 -0.4118  0.1453  0.7437
   28MOL   C48829702   6.019   0.723   1.919  0.4551  0.1699  0.0292
   28MOL   C48929703   5.934   0.628   1.859 -0.0752 -0.0117  0.2577
   28MOL   C49029704   5.857   0.663   1.751  0.2433 -0.6944  0.5277
   28MOL   C49129705   5.859   0.798   1.703  0.0977  0.2223 -0.5798
   28MOL   S49229706   5.743   0.867   1.575 -0.1906 -0.3346 -0.4608
   28MOL   O49329707   5.821   0.906   1.460 -0.0664  0.0364 -0.0250
   28MOL   O49429708   5.653   0.968   1.631 -0.0945  0.0871 -0.2392
   28MOL   C49529709   5.638   0.727   1.538  0.2673  0.6219  0.2404
   28MOL   C49629710   5.543   0.687   1.632  0.0781 -0.0994  0.6427
   28MOL   C49729711   5.470   0.566   1.618  0.6894  0.2840  0.8045
   28MOL   C49829712   5.498   0.485   1.505  0.0631 -0.4428  0.4013
   28MOL   O49929713   5.443   0.359   1.498 -0.1456  0.1430  0.2478
   28MOL   C50029714   5.481   0.270   1.591  0.0394  0.0368 -0.2812
   28MOL   C50129715   5.382   0.172   1.617 -0.3851  0.5132  0.2349
   28MOL   C50229716   5.404   0.082   1.721 -0.8313 -0.1233  0.4259
   28MOL   C50329717   5.531   0.080   1.783  0.2849 -0.1102  0.0453
   28MOL   C50429718   5.562   8.218   1.886  0.1613  0.2089  0.7613
   28MOL   C50529719   5.453   8.223   2.004  0.0973 -0.2432 -0.3777
   28MOL   C50629720   5.564   8.085   1.804  1.0254  0.7268  0.7988
   28MOL   C50729721   5.703   8.234   1.953  0.0519  0.5180 -0.3459
   28MOL   C50829722   5.820   8.176   1.897  0.4191 -0.1917  0.6195
   28MOL   C50929723   5.945   8.210   1.951 -0.2656 -0.0761 -0.5417
   28MOL   C51029724   5.963   0.056   2.046  0.4099 -0.5596  0.4939
   28MOL   O51129725   6.088   0.094   2.092 -0.0367 -0.1646  0.4174
   28MOL   C51229726   5.850   0.111   2.108 -0.1481  0.0608  1.1946
   28MOL   C51329727   5.719   0.072   2.063  0.5369 -0.1037 -0.5348
   28MOL   C51429728   5.630   0.168   1.746  0.6817  0.2801 -0.2594
   28MOL   C51529729   5.607   0.265   1.649  0.2873  0.4254  0.1961
   28MOL   C51629730   5.589   0.534   1.406 -0.5966 -0.0754  0.2259
   28MOL   C51729731   5.661   0.648   1.426 -0.0648  0.3832 -0.3614
   28MOL   C51829732   5.942   0.894   1.764  0.4084  0.1604 -0.5009
   28MOL   C51929733   6.021   0.857   1.871  0.2412  0.2608 -0.8939
   28MOL   H52029734   5.946   0.528   1.898 -1.8582 -0.1220  0.5749
   28MOL   H52129735   5.794   0.592   1.699 -1.4340  0.5936  0.7668
   28MOL   H52229736   5.533   0.745   1.722  2.2133 -0.6492  1.2519
   28MOL   H52329737   5.412   0.525   1.699  0.6539  1.0738  1.1920
   28MOL   H52429738   5.285   0.177   1.568 -1.2510 -1.1936  1.7000
   28MOL   H52529739   5.326   0.013   1.750  0.0684 -0.7172  1.4841
   28MOL   H52629740   5.426   0.067   2.044  4.2683  0.4315  1.0572
   28MOL   H52729741   5.481   8.160   2.088  0.2473  0.0239 -0.2272
   28MOL   H52829742   5.361   8.178   1.965 -0.3934 -2.0214  2.6789
   28MOL   H52929743   5.631   8.097   1.718 -3.0663 -0.3871 -2.7064
   28MOL   H53029744   5.596   8.000   1.863 -0.9810  0.0176  0.8908
   28MOL   H53129745   5.473   8.043   1.762  0.0994  2.4475  1.0441
   28MOL   H53229746   5.828   8.099   1.822  0.5904  0.7358 -0.3288
   28MOL   H53329747   6.037   8.175   1.907 -0.1782  0.5947 -0.8846
   28MOL   H53429748   5.857   0.181   2.190 -1.2425  1.8434 -0.2113
   28MOL   H53529749   5.642   0.132   2.110  1.3114 -1.1141  2.1317
   28MOL   H53629750   5.731   0.162   1.784  1.0345  1.2582 -1.0312
   28MOL   H53729751   5.684   0.335   1.621  1.5075  0.1365  2.6607
   28MOL   H53829752   5.613   0.464   1.328 -1.0772  0.5766 -0.5028
   28MOL   H53929753   5.739   0.668   1.353 -0.4177  0.7376 -0.6495
   28MOL   H54029754   5.945   0.991   1.716 -1.3080 -0.1405 -1.2408
   28MOL   H54129755   6.088   0.932   1.909  0.5430 -0.4114 -0.0870
   28MOL   C54229756   6.158   0.025   2.188  0.2322  0.3200 -0.0160
   28MOL   C54329757   6.128   0.042   2.322  0.6078 -0.6821  0.2221
   28MOL   C54429758   6.186   8.219   2.421 -0.6899 -0.1476  0.8110
   28MOL   C54529759   6.270   8.112   2.382  0.3364 -0.6078 -0.2157
   28MOL   S54629760   6.360   8.012   2.507 -0.1536  0.3049 -0.3672
   28MOL   O54729761   6.323   8.057   2.642 -0.3670  0.1860 -0.0964
   28MOL   O54829762   6.505   8.025   2.470  0.2332 -0.2735 -0.0792
   28MOL   C54929763   6.326   7.840   2.491  0.4090  0.2024  0.1477
   28MOL   C55029764   6.397   7.766   2.395 -0.5547 -0.2497 -0.3258
   28MOL   C55129765   6.376   7.629   2.381 -0.4037 -0.1216 -0.0123
   28MOL   C55229766   6.282   7.567   2.460 -0.4052 -0.4327  0.1850
   28MOL   O55329767   6.250   7.432   2.443 -0.9347 -0.3507  0.5620
   28MOL   C55429768   6.263   7.347   2.549 -0.2231  0.6574  0.0138
   28MOL   C55529769   6.366   7.362   2.638 -0.3789  0.2193  0.1788
   28MOL   C55629770   6.366   7.275   2.750 -0.1072 -0.1232  0.0635
   28MOL   C55729771   6.281   7.164   2.761 -0.4704 -0.0509  0.0931
   28MOL   C55829772   6.291   7.070   2.883  0.1117  0.0075 -0.1813
   28MOL   C55929773   6.329   6.933   2.830  0.5880 -0.1690  0.2851
   28MOL   C56029774   6.403   7.118   2.979 -0.3158 -0.0991 -0.2813
   28MOL   C56129775   6.158   7.079   2.957 -0.6019  0.1871 -0.5075
   28MOL   C56229776   6.092   7.202   2.971 -0.1658  0.3757 -0.6521
   28MOL   C56329777   5.965   7.223   3.029 -0.1998 -0.1816  0.1826
   28MOL   C56429778   5.897   7.106   3.084 -0.0807 -0.2272  0.1273
   28MOL   O56529779   5.774   7.111   3.138 -0.0169  0.0021 -0.3755
   28MOL   C56629780   5.961   6.980   3.079 -0.2305 -0.2250 -0.3708
   28MOL   C56729781   6.088   6.964   3.011 -0.4911 -0.4056 -0.1482
   28MOL   C56829782   6.183   7.146   2.664 -0.5340 -0.5173  0.3516
   28MOL   C56929783   6.170   7.240   2.559 -0.5475  0.0346 -0.4860
   28MOL   C57029784   6.207   7.647   2.553  0.2392  0.4979  1.0332
   28MOL   C57129785   6.236   7.782   2.578 -0.1490  0.1679 -1.1578
   28MOL   C57229786   6.298   8.087   2.246 -0.4117 -0.6015 -0.0004
   28MOL   C57329787   6.253   8.179   2.149  0.0468 -0.1976 -0.3061
   28MOL   H57429788   6.058   0.120   2.348  0.0285 -0.9255 -0.5958
   28MOL   H57529789   6.158   8.228   2.525 -2.6065 -1.0645  0.3908
   28MOL   H57629790   6.470   7.812   2.330 -0.3657  0.4050  0.3444
   28MOL   H57729791   6.435   7.558   2.325 -1.7542 -0.7340 -0.7073
   28MOL   H57829792   6.426   7.451   2.635  0.1110 -0.1269 -0.4151
   28MOL   H57929793   6.442   7.298   2.823 -0.7492 -1.0009  1.0163
   28MOL   H58029794   6.342   6.866   2.915 -0.7762  0.6545  1.1451
   28MOL   H58129795   6.425   6.949   2.781 -1.0132  1.0086 -2.5966
   28MOL   H58229796   6.263   6.898   2.750 -0.4141  0.3830  0.8761
   28MOL   H58329797   6.398   7.223   3.009  0.6566 -0.2059  0.2567
   28MOL   H58429798   6.403   7.072   3.078 -0.6440  0.0593 -0.2074
   28MOL   H58529799   6.507   7.110   2.948 -0.3434  2.2573 -1.0597
   28MOL   H58629800   6.132   7.291   2.927  0.2687  0.2344 -0.5426
   28MOL   H58729801   5.934   7.326   3.032 -0.4271 -0.2207 -0.6051
   28MOL   H58829802   5.922   6.893   3.129 -1.8212  0.6286 -0.0938
   28MOL   H58929803   6.126   6.863   3.010  1.9381  0.4641  0.8046
   28MOL   H59029804   6.117   7.062   2.653  0.4857 -1.0482 -1.9928
   28MOL   H59129805   6.097   7.221   2.482 -0.4032 -0.4052 -0.5191
   28MOL   H59229806   6.130   7.595   2.607  1.9931 -1.2445  1.9454
   28MOL   H59329807   6.185   7.845   2.649  0.3803  0.2437 -0.8416
   28MOL   H59429808   6.372   8.015   2.217  0.0426 -0.3695  0.5691
   28MOL   H59529809   6.288   8.180   2.047  2.6589  0.9235  0.5657
   28MOL   C59629810   5.727   7.223   3.199 -0.5297 -0.6468  0.0871
   28MOL   C59729811   5.594   7.261   3.173  0.1328  0.4142 -0.1800
   28MOL   C59829812   5.530   7.357   3.255 -0.0688 -0.5166 -0.1601
   28MOL   C59929813   5.601   7.426   3.353  0.5025  0.1000  0.0955
   28MOL   S60029814   5.515   7.548   3.451  0.4292 -0.1069 -0.1064
   28MOL   O60129815   5.610   7.618   3.546  0.0454 -0.0335  0.3758
   28MOL   O60229816   5.392   7.479   3.499 -0.3552  0.2365 -0.4897
   28MOL   C60329817   5.447   7.666   3.332  0.0054 -0.9508 -0.2962
   28MOL   C60429818   5.508   7.792   3.311 -0.4241  0.0826  0.1212
   28MOL   C60529819   5.452   7.879   3.209 -0.2588 -0.7578  0.5884
   28MOL   C60629820   5.334   7.836   3.141 -0.2409  0.0991 -0.1465
   28MOL   O60729821   5.269   7.922   3.060 -0.9845  0.2900 -0.1817
   28MOL   C60829822   5.329   7.962   2.942  0.0380 -0.7582  0.6169
   28MOL   C60929823   5.452   7.906   2.893 -0.4980  0.3701 -0.7042
   28MOL   C61029824   5.503   7.942   2.768  0.7112 -0.1142 -0.8181
   28MOL   C61129825   5.435   8.035   2.683 -0.5075  1.1010 -0.4222
   28MOL   C61229826   5.476   8.067   2.540  1.3652  0.0050 -0.8889
   28MOL   C61329827   5.366   8.016   2.447  0.8267  0.4116  0.3338
   28MOL   C61429828   5.482   8.222   2.516  0.4056  0.0702 -0.0734
   28MOL   C61529829   5.619   8.015   2.499 -0.0636  0.5950 -0.4220
   28MOL   C61629830   5.633   7.937   2.389 -0.1270  0.3341 -0.1314
   28MOL   C61729831   5.760   7.892   2.351  0.1998  0.4163  0.1377
   28MOL   C61829832   5.872   7.925   2.429  0.3522 -0.0906  0.2971
   28MOL   O61929833   5.997   7.870   2.399  0.3085  0.0009  0.1915
   28MOL   C62029834   5.860   8.020   2.532  0.3581  0.2881  1.2511
   28MOL   C62129835   5.733   8.068   2.568 -0.3276  0.9993  0.3347
   28MOL   C62229836   5.318   8.094   2.733  0.8253  0.1516  0.3011
   28MOL   C62329837   5.266   8.058   2.860  0.5081 -0.0432  0.0867
   28MOL   C62429838   5.275   7.712   3.170  0.2341  0.2832 -0.1458
   28MOL   C62529839   5.334   7.627   3.256 -0.4579 -0.5042  0.6738
   28MOL   C62629840   5.738   7.407   3.365 -0.2256  0.4193  0.0286
   28MOL   C62729841   5.799   7.300   3.294 -0.2107 -0.1188  0.5243
   28MOL   H62829842   5.537   7.205   3.100 -0.9099  2.8679 -1.3117
   28MOL   H62929843   5.429   7.371   3.220 -0.4399 -3.7557 -0.5959
   28MOL   H63029844   5.589   7.818   3.378 -1.6750  1.6030  1.0873
   28MOL   H63129845   5.489   7.978   3.188 -0.3491 -1.0971 -1.1848
   28MOL   H63229846   5.493   7.816   2.937  1.7361  1.1246 -1.2180
   28MOL   H63329847   5.593   7.897   2.728  0.5110 -1.3190  0.0703
   28MOL   H63429848   5.345   7.909   2.457 -0.0163  0.2599 -2.5740
   28MOL   H63529849   5.396   8.036   2.344 -1.2312 -0.9536 -0.5810
   28MOL   H63629850   5.267   8.060   2.461  0.6716  0.5158 -1.0502
   28MOL   H63729851   5.387   0.016   2.541  0.3879 -0.5260  0.9798
   28MOL   H63829852   5.556   0.002   2.588 -0.9334  0.1679  1.2756
   28MOL   H63929853   5.512   0.004   2.417  2.6461 -0.2801  0.4682
   28MOL   H64029854   5.545   7.897   2.341 -0.4306  1.4225 -0.4755
   28MOL   H64129855   5.760   7.826   2.266 -1.5332  0.1955  0.2884
   28MOL   H64229856   5.949   8.043   2.588  3.4358 -0.8538 -2.9036
   28MOL   H64329857   5.716   8.145   2.642 -0.6868  2.4960 -1.2781
   28MOL   H64429858   5.260   8.168   2.680  0.9066 -0.9389 -1.3480
   28MOL   H64529859   5.177   8.110   2.893 -0.0004 -0.6962 -0.2354
   28MOL   H64629860   5.187   7.679   3.116  0.1596 -0.6839  0.5415
   28MOL   H64729861   5.286   7.532   3.276  0.9995 -1.3492  0.2365
   28MOL   H64829862   5.802   7.469   3.428  2.1070 -1.6226 -0.2554
   28MOL   H64929863   5.903   7.281   3.315  1.0032  1.3422 -3.7824
   28MOL   C65029864   5.996   7.742   2.342 -0.3526 -0.3627 -0.6131
   28MOL   C65129865   5.918   7.636   2.388 -0.3722  0.1857  0.7201
   28MOL   C65229866   5.931   7.506   2.347 -1.0438  0.5258 -0.7944
   28MOL   C65329867   6.019   7.482   2.239 -0.3814 -1.2170  0.4599
   28MOL   S65429868   6.022   7.322   2.151  0.2514 -0.0429  0.2908
   28MOL   O65529869   5.999   7.228   2.267 -0.2452 -0.3160 -0.3137
   28MOL   O65629870   6.142   7.310   2.066 -0.1082  0.5715  0.1060
   28MOL   C65729871   5.879   7.313   2.049 -0.9501  0.1015 -0.0128
   28MOL   C65829872   5.755   7.274   2.106  0.0653 -0.1631 -0.4569
   28MOL   C65929873   5.652   7.250   2.012 -0.4600  0.1537 -0.3855
   28MOL   C66029874   5.668   7.274   1.875  0.3254 -0.4916  0.3029
   28MOL   O66129875   5.562   7.252   1.794  0.0729  0.5000  0.2303
   28MOL   C66229876   5.564   7.294   1.666 -0.5668 -0.3140  0.2531
   28MOL   C66329877   5.615   7.207   1.564  0.4407  0.5251 -0.1510
   28MOL   C66429878   5.630   7.258   1.440 -0.1030  0.2999 -0.2320
   28MOL   C66529879   5.592   7.391   1.409  0.3184  0.4916  0.0171
   28MOL   C66629880   5.620   7.446   1.268  0.7578 -0.4777 -0.3551
   28MOL   C66729881   5.582   7.347   1.154 -0.5725 -0.2949 -0.3681
   28MOL   C66829882   5.544   7.571   1.231  0.9725  0.3760  1.0446
   28MOL   C66929883   5.773   7.481   1.265 -0.4190 -0.3550 -0.1075
   28MOL   C67029884   5.819   7.587   1.338 -0.0483 -0.2488  0.5440
   28MOL   C67129885   5.957   7.625   1.342  0.2107  0.2759  1.2256
   28MOL   C67229886   6.048   7.541   1.266 -0.1940 -0.5889  0.3385
   28MOL   O67329887   6.184   7.549   1.286 -0.2503 -0.1842 -0.1390
   28MOL   C67429888   5.999   7.438   1.185 -0.3202 -0.7366  0.1722
   28MOL   C67529889   5.865   7.411   1.185  0.7212  0.2360 -0.5119
   28MOL   C67629890   5.547   7.477   1.510  0.3149  0.2498  0.0336
   28MOL   C67729891   5.526   7.426   1.639 -0.5850  0.1630  0.6529
   28MOL   C67829892   5.783   7.335   1.824 -0.4254  0.5474  0.6130
   28MOL   C67929893   5.890   7.341   1.911 -0.0976 -0.5593  0.1741
   28MOL   C68029894   6.084   7.593   2.177  0.0187  0.5615 -1.0831
   28MOL   C68129895   6.084   7.721   2.238 -0.4305 -0.2486 -0.0450
   28MOL   H68229896   5.857   7.656   2.475  0.5744 -2.0546  1.9306
   28MOL   H68329897   5.872   7.429   2.394 -0.6872  0.5876 -0.2385
   28MOL   H68429898   5.755   7.240   2.208 -0.3792  2.2108  0.3724
   28MOL   H68529899   5.557   7.211   2.045 -0.2294  0.8260  1.0949
   28MOL   H68629900   5.648   7.110   1.597  2.2300  0.7299 -1.2625
   28MOL   H68729901   5.676   7.203   1.360 -2.5425  0.2473 -1.6611
   28MOL   H68829902   5.615   7.390   1.059 -0.5403  1.2691  0.3506
   28MOL   H68929903   5.474   7.333   1.150 -0.8160  1.6047 -1.1567
   28MOL   H69029904   5.625   7.246   1.150 -1.2507 -0.5397 -1.6066
   28MOL   H69129905   5.564   7.657   1.296  0.0678  1.0138  0.4799
   28MOL   H69229906   5.567   7.610   1.132 -2.3696  1.0052  0.4451
   28MOL   H69329907   5.436   7.557   1.236  0.8820  0.0591 -1.2293
   28MOL   H69429908   5.743   7.646   1.389 -0.7132 -2.1750  1.8121
   28MOL   H69529909   5.992   7.708   1.401 -1.2449  1.4102  0.5269
   28MOL   H69629910   6.066   7.375   1.128 -1.2397 -1.9206  0.3743
   28MOL   H69729911   5.835   7.326   1.125  0.2864 -0.9502  1.3242
   28MOL   H69829912   5.518   7.578   1.483 -0.0036  0.1655  0.0557
   28MOL   H69929913   5.490   7.485   1.722 -0.0453  1.2010  0.1616
   28MOL   H70029914   5.805   7.358   1.720  0.7941 -2.9331  0.0449
   28MOL   H70129915   5.986   7.382   1.884  0.1635  0.8232  3.0750
   28MOL   H70229916   6.155   7.571   2.098  1.3586 -0.3746  0.3553
   28MOL   H70329917   6.153   7.800   2.213 -1.6018  0.3117 -1.5976
   28MOL   C70429918   6.264   7.547   1.172 -0.3988  0.1737  0.1960
   28MOL   C70529919   6.225   7.625   1.059 -0.0675  0.0865 -0.5620
   28MOL   C70629920   6.299   7.615   0.939 -0.0438  0.1683  0.7064
   28MOL   C70729921   6.403   7.520   0.934 -0.2340 -0.0578 -0.2035
   28MOL   S70829922   6.484   7.476   0.782  0.1039 -0.3966  0.1027
   28MOL   O70929923   6.398   7.380   0.712  0.4399  0.1331  0.1218
   28MOL   O71029924   6.618   7.430   0.816 -0.5647 -0.5454 -0.6828
   28MOL   C71129925   6.502   7.630   0.691 -0.8184  0.1738 -0.1938
   28MOL   C71229926   6.520   7.762   0.744 -0.2471 -0.1000  0.3788
   28MOL   C71329927   6.535   7.878   0.666 -0.3880  0.6670  0.0181
   28MOL   C71429928   6.545   7.860   0.524 -0.9077 -0.2218  0.2622
   28MOL   O71529929   6.552   7.968   0.438  0.3376 -0.1628 -0.0743
   28MOL   C71629930   6.647   8.070   0.451 -0.4496  0.4092  0.1009
   28MOL   C71729931   6.768   8.047   0.516 -0.7189 -0.7231  0.2811
   28MOL   C71829932   6.862   8.149   0.534  0.4831 -0.0132 -0.2804
   28MOL   C71929933   6.835   0.027   0.489  0.0521  0.5914 -0.1653
   28MOL   C72029934   6.928   0.146   0.508 -1.0770 -0.3402 -0.5991
   28MOL   C72129935   7.070   0.096   0.547  0.0789 -0.3124  1.0390
   28MOL   C72229936   6.951   0.225   0.377  0.7968  0.2870  0.2420
   28MOL   C72329937   6.879   0.239   0.618  0.4795 -0.0547 -0.9264
   28MOL   C72429938   6.959   0.357   0.647  0.0521  0.9537 -0.9649
   28MOL   C72529939   6.943   0.439   0.755 -0.0769 -0.5567  1.4735
   28MOL   C72629940   6.829   0.422   0.838  0.0247  0.1881  0.2166
   28MOL   O72729941   6.803   0.502   0.944 -0.3638  0.4416  0.2944
   28MOL   C72829942   6.731   0.320   0.800  1.0467 -0.4291  0.1858
   28MOL   C72929943   6.756   0.226   0.694 -0.0181  0.1278 -0.4545
   28MOL   C73029944   6.713   0.052   0.414 -0.1653  0.5900 -0.0133
   28MOL   C73129945   6.624   8.194   0.394  0.1041  0.1938 -0.2550
   28MOL   C73229946   6.518   7.738   0.469  0.5029 -0.5331 -0.6956
   28MOL   C73329947   6.495   7.625   0.553 -0.4506  0.0069  0.2933
   28MOL   C73429948   6.452   7.458   1.050  0.4318  0.0440  0.1798
   28MOL   C73529949   6.388   7.485   1.175 -0.3213  1.0211 -0.4812
   28MOL   H73629950   6.138   7.690   1.068  0.0567  0.2107 -0.2218
   28MOL   H73729951   6.264   7.656   0.845  1.7926 -2.5747 -1.2795
   28MOL   H73829952   6.507   7.777   0.850  0.6984  0.5846  0.4055
   28MOL   H73929953   6.555   7.975   0.707  0.2304  0.5165  0.0888
   28MOL   H74029954   6.787   7.952   0.563 -1.6808 -1.0736 -0.0239
   28MOL   H74129955   6.957   8.111   0.569  1.6609 -0.5353 -3.8254
   28MOL   H74229956   7.067   0.030   0.634  0.3415 -1.2794  0.3205
   28MOL   H74329957   7.144   0.173   0.569  0.1409 -0.2744  0.6845
   28MOL   H74429958   7.109   0.045   0.459  1.3484  2.8770 -0.3108
   28MOL   H74529959   6.989   0.151   0.307 -0.3491  0.8228 -0.9616
   28MOL   H74629960   6.872   0.279   0.326  2.2326  1.6099 -0.6511
   28MOL   H74729961   7.027   0.303   0.381 -1.4697  2.5238  1.1398
   28MOL   H74829962   7.052   0.367   0.592  1.7250 -3.3912  0.8303
   28MOL   H74929963   7.014   0.513   0.789  0.4934 -0.5015  0.2102
   28MOL   H75029964   6.636   0.322   0.852  0.5972  0.9584 -0.6801
   28MOL   H75129965   6.685   0.149   0.666 -1.0349  1.1560 -0.7847
   28MOL   H75229966   6.685   0.153   0.388  2.9266  1.7246  0.7357
   28MOL   H75329967   6.529   8.211   0.346 -0.1303 -0.0285  0.1185
   28MOL   H75429968   6.510   7.732   0.361 -1.3653 -1.6952 -0.5157
   28MOL   H75529969   6.491   7.523   0.515  4.4915 -0.4293  0.5551
   28MOL   H75629970   6.538   7.393   1.044  1.0129  0.8310 -0.0185
   28MOL   H75729971   6.427   7.440   1.265  0.3869  2.6171  0.0252
   28MOL   C75829972   6.748   0.456   1.059  0.6660  0.2648 -0.1681
   28MOL   C75929973   6.610   0.476   1.078 -0.1621  0.0074  0.4741
   28MOL   C76029974   6.550   0.429   1.196  0.3197 -0.4014 -0.5390
   28MOL   C76129975   6.624   0.351   1.289 -0.1304 -0.5038 -0.4548
   28MOL   S76229976   6.538   0.294   1.442 -0.1435 -0.1689 -0.1607
   28MOL   O76329977   6.398   0.276   1.413  0.1695 -0.1575  0.1181
   28MOL   O76429978   6.581   0.383   1.553 -0.3838  0.8905  0.0516
   28MOL   C76529979   6.593   0.131   1.485 -0.8899 -0.1728  0.4414
   28MOL   C76629980   6.621   0.044   1.380 -0.0731  0.0376  0.5694
   28MOL   C76729981   6.673   8.167   1.406 -0.3053  0.4114 -0.0510
   28MOL   C76829982   6.687   8.125   1.538 -0.8068 -0.0083 -0.2355
   28MOL   O76929983   6.731   7.998   1.555 -0.4446 -0.5277 -0.4153
   28MOL   C77029984   6.659   7.909   1.623  0.2219 -0.2891 -0.0864
   28MOL   C77129985   6.661   7.902   1.767 -0.5234  0.0900 -0.7590
   28MOL   C77229986   6.581   7.806   1.837 -0.4048  0.6497 -0.1223
   28MOL   C77329987   6.503   7.715   1.768 -0.1765 -0.1397  0.4767
   28MOL   C77429988   6.410   7.609   1.834 -0.8037 -0.0575  0.5285
   28MOL   C77529989   6.459   7.470   1.787  0.0212 -0.6930 -0.2271
   28MOL   C77629990   6.425   7.606   1.990  0.5867  0.0343  0.8634
   28MOL   C77729991   6.261   7.635   1.792 -0.0748  0.1217  0.5614
   28MOL   C77829992   6.183   7.733   1.856 -0.0289  0.7040  0.4386
   28MOL   C77929993   6.047   7.767   1.824 -0.1435  0.1899 -0.0609
   28MOL   C78029994   5.983   7.680   1.735  0.2462 -0.4755 -0.5039
   28MOL   O78129995   5.852   7.712   1.698 -0.0958  0.3307  0.2624
   28MOL   C78229996   6.055   7.583   1.667  0.2120  0.1924 -0.2375
   28MOL   C78329997   6.190   7.561   1.693 -0.1703  0.1166 -0.8447
   28MOL   C78429998   6.500   7.722   1.625  0.2887 -0.0338 -0.0856
   28MOL   C78529999   6.578   7.817   1.552  0.3248  0.6308 -0.9176
   28MOL   C78630000   6.664   8.213   1.647  0.0078 -0.0075 -0.4196
   28MOL   C78730001   6.617   0.092   1.616  0.6100  0.1367  0.2225
   28MOL   C78830002   6.759   0.324   1.268 -0.5581 -0.5974 -0.1474
   28MOL   C78930003   6.818   0.372   1.148  0.0540 -0.5310 -0.1022
   28MOL   H79030004   6.550   0.523   1.001  0.5455  0.5820  0.2642
   28MOL   H79130005   6.445   0.450   1.210  0.7959  2.2149 -0.7848
   28MOL   H79230006   6.609   0.064   1.274 -0.3036  0.0574  0.6003
   28MOL   H79330007   6.697   8.102   1.323  1.4596 -0.3922  1.0582
   28MOL   H79430008   6.734   7.965   1.817 -0.9289 -2.2450  2.9294
   28MOL   H79530009   6.597   7.797   1.943  1.3115  0.5750 -0.3641
   28MOL   H79630010   6.557   7.440   1.824 -0.0887 -1.4021 -0.5002
   28MOL   H79730011   6.448   7.458   1.680  0.9491 -1.0431 -0.2893
   28MOL   H79830012   6.403   7.389   1.833 -0.1564 -0.9534 -0.9129
   28MOL   H79930013   6.397   7.702   2.033 -0.9244 -0.1756  0.3607
   28MOL   H80030014   6.366   7.530   2.041  1.2272 -1.2746 -0.3122
   28MOL   H80130015   6.529   7.586   2.016  1.2902  1.9299 -0.3981
   28MOL   H80230016   6.229   7.793   1.933  0.0172  1.4209 -0.1444
   28MOL   H80330017   5.988   7.847   1.864 -1.3124 -0.9069  0.4371
   28MOL   H80430018   6.013   7.527   1.584  0.0617 -0.7144  0.4351
   28MOL   H80530019   6.246   7.481   1.647  0.8810  0.2566  0.1732
   28MOL   H80630020   6.426   7.663   1.574 -0.2150  0.7320 -0.2557
   28MOL   H80730021   6.560   7.825   1.446 -0.7151  0.0720 -0.7935
   28MOL   H80830022   6.681   8.181   1.748  2.0008 -0.5444 -0.9153
   28MOL   H80930023   6.612   0.170   1.691  0.5578 -0.0269  0.3905
   28MOL   H81030024   6.814   0.255   1.329  0.5613 -0.3451 -0.8613
   28MOL   H81130025   6.921   0.348   1.127  0.5328  1.8580 -0.6334
   28MOL   C81230026   5.751   7.701   1.791 -0.1101  0.3183  0.3818
   28MOL   C81330027   5.769   7.659   1.924 -0.2424 -0.1826 -0.1178
   28MOL   C81430028   5.662   7.664   2.016  0.8278  0.5913  0.0583
   28MOL   C81530029   5.539   7.703   1.975  0.1676 -0.5236  0.4476
   28MOL   S81630030   5.401   7.685   2.088 -0.4711  0.3865 -0.0980
   28MOL   O81730031   5.324   7.808   2.087  0.5792  0.1572 -0.4268
   28MOL   O81830032   5.454   7.623   2.212 -0.5283  0.1707 -0.4246
   28MOL   C81930033   5.318   7.552   1.988 -0.1731 -0.0721  0.0739
   28MOL   C82030034   5.343   7.419   2.013  0.2851  0.0729  0.5216
   28MOL   C82130035   5.281   7.324   1.930 -1.2094 -0.2792 -0.1469
   28MOL   C82230036   5.187   7.352   1.830 -0.5028  0.2440 -0.0746
   28MOL   O82330037   5.136   7.253   1.750 -0.5629 -0.1223 -0.4023
   28MOL   C82430038   5.006   7.259   1.703  0.5053 -0.2475 -0.2341
   28MOL   C82530039   4.902   7.226   1.793 -0.1893 -0.8304 -0.1501
   28MOL   C82630040   4.771   7.228   1.744  0.0732  0.2281 -0.8946
   28MOL   C82730041   4.740   7.262   1.610 -0.2571 -0.3633  0.7492
   28MOL   C82830042   4.594   7.255   1.558  0.0081 -0.2959 -0.5228
   28MOL   C82930043   4.575   7.115   1.496  0.6436 -0.0940  0.4190
   28MOL   C83030044   4.494   7.264   1.661 -0.5527 -0.2210 -1.2355
   28MOL   C83130045   4.568   7.371   1.463 -0.4409 -0.1123  1.0024
   28MOL   C83230046   4.603   7.505   1.487 -0.0494 -0.3675 -0.0962
   28MOL   C83330047   4.590   7.607   1.391 -0.0089  0.6891  0.3129
   28MOL   C83430048   4.524   7.589   1.261  0.6628 -0.0232 -0.8558
   28MOL   O83530049   4.498   7.687   1.169 -0.2948  0.0364 -0.2680
   28MOL   C83630050   4.480   7.456   1.241  0.4773  0.0058  0.4287
   28MOL   C83730051   4.500   7.352   1.336  0.7718 -0.3283 -0.0642
   28MOL   C83830052   4.846   7.284   1.524 -0.1290 -1.2378  0.3632
   28MOL   C83930053   4.981   7.277   1.569  0.2063  0.0768  0.2191
   28MOL   C84030054   5.162   7.490   1.803  0.5373 -0.5213 -0.5815
   28MOL   C84130055   5.229   7.588   1.883  0.4637  0.2818  0.2480
   28MOL   C84230056   5.519   7.752   1.848  0.2471 -0.1385  0.0616
   28MOL   C84330057   5.623   7.752   1.757 -0.2657 -0.7949  0.3886
   28MOL   H84430058   5.863   7.615   1.956  1.0590  2.7501  0.2187
   28MOL   H84530059   5.670   7.631   2.118 -0.9500 -0.0274  0.0137
   28MOL   H84630060   5.411   7.396   2.094 -1.1775  1.2523  2.1088
   28MOL   H84730061   5.308   7.221   1.945  1.7636  0.5411  0.3173
   28MOL   H84830062   4.926   7.185   1.890 -1.6304 -1.1067  0.0914
   28MOL   H84930063   4.694   7.206   1.816 -0.7961  1.8012 -1.3066
   28MOL   H85030064   4.612   7.029   1.552 -0.0671  1.0303  2.7004
   28MOL   H85130065   4.646   7.113   1.414  1.9735 -0.6284  1.5717
   28MOL   H85230066   4.471   7.103   1.465  0.3877  3.1788 -0.1619
   28MOL   H85330067   4.494   7.192   1.743  0.3622  0.1719 -0.8814
   28MOL   H85430068   4.506   7.364   1.703 -0.9549 -0.5924 -0.2220
   28MOL   H85530069   4.395   7.255   1.615 -0.8825 -0.7324 -0.4405
   28MOL   H85630070   4.651   7.525   1.582  2.8256 -2.2207 -1.0822
   28MOL   H85730071   4.621   7.708   1.414 -1.7362  1.3793 -0.3300
   28MOL   H85830072   4.416   7.434   1.157  0.7790  0.2085  0.1434
   28MOL   H85930073   4.453   7.261   1.302  0.8921 -0.7262  0.8165
   28MOL   H86030074   4.834   7.298   1.417  1.2964  0.2142  0.3729
   28MOL   H86130075   5.062   7.289   1.499 -0.6984  0.2030 -0.8100
   28MOL   H86230076   5.091   7.504   1.723 -1.1869 -2.7130  0.5121
   28MOL   H86330077   5.222   7.695   1.870  1.7460  0.5550  1.7363
   28MOL   H86430078   5.422   7.786   1.814  0.1702 -1.1023 -0.7005
   28MOL   H86530079   5.605   7.787   1.657 -0.4698  1.0260  1.0371
   28MOL   C86630080   4.443   7.798   1.229  1.0525  0.4935  0.1940
   28MOL   C86730081   4.317   7.806   1.296 -0.3173 -0.4994  0.0917
   28MOL   C86830082   4.280   7.920   1.362  0.6261 -0.3442 -0.4890
   28MOL   C86930083   4.364   8.029   1.366  0.0347 -0.2933  0.0389
   28MOL   S87030084   4.314   8.179   1.452  0.1807  0.1832  0.1335
   28MOL   O87130085   4.414   0.034   1.467 -0.8784 -0.1603 -0.1017
   28MOL   O87230086   4.256   8.127   1.578  0.1348  0.3938 -0.3649
   28MOL   C87330087   4.185   8.250   1.353 -0.5243 -1.1637 -0.0245
   28MOL   C87430088   4.115   0.111   1.405 -0.2474 -0.2066  0.9131
   28MOL   C87530089   4.005   0.158   1.333  0.0693  0.7786 -0.5936
   28MOL   C87630090   3.972   0.106   1.206  0.2632  0.0373  0.4192
   28MOL   O87730091   3.861   0.162   1.140 -0.3041 -0.2620 -0.7719
   28MOL   C87830092   3.879   0.171   1.005 -0.1731  0.5976 -1.0314
   28MOL   C87930093   3.821   0.077   0.921  0.1348  0.1465  0.3057
   28MOL   C88030094   3.833   0.079   0.780  0.0061  0.3381  0.0663
   28MOL   C88130095   3.914   0.181   0.720  0.0535 -0.4985  0.2389
   28MOL   C88230096   3.934   0.187   0.564  0.1601  0.1419  0.6327
   28MOL   C88330097   3.820   0.106   0.496  0.2459 -0.0985 -0.3475
   28MOL   C88430098   3.908   0.331   0.513 -0.5413 -0.0356  0.2087
   28MOL   C88530099   4.071   0.133   0.523  1.1688  0.0590 -0.1660
   28MOL   C88630100   4.127   0.020   0.589 -0.2273  0.5016 -0.0988
   28MOL   C88730101   4.265   8.237   0.574  0.1079 -0.1190 -0.2518
   28MOL   C88830102   4.335   0.044   0.470 -0.1727 -0.1508  0.0277
   28MOL   O88930103   4.452   8.240   0.427 -0.1329  0.0013 -0.2851
   28MOL   C89030104   4.272   0.142   0.391  0.8355  0.5719  0.4986
   28MOL   C89130105   4.146   0.195   0.423 -0.3746  0.2442  0.5032
   28MOL   C89230106   3.975   0.274   0.802  0.0473 -0.1947 -0.1078
   28MOL   C89330107   3.958   0.273   0.944  0.7045  0.3240 -0.5416
   28MOL   C89430108   4.043   8.249   1.156  0.0430 -0.6028 -0.4703
   28MOL   C89530109   4.149   8.194   1.228  0.0934  0.5504  0.5776
   28MOL   C89630110   4.484   8.032   1.297 -0.5707 -0.7798  0.0665
   28MOL   C89730111   4.521   7.916   1.224 -0.1559 -0.0670 -0.6700
   28MOL   H89830112   4.258   7.716   1.293 -2.6234  1.0014 -1.1427
   28MOL   H89930113   4.183   7.923   1.409  0.4915  0.8138 -0.8321
   28MOL   H90030114   4.160   0.155   1.494  1.8578  0.6666 -0.5422
   28MOL   H90130115   3.948   0.240   1.374 -0.1689  0.5315 -0.4226
   28MOL   H90230116   3.760   8.249   0.958 -0.2464 -0.6937 -2.0709
   28MOL   H90330117   3.788   0.003   0.718 -1.8526  0.8857  0.7168
   28MOL   H90430118   3.720   0.149   0.508  0.5452 -0.0946  2.5696
   28MOL   H90530119   3.816   8.252   0.511 -0.4302  0.0496  0.6064
   28MOL   H90630120   3.855   0.110   0.393  1.5567  1.7708  0.1359
   28MOL   H90730121   3.814   0.375   0.547 -0.1269  1.3187 -0.3680
   28MOL   H90830122   3.989   0.399   0.536 -2.1500  1.2269  2.3309
   28MOL   H90930123   3.891   0.336   0.405 -2.7139 -1.7133  0.4449
   28MOL   H91030124   4.079   8.232   0.677  0.8717 -0.9370 -0.1620
   28MOL   H91130125   4.314   8.167   0.640  2.6352  1.3350 -0.5493
   28MOL   H91230126   4.321   0.177   0.301 -0.7897  1.0610 -0.2097
   28MOL   H91330127   4.118   0.281   0.364  0.1777 -0.3114 -0.5771
   28MOL   H91430128   4.040   0.352   0.766 -0.4630  1.6221  2.7785
   28MOL   H91530129   4.004   0.351   1.002  2.0204 -1.8270  1.3763
   28MOL   H91630130   4.030   8.211   1.056 -0.4838  1.0403 -1.0334
   28MOL   H91730131   4.199   8.109   1.184 -1.4404  0.7727 -1.6885
   28MOL   H91830132   4.558   8.110   1.306 -0.3633 -0.7556 -1.7157
   28MOL   H91930133   4.620   7.904   1.183  0.3813 -2.1471  1.1475
   28MOL   C92030134   4.563   0.052   0.473  0.0183 -0.4111  0.0979
   28MOL   C92130135   4.633   0.005   0.586  0.4927 -0.0923 -0.3148
   28MOL   C92230136   4.749   0.073   0.629  0.3974 -0.0271 -0.0745
   28MOL   C92330137   4.800   0.173   0.546  0.3515 -0.0158  0.0935
   28MOL   S92430138   4.963   0.228   0.592 -0.0278 -0.3957  0.1019
   28MOL   O92530139   5.044   0.106   0.608  0.5147 -0.2067  0.5201
   28MOL   O92630140   4.943   0.311   0.711 -0.1367 -0.0679  0.2303
   28MOL   C92730141   5.029   0.322   0.455  0.7553  0.1995 -0.3871
   28MOL   C92830142   5.140   0.266   0.385  0.2785 -0.6118  0.5975
   28MOL   C92930143   5.203   0.350   0.286  0.0532 -0.4078 -0.3920
   28MOL   C93030144   5.149   0.479   0.256  0.4878 -0.4040  0.3095
   28MOL   O93130145   5.210   0.568   0.167  0.1377  1.0985  0.0783
   28MOL   C93230146   5.225   0.544   0.029  0.1359 -0.0237  0.1390
   28MOL   C93330147   5.116   0.509   8.198  0.2157 -1.0452  0.4611
   28MOL   C93430148   5.125   0.485   8.062 -0.4504 -0.2892  0.9561
   28MOL   C93530149   5.254   0.502   8.001  0.8769 -0.1421  0.6607
   28MOL   C93630150   5.283   0.474   7.848 -0.0168 -0.1863 -0.0014
   28MOL   C93730151   5.164   0.393   7.790 -0.0669  0.3728 -0.1351
   28MOL   C93830152   5.293   0.606   7.771 -0.1996  0.6819  0.3516
   28MOL   C93930153   5.412   0.388   7.843  0.0967 -0.0180 -1.0459
   28MOL   C94030154   5.422   0.262   7.913  0.3314 -1.0622  0.2610
   28MOL   C94130155   5.535   0.187   7.919 -0.3251  0.1395 -0.1680
   28MOL   C94230156   5.645   0.223   7.834  0.0246 -0.3654 -0.2390
   28MOL   O94330157   5.765   0.158   7.828 -0.4130  0.1346  0.3403
   28MOL   C94430158   5.627   0.339   7.748 -0.0606  0.1932 -0.3791
   28MOL   C94530159   5.518   0.419   7.756 -0.6613  0.4260  0.0168
   28MOL   C94630160   5.357   0.546   8.084 -0.2290 -0.0303  0.4862
   28MOL   C94730161   5.350   0.565   8.227  0.6114  0.9417  0.9106
   28MOL   C94830162   5.037   0.524   0.326 -0.7011  0.3767  1.3667
   28MOL   C94930163   4.974   0.447   0.426 -0.1451  0.5547 -0.5049
   28MOL   C95030164   4.733   0.222   0.429  0.8018 -0.1764 -0.0638
   28MOL   C95130165   4.608   0.164   0.401 -0.1360  0.0519 -0.0134
   28MOL   H95230166   4.602   8.165   0.632  0.5414  0.3448  0.6303
   28MOL   H95330167   4.806   0.045   0.716 -1.1916 -0.1286  0.9390
   28MOL   H95430168   5.176   0.168   0.413 -0.9140 -0.7813  1.5601
   28MOL   H95530169   5.289   0.313   0.234 -1.1883 -1.7775 -1.5086
   28MOL   H95630170   5.016   0.497   8.236  0.4076 -1.9384  0.6893
   28MOL   H95730171   5.046   0.447   7.999  1.4303 -2.2728 -0.2819
   28MOL   H95830172   5.138   0.294   7.828 -1.1079  0.4547 -0.6295
   28MOL   H95930173   5.188   0.384   7.684  2.2545 -0.8855  0.4472
   28MOL   H96030174   5.067   0.442   7.780  0.8599  1.9733 -1.5388
   28MOL   H96130175   5.301   0.587   7.664  0.5946 -1.0582  0.6963
   28MOL   H96230176   5.203   0.668   7.764 -0.2268  0.4820 -1.4737
   28MOL   H96330177   5.373   0.673   7.801 -0.0487  0.6823 -0.0478
   28MOL   H96430178   5.332   0.231   7.963 -0.2697  2.5813  1.5469
   28MOL   H96530179   5.548   0.100   7.982  1.9336  0.7839  0.2753
   28MOL   H96630180   5.704   0.361   7.676 -0.5297 -1.2205 -1.3341
   28MOL   H96730181   5.517   0.517   7.710  0.2779  1.6375  2.5071
   28MOL   H96830182   5.448   0.579   8.036 -0.7517  0.3550 -0.2476
   28MOL   H96930183   5.433   0.606   0.030 -0.5321  0.5787  2.9404
   28MOL   H97030184   4.996   0.624   0.316 -0.5776  0.3790  0.8367
   28MOL   H97130185   4.890   0.480   0.484  0.5045  2.3945 -0.5847
   28MOL   H97230186   4.783   0.296   0.369  4.0844 -1.1216  1.3255
   28MOL   H97330187   4.546   0.197   0.319 -0.3163  2.0365  0.9163
   28MOL   C97430188   5.758   0.036   7.759 -0.5159 -0.0599  0.5597
   28MOL   C97530189   5.638   8.204   7.739 -0.0195  0.1898 -0.2618
   28MOL   C97630190   5.643   8.093   7.654 -0.7665 -0.4339  0.4430
   28MOL   C97730191   5.771   8.065   7.598  0.4235 -0.2720  0.7019
   28MOL   S97830192   5.780   7.926   7.482  0.1203  0.0878 -0.3342
   28MOL   O97930193   5.700   7.819   7.544 -0.2751 -0.2805  0.0575
   28MOL   O98030194   5.922   7.895   7.456 -0.1544  0.1252 -0.2084
   28MOL   C98130195   5.706   7.989   7.335 -0.0677  0.5170  0.2088
   28MOL   C98230196   5.599   7.917   7.278 -0.8551  0.8742  0.3190
   28MOL   C98330197   5.543   7.964   7.156 -0.2726 -0.1083 -0.2004
   28MOL   C98430198   5.586   8.081   7.091  0.5908  1.1156 -0.1873
   28MOL   O98530199   5.538   8.125   6.972  0.2465 -0.2233  0.0633
   28MOL   C98630200   5.406   8.100   6.933  0.0031  1.1898  0.1158
   28MOL   C98730201   5.307   8.194   6.950  0.5395  0.6364 -0.3075
   28MOL   C98830202   5.176   8.181   6.895 -0.6023 -0.2032 -0.3609
   28MOL   C98930203   5.142   8.059   6.829  0.4253  0.1038  0.5968
   28MOL   C99030204   4.995   8.028   6.788 -0.0336 -0.2133 -0.6447
   28MOL   C99130205   4.980   7.911   6.687 -0.0375 -0.9002  0.4733
   28MOL   C99230206   4.922   7.985   6.917  0.2289 -0.9834  0.2051
   28MOL   C99330207   4.939   8.158   6.720  0.5263  0.3720 -0.5438
   28MOL   C99430208   4.814   8.215   6.753 -0.0332 -0.3795  0.0285
   28MOL   C99530209   4.765   0.081   6.692 -0.5320 -0.3658 -0.5886
   28MOL   C99630210   4.845   0.146   6.597  0.2997  0.0439 -0.4633
   28MOL   O99730211   4.795   0.264   6.544  0.0584  0.3317 -0.2503
   28MOL   C99830212   4.973   0.095   6.563 -0.3788  0.9572 -0.1397
   28MOL   C99930213   5.011   8.222   6.610 -0.4175  0.4572 -0.3063
   28MOL     C130214   5.250   7.962   6.815  0.0546 -0.6994  0.3222
   28MOL     C230215   5.378   7.978   6.868 -0.4060 -0.9193 -0.0456
   28MOL     C330216   5.695   8.146   7.152 -0.3480  0.1501  0.8747
   28MOL     C430217   5.755   8.106   7.274 -0.6157 -0.2065 -0.3960
   28MOL     C530218   5.881   8.145   7.609 -1.0040  0.3663 -0.1683
   28MOL     C630219   5.879   0.006   7.690 -0.3762 -0.2189  0.3906
   28MOL     H730220   5.540   8.226   7.779  0.2509  2.4462 -0.7626
   28MOL     H830221   5.557   8.039   7.617 -0.1204 -0.3022 -1.2917
   28MOL     H930222   5.544   7.840   7.329 -2.5056  0.7600 -1.5550
   28MOL    H1030223   5.450   7.920   7.126 -0.7336  0.3966  0.4608
   28MOL    H1130224   5.335   0.028   7.007  0.6724  1.0176 -0.9560
   28MOL    H1230225   5.105   0.007   6.911  1.0176  0.7366  2.5337
   28MOL    H1330226   4.881   7.885   6.650 -0.0006  0.5876 -0.7291
   28MOL    H1430227   5.012   7.819   6.736 -0.1251 -1.4473 -0.4844
   28MOL    H1530228   5.030   7.917   6.590  1.6561  0.8288  1.4061
   28MOL    H1630229   4.927   8.065   6.992 -1.3343 -0.9909  0.3318
   28MOL    H1730230   4.820   7.951   6.899  0.2257  0.4630 -2.7563
   28MOL    H1830231   4.974   7.901   6.963  2.5161  0.2013 -0.1433
   28MOL    H1930232   4.750   8.164   6.823 -0.4922 -0.4471 -0.4377
   28MOL    H2030233   4.665   0.117   6.714 -0.0400 -0.0542  1.2555
   28MOL    H2130234   5.042   0.140   6.493 -1.6643  0.9776 -1.4198
   28MOL    H2230235   5.103   8.185   6.568  0.2504  2.1548 -0.3782
   28MOL    H2330236   5.241   7.865   6.769 -0.0860 -0.3420 -0.4135
   28MOL    H2430237   5.453   7.902   6.853  1.0619  0.0041  2.2760
   28MOL    H2530238   5.736   8.239   7.115 -0.3040 -0.5232 -0.7882
   28MOL    H2630239   5.844   8.159   7.305 -0.7772 -0.4049  0.4215
   28MOL    H2730240   5.968   8.112   7.554 -1.0389 -1.3242  0.7579
   28MOL    H2830241   5.961   0.076   7.701  0.2696 -0.6840 -1.2795
   28MOL    C2930242   4.870   0.369   6.585  0.1285  0.2287 -0.2433
   28MOL    C3030243   4.964   0.428   6.500  0.2599 -0.2735  0.2675
   28MOL    C3130244   5.045   0.533   6.554 -1.0451 -0.1900  0.0120
   28MOL    C3230245   5.014   0.597   6.676  0.8206  0.4425  0.4007
   28MOL    S3330246   5.092   0.750   6.724  0.0640 -0.1984  0.3541
   28MOL    O3430247   5.127   0.738   6.862  0.1790  0.0366  0.0275
   28MOL    O3530248   4.996   0.849   6.680  0.4830 -0.2291  0.4650
   28MOL    C3630249   5.236   0.769   6.621 -0.5939  0.5711 -0.0770
   28MOL    C3730250   5.358   0.711   6.655 -0.6462  0.4676  0.2900
   28MOL    C3830251   5.470   0.737   6.574 -0.0425  0.2163 -0.0241
   28MOL    C3930252   5.459   0.816   6.453 -0.8463 -0.3859  0.7497
   28MOL    O4030253   5.579   0.839   6.389  0.6140  0.1481  0.1715
   28MOL    C4130254   5.581   0.778   6.271  0.6193 -0.1795  0.1394
   28MOL    C4230255   5.663   0.846   6.173  0.3322 -0.1404  0.1529
   28MOL    C4330256   5.690   0.784   6.050 -0.1210  0.3138  1.2336
   28MOL    C4430257   5.622   0.664   6.012 -0.0725 -0.2588 -0.7355
   28MOL    C4530258   5.649   0.603   5.872 -0.4036  0.4681  1.1244
   28MOL    C4630259   5.799   0.573   5.857  0.6060 -0.0476  0.1034
   28MOL    C4730260   5.571   0.469   5.848 -1.1605 -0.2222 -0.1332
   28MOL    C4830261   5.604   0.709   5.766 -0.9215 -0.2957  0.6088
   28MOL    C4930262   5.691   0.765   5.665 -0.3248  0.8357  0.1468
   28MOL    C5030263   5.647   0.863   5.579 -1.1019  0.2447 -0.9653
   28MOL    C5130264   5.515   0.911   5.585 -1.0363  0.3596  0.6594
   28MOL    O5230265   5.467   0.993   5.488  0.1578 -0.0434 -0.1507
   28MOL    C5330266   5.430   0.858   5.682  0.1654  0.8374  0.0933
   28MOL    C5430267   5.471   0.757   5.770  0.5965 -1.0441 -0.6734
   28MOL    C5530268   5.547   0.597   6.111  0.0372 -1.0933  0.3718
   28MOL    C5630269   5.526   0.651   6.237 -0.7347 -0.0580 -0.7266
   28MOL    C5730270   5.334   0.858   6.417  0.1881  0.0355  0.3350
   28MOL    C5830271   5.219   0.833   6.500  0.3480 -0.6446  0.0835
   28MOL    C5930272   4.917   0.531   6.757 -0.3757  0.4075  0.4366
   28MOL    C6030273   4.848   0.416   6.715  0.0239 -0.6180  0.1892
   28MOL    H6130274   4.984   0.394   6.400 -0.2752  1.2872 -0.3803
   28MOL    H6230275   5.117   0.585   6.493 -0.9021 -0.0704  0.2827
   28MOL    H6330276   5.359   0.652   6.745  0.2877 -3.0555 -1.9321
   28MOL    H6430277   5.562   0.702   6.616 -0.5050 -0.3425  0.5335
   28MOL    H6530278   5.711   0.938   6.199  1.1436 -0.4686 -0.1806
   28MOL    H6630279   5.763   0.827   5.982 -0.9278  2.1897  1.5188
   28MOL    H6730280   5.832   0.530   5.762  0.2614 -0.9678  0.3952
   28MOL    H6830281   5.840   0.518   5.941  2.4709 -1.5732 -1.7268
   28MOL    H6930282   5.856   0.666   5.857 -0.5109  0.6439 -1.0895
   28MOL    H7030283   5.464   0.474   5.866 -0.8856 -0.6669  1.6873
   28MOL    H7130284   5.607   0.423   5.756  0.7908 -0.2356  0.6195
   28MOL    H7230285   5.607   0.389   5.913 -0.8193  0.1541  0.1435
   28MOL    H7330286   5.789   0.721   5.652 -0.7026  0.2542 -0.8148
   28MOL    H7430287   5.703   0.902   5.494 -2.0066  0.1750 -1.6026
   28MOL    H7530288   5.325   0.883   5.675  0.5714  2.1921 -1.3673
   28MOL    H7630289   5.398   0.699   5.825  0.9534 -1.4773 -0.6530
   28MOL    H7730290   5.515   0.495   6.098 -0.2767 -0.7245 -1.8442
   28MOL    H7830291   5.469   0.590   6.305 -0.1718  2.7586  2.3859
   28MOL    H7930292   5.319   0.900   6.319 -0.7555 -0.8757  0.0691
   28MOL    H8030293   5.119   0.850   6.463  0.4246  1.3247  0.7243
   28MOL    H8130294   4.908   0.578   6.854 -0.1833  1.0768  0.1361
   28MOL    H8230295   4.768   0.371   6.772 -1.0151  1.3978  0.3360
   28MOL    H8330296   5.528   1.024   5.423 -0.2781  0.7150 -0.2068
   29MOL     C130297   6.495   7.072   1.032 -0.0798 -0.1960  1.1703
   29MOL     C230298   6.447   6.988   1.138 -0.2654 -0.0772  0.1372
   29MOL     C330299   6.311   6.975   1.159  0.3468 -0.1006  0.2724
   29MOL     C430300   6.221   7.043   1.073  0.1473  0.0108 -0.0778
   29MOL     S530301   6.042   7.025   1.101  0.1462 -0.0114  0.3799
   29MOL     O630302   6.004   6.888   1.068 -0.2378  0.2749 -0.3508
   29MOL     O730303   5.977   7.140   1.034 -0.3070  0.1015 -0.4517
   29MOL     C830304   6.009   7.046   1.276 -0.2542  0.2362  0.1459
   29MOL     C930305   5.935   6.944   1.347 -0.1841 -0.5663 -0.2284
   29MOL    C1030306   5.913   6.959   1.483 -0.4449  0.2743 -0.8333
   29MOL    C1130307   5.949   7.083   1.539 -0.1900  0.3467  0.2707
   29MOL    O1230308   5.917   7.118   1.668 -0.5751 -0.5671 -0.0543
   29MOL    C1330309   5.964   7.048   1.775 -0.8081 -0.9828 -0.0096
   29MOL    C1430310   6.085   7.089   1.845 -0.5934 -0.1587 -0.2699
   29MOL    C1530311   6.118   7.011   1.958  0.3394  0.6165  0.2563
   29MOL    C1630312   6.055   6.891   1.994  0.0892 -0.7089  0.5790
   29MOL    C1730313   6.109   6.806   2.109  0.7795  0.5914  0.2494
   29MOL    C1830314   6.149   6.899   2.221 -0.4142  0.2161 -0.2350
   29MOL    C1930315   5.995   6.718   2.166 -0.2717 -0.1271 -0.7559
   29MOL    C2030316   6.237   6.727   2.060  0.7834  0.3755 -0.1261
   29MOL    C2130317   6.282   6.724   1.927  0.4695  0.4560 -0.0517
   29MOL    C2230318   6.393   6.642   1.883  0.0175  0.2213 -0.6051
   29MOL    C2330319   6.466   6.571   1.986  0.7898  0.2402 -0.3000
   29MOL    O2430320   6.573   6.493   1.947  0.0767  0.3618  0.0287
   29MOL    C2530321   6.427   6.577   2.122  0.0707  0.0769  0.1416
   29MOL    C2630322   6.308   6.651   2.158 -0.0950  0.0143  0.0078
   29MOL    C2730323   5.942   6.856   1.921  0.0858 -0.2390  0.4505
   29MOL    C2830324   5.895   6.936   1.815 -0.1914 -0.4380  0.2630
   29MOL    C2930325   6.022   7.180   1.468 -0.6076 -0.2385  0.2210
   29MOL    C3030326   6.050   7.166   1.334 -0.1390 -0.6831 -0.4375
   29MOL    C3130327   6.264   7.117   0.967 -0.4080  0.0558  0.0925
   29MOL    C3230328   6.405   7.134   0.945  0.2171  0.1382 -0.2376
   29MOL    H3330329   6.509   6.926   1.201  0.2122 -0.1824 -0.4302
   29MOL    H3430330   6.273   6.904   1.231 -0.1937 -1.4475 -1.3117
   29MOL    H3530331   5.899   6.856   1.297  2.2604 -1.3097 -0.7759
   29MOL    H3630332   5.862   6.876   1.531 -2.6439  1.9567 -0.1964
   29MOL    H3730333   6.134   7.183   1.825  0.6733 -0.6863  0.2870
   29MOL    H3830334   6.204   7.033   2.021  1.0257  0.1463 -0.5109
   29MOL    H3930335   6.239   6.956   2.200 -0.2885  1.0568  2.4366
   29MOL    H4030336   6.183   6.853   2.314  0.0939  0.5538 -0.2497
   29MOL    H4130337   6.076   6.971   2.256 -1.3776 -1.1279  0.5492
   29MOL    H4230338   6.032   6.671   2.258 -2.1943  0.1040  0.1646
   29MOL    H4330339   5.909   6.775   2.202  1.0556  0.4555  1.6076
   29MOL    H4430340   5.970   6.632   2.105  1.2306 -0.8895 -0.3028
   29MOL    H4530341   6.222   6.771   1.850 -1.9842 -0.5154  1.2085
   29MOL    H4630342   6.436   6.646   1.784 -1.0517  0.9550 -1.0507
   29MOL    H4730343   6.486   6.525   2.196 -0.4821 -0.0400  0.5022
   29MOL    H4830344   6.263   6.649   2.256 -1.0710  0.7904 -0.4222
   29MOL    H4930345   5.880   6.776   1.958  1.4165 -0.7883  1.5082
   29MOL    H5030346   5.809   6.900   1.761  0.8222 -1.8593 -0.4586
   29MOL    H5130347   6.046   7.274   1.515 -1.7878  0.3736 -0.3502
   29MOL    H5230348   6.103   7.235   1.270 -2.1158 -1.0614 -2.5629
   29MOL    H5330349   6.202   7.176   0.902  0.1619  1.2589  0.6322
   29MOL    H5430350   6.439   7.199   0.865  3.1804  0.4772  1.2572
   29MOL    H5530351   6.602   7.085   1.022 -0.3341 -0.0273 -1.4939
   29MOL    C5630352   6.545   6.386   1.865  0.9244 -0.4449 -0.4146
   29MOL    C5730353   6.575   6.390   1.730 -0.6214  0.4478 -0.2571
   29MOL    C5830354   6.574   6.269   1.653 -0.2536 -0.1728 -0.2389
   29MOL    C5930355   6.526   6.151   1.711  0.5796 -1.2592  0.0103
   29MOL    S6030356   6.502   6.012   1.600  0.2988 -0.2362  0.1997
   29MOL    O6130357   6.635   5.984   1.541 -0.2414 -0.2087  0.2600
   29MOL    O6230358   6.389   6.055   1.517 -0.3630 -0.1141  0.4527
   29MOL    C6330359   6.465   5.865   1.697 -0.1306 -0.5385 -0.3132
   29MOL    C6430360   6.336   5.818   1.696  0.5313  0.5110  0.4701
   29MOL    C6530361   6.302   5.701   1.769  0.4708  0.6273  0.1340
   29MOL    C6630362   6.399   5.626   1.845  0.9443 -0.7329  0.2129
   29MOL    O6730363   6.363   5.520   1.923  0.6706  0.0210  0.6563
   29MOL    C6830364   6.439   5.410   1.907 -0.5654 -0.2112  0.7177
   29MOL    C6930365   6.431   5.345   1.779  0.5136 -0.0953  0.1172
   29MOL    C7030366   6.512   5.238   1.746  0.4477 -0.5851 -0.2429
   29MOL    C7130367   6.581   5.160   1.844 -0.7235  0.0628  0.4644
   29MOL    C7230368   6.655   5.029   1.813 -0.0721  0.0710 -0.0564
   29MOL    C7330369   6.561   4.909   1.847 -0.1140 -0.3450  0.1731
   29MOL    C7430370   6.699   5.017   1.668 -0.4369  0.1191 -0.4724
   29MOL    C7530371   6.786   5.029   1.891 -0.2741 -0.5502 -0.8124
   29MOL    C7630372   6.874   5.147   1.888  0.4232 -0.3282 -0.8101
   29MOL    C7730373   6.998   5.134   1.952  0.8830  0.2596  0.3209
   29MOL    C7830374   7.028   5.025   2.038  0.3386  0.4721  0.0274
   29MOL    O7930375   7.149   5.018   2.097  0.1646  0.5308  0.0699
   29MOL    C8030376   6.938   4.919   2.046 -0.2952 -0.2882  0.2147
   29MOL    C8130377   6.814   4.921   1.977 -0.0232 -0.2287 -0.2750
   29MOL    C8230378   6.580   5.221   1.976  1.0205 -1.0609 -0.5450
   29MOL    C8330379   6.510   5.343   2.007  0.1385 -0.4925 -0.1595
   29MOL    C8430380   6.532   5.673   1.830  0.0627  0.0929  0.2412
   29MOL    C8530381   6.564   5.792   1.757  0.3047 -0.0158  0.0262
   29MOL    C8630382   6.471   6.154   1.841 -0.3001  0.9618  0.2031
   29MOL    C8730383   6.487   6.271   1.921  0.2927 -0.2856 -0.0442
   29MOL    H8830384   6.620   6.483   1.696 -0.6858  0.0141 -1.5430
   29MOL    H8930385   6.604   6.284   1.550  3.2768 -0.7171  0.6368
   29MOL    H9030386   6.252   5.866   1.649 -0.9879 -1.4003  1.1933
   29MOL    H9130387   6.199   5.668   1.769 -0.0141  1.9584 -1.8821
   29MOL    H9230388   6.391   5.396   1.692  1.1008  0.7664  0.3472
   29MOL    H9330389   6.502   5.197   1.646 -0.5948  2.0940 -1.3021
   29MOL    H9430390   6.593   4.806   1.826 -0.8561 -0.6864  0.6995
   29MOL    H9530391   6.475   4.929   1.784 -0.1152 -0.5433  0.1115
   29MOL    H9630392   6.530   4.909   1.951  3.3788  0.2404  1.2993
   29MOL    H9730393   6.609   5.006   1.607 -1.3069 -1.2120  0.9829
   29MOL    H9830394   6.763   5.103   1.650  0.8270 -0.1684  2.2624
   29MOL    H9930395   6.752   4.922   1.664 -1.5761 -0.5398 -0.3097
   29MOL   H10030396   6.858   5.228   1.818  1.5232  0.7554  0.1763
   29MOL   H10130397   7.069   5.216   1.954  0.4464  0.6362  0.5385
   29MOL   H10230398   6.970   4.833   2.104 -1.1850 -1.6227 -1.2319
   29MOL   H10330399   6.746   4.838   1.985  0.1327 -0.4065 -0.7354
   29MOL   H10430400   6.640   5.175   2.053  0.6777  1.1668  1.1221
   29MOL   H10530401   6.527   5.382   2.107  1.7121  1.6870 -1.2494
   29MOL   H10630402   6.603   5.610   1.881 -0.2274 -0.4989 -0.0906
   29MOL   H10730403   6.665   5.831   1.762  0.7305 -1.3175  2.3032
   29MOL   H10830404   6.437   6.066   1.892  1.0619  0.7789  0.8079
   29MOL   H10930405   6.456   6.256   2.023  0.1202  1.0306  0.0973
   29MOL   C11030406   7.240   4.939   2.032  0.4537 -0.2722 -0.0264
   29MOL   C11130407   7.297   4.833   2.094  0.0050 -0.3973 -0.1779
   29MOL   C11230408   7.400   4.762   2.037  0.7353  0.4853  0.8957
   29MOL   C11330409   7.445   4.791   1.907 -0.6457  0.1651  0.4716
   29MOL   S11430410   7.568   4.696   1.814 -0.4003  0.0005  0.0188
   29MOL   O11530411   7.501   4.659   1.692 -0.0700  0.0939 -0.0955
   29MOL   O11630412   7.623   4.587   1.898  0.1720 -0.0906  0.0022
   29MOL   C11730413   7.708   4.801   1.784  0.2184  0.5877 -0.4403
   29MOL   C11830414   7.749   4.885   1.892 -0.3358 -0.1412 -0.4821
   29MOL   C11930415   7.865   4.965   1.885 -0.2946  1.2718 -0.0262
   29MOL   C12030416   7.943   4.962   1.762  0.0266 -0.0606 -1.1011
   29MOL   O12130417   8.052   5.039   1.742  0.4987  0.1241 -0.1564
   29MOL   C12230418   8.149   5.013   1.833  0.3883  0.6273 -0.2228
   29MOL   C12330419   8.173   5.101   1.940  0.5702  0.1575 -0.2147
   29MOL   C12430420   0.019   5.069   2.032 -0.1983 -0.1948  0.3852
   29MOL   C12530421   0.092   4.947   2.021  0.7144 -0.5584 -0.1766
   29MOL   C12630422   0.201   4.924   2.128 -0.9578  0.1346  0.0686
   29MOL   C12730423   0.256   4.779   2.109 -1.0346  0.1758 -0.3159
   29MOL   C12830424   0.315   5.027   2.092  0.1894  0.2173  0.3873
   29MOL   C12930425   0.150   4.927   2.272 -0.3552 -0.1478  0.1997
   29MOL   C13030426   0.032   4.863   2.305 -0.1097  0.2143 -0.0132
   29MOL   C13130427   8.252   4.832   2.439 -0.2923  0.0953  0.1922
   29MOL   C13230428   0.078   4.891   2.542 -0.6422  0.5460 -0.5811
   29MOL   O13330429   0.053   4.867   2.676 -0.5204  0.2698  0.3918
   29MOL   C13430430   0.196   4.960   2.508  0.2042 -0.2284 -0.7916
   29MOL   C13530431   0.227   4.985   2.374 -0.4465  0.1255  0.2443
   29MOL   C13630432   0.067   4.863   1.908 -1.0632 -0.8905 -0.1779
   29MOL   C13730433   8.221   4.892   1.815 -0.0445  0.1426  0.2012
   29MOL   C13830434   7.893   4.890   1.655 -0.2761  0.5879  0.6907
   29MOL   C13930435   7.779   4.801   1.665  0.0418 -0.8996  0.0236
   29MOL   C14030436   7.398   4.912   1.854  0.2576 -0.5890 -0.2900
   29MOL   C14130437   7.290   4.979   1.908  1.0285  0.1774 -0.1688
   29MOL   H14230438   7.267   4.800   2.193  1.3669 -1.7299 -0.1957
   29MOL   H14330439   7.451   4.684   2.092  0.9960 -0.4924 -0.6786
   29MOL   H14430440   7.691   4.879   1.983  0.3710 -0.4806 -0.0411
   29MOL   H14530441   7.902   5.024   1.967  0.4178  1.8234 -0.7294
   29MOL   H14630442   8.116   5.192   1.952  1.5413  0.7184  0.2311
   29MOL   H14730443   0.043   5.141   2.108  1.6526  1.3832 -1.6086
   29MOL   H14830444   0.181   4.701   2.123  0.4881 -1.3727 -0.6706
   29MOL   H14930445   0.336   4.758   2.180 -1.7984 -0.0288  0.4829
   29MOL   H15030446   0.301   4.768   2.010 -1.4488  1.1485 -0.6281
   29MOL   H15130447   0.392   5.027   2.169  1.9352 -1.3328 -1.3022
   29MOL   H15230448   0.366   5.002   1.999 -2.1224  1.7579 -1.3604
   29MOL   H15330449   0.289   5.132   2.079  1.8598  0.9541  2.6955
   29MOL   H15430450   8.221   4.821   2.229 -1.3079  0.7089  0.7133
   29MOL   H15530451   8.161   4.776   2.448  0.8065 -2.0628 -1.5378
   29MOL   H15630452   0.257   4.998   2.589  2.2198 -0.8950 -1.9637
   29MOL   H15730453   0.312   5.046   2.349 -0.7668  0.7481  0.6475
   29MOL   H15830454   0.135   4.782   1.886 -0.3865  0.0831 -1.6949
   29MOL   H15930455   8.217   4.838   1.722  1.0956  1.4435 -0.6292
   29MOL   H16030456   7.946   4.894   1.561  0.0574  0.4937  0.8720
   29MOL   H16130457   7.744   4.735   1.587 -1.4296 -0.9968  0.7597
   29MOL   H16230458   7.444   4.947   1.762 -0.3210  0.6975 -0.1133
   29MOL   H16330459   7.251   5.069   1.863  1.9223  0.9558  0.5576
   29MOL   C16430460   8.175   4.862   2.710 -0.2199 -1.3691  0.2402
   29MOL   C16530461   8.104   4.738   2.707 -0.8267  0.1958 -0.1189
   29MOL   C16630462   7.970   4.729   2.732  0.3997  0.0627  0.5758
   29MOL   C16730463   7.904   4.849   2.771 -0.1421  0.3028  0.0401
   29MOL   S16830464   7.734   4.850   2.818 -0.2250  0.4039 -0.0099
   29MOL   O16930465   7.725   4.914   2.952  0.2771 -0.6776  0.1979
   29MOL   O17030466   7.690   4.713   2.812 -0.1423 -0.0352  0.1078
   29MOL   C17130467   7.651   4.951   2.696  0.4897  0.2837 -0.0713
   29MOL   C17230468   7.580   5.060   2.748  0.1810 -0.4635  0.0841
   29MOL   C17330469   7.500   5.147   2.667 -0.2244  0.0777 -1.2452
   29MOL   C17430470   7.496   5.116   2.530 -0.0377  0.4197  0.5160
   29MOL   O17530471   7.412   5.187   2.445 -0.2120  0.4552  0.4884
   29MOL   C17630472   7.278   5.171   2.459 -0.2150 -0.9126 -0.1242
   29MOL   C17730473   7.200   5.286   2.469  0.1886 -0.5622 -1.1768
   29MOL   C17830474   7.061   5.281   2.459  0.8732  0.6377 -0.6583
   29MOL   C17930475   6.999   5.152   2.464 -1.0681 -0.1176 -0.1118
   29MOL   C18030476   6.849   5.135   2.458 -0.5843  0.2131  0.2044
   29MOL   C18130477   6.773   5.267   2.433 -0.0933  0.1847 -0.3619
   29MOL   C18230478   6.806   5.044   2.336  0.0394  0.2232 -0.1255
   29MOL   C18330479   6.804   5.087   2.596 -0.2769 -0.9355  0.4476
   29MOL   C18430480   6.743   4.961   2.614  0.0226 -0.1919  0.3907
   29MOL   C18530481   6.723   4.910   2.744 -0.3462  0.1673  0.6938
   29MOL   C18630482   6.761   4.986   2.861 -0.2719  0.1349 -0.9669
   29MOL   O18730483   6.734   4.926   2.983 -0.3410  0.3372  0.1199
   29MOL   C18830484   6.827   5.109   2.845  0.6330  0.5184  0.0360
   29MOL   C18930485   6.843   5.156   2.713 -0.4486 -0.4293 -0.3069
   29MOL   C19030486   7.078   5.035   2.469  0.7976  0.5325 -0.1584
   29MOL   C19130487   7.220   5.039   2.461  0.1042  0.3934  0.6307
   29MOL   C19230488   7.569   5.009   2.475  0.0772  1.1675 -0.4020
   29MOL   C19330489   7.654   4.925   2.559 -0.5273  0.0534  0.1137
   29MOL   C19430490   7.971   4.969   2.772 -0.5063 -0.6058 -0.4014
   29MOL   C19530491   8.109   4.974   2.755  0.5670 -0.0221  0.3588
   29MOL   H19630492   8.163   4.648   2.701 -0.4009  0.3945  0.8551
   29MOL   H19730493   7.920   4.633   2.722  0.5423  0.1007 -0.6192
   29MOL   H19830494   7.585   5.069   2.856 -2.2144  0.6003  0.1492
   29MOL   H19930495   7.429   5.222   2.700 -1.4973 -1.3086 -0.7789
   29MOL   H20030496   7.252   5.381   2.478 -0.7833 -0.0981 -0.2544
   29MOL   H20130497   7.011   5.377   2.465  2.0453  1.1653  1.0966
   29MOL   H20230498   6.665   5.248   2.436  0.0088 -0.2201  1.2603
   29MOL   H20330499   6.791   5.314   2.336  1.0338 -0.4326 -0.4636
   29MOL   H20430500   6.805   5.346   2.502  2.2147 -2.4424  1.6732
   29MOL   H20530501   6.701   5.019   2.323  0.0225  0.3804 -0.3086
   29MOL   H20630502   6.833   5.089   2.240 -0.9964 -2.2214 -1.6012
   29MOL   H20730503   6.866   4.954   2.325  1.6877  0.9776  2.3920
   29MOL   H20830504   6.729   4.910   2.520 -1.1027 -0.7308  0.8446
   29MOL   H20930505   6.687   4.810   2.762 -0.1106 -0.3087 -1.3592
   29MOL   H21030506   6.873   5.165   2.925 -0.1659 -0.0049  0.8671
   29MOL   H21130507   6.898   5.247   2.694  1.3747 -1.2944  0.7658
   29MOL   H21230508   7.030   4.938   2.471 -0.5573  1.2045  0.3746
   29MOL   H21330509   7.276   4.947   2.470  0.0237  0.3595  0.7727
   29MOL   H21430510   7.564   4.985   2.370 -0.7013  0.5571 -0.2304
   29MOL   H21530511   7.716   4.848   2.517 -0.2552 -0.6506  1.7974
   29MOL   H21630512   7.910   5.056   2.790  0.6351 -0.0963  1.0776
   29MOL   H21730513   8.154   5.071   2.771  0.4863 -0.0826  0.9814
   29MOL   C21830514   6.742   5.009   3.090 -0.1568  0.1927 -0.0631
   29MOL   C21930515   6.864   5.002   3.161  0.1159 -0.4518  1.0774
   29MOL   C22030516   6.866   5.079   3.275  0.3349 -0.2998 -0.3337
   29MOL   C22130517   6.767   5.164   3.322  0.4074 -0.1632  0.4492
   29MOL   S22230518   6.762   5.268   3.472  0.0293 -0.0343 -0.1302
   29MOL   O22330519   6.798   5.170   3.575  0.1414 -0.0699 -0.6212
   29MOL   O22430520   6.642   5.345   3.479  0.2718 -0.2654 -0.3014
   29MOL   C22530521   6.893   5.395   3.453 -0.6829  0.1789 -0.7752
   29MOL   C22630522   6.917   5.497   3.547  1.1269  0.2701  0.1602
   29MOL   C22730523   7.025   5.591   3.532 -0.5936  0.7052 -0.2117
   29MOL   C22830524   7.112   5.585   3.420  0.4412 -0.3425  0.0914
   29MOL   O22930525   7.214   5.669   3.405 -0.0154  0.0437  0.0695
   29MOL   C23030526   7.335   5.613   3.438 -0.3540  0.0803  0.0137
   29MOL   C23130527   7.349   5.500   3.520 -0.6185  0.0224  0.4937
   29MOL   C23230528   7.480   5.451   3.556  0.8923  0.5950  0.0449
   29MOL   C23330529   7.593   5.517   3.494 -0.1574 -0.3670 -0.1186
   29MOL   C23430530   7.739   5.471   3.525  0.4467 -0.2306  0.2621
   29MOL   C23530531   7.844   5.533   3.434 -0.2762  0.1502 -0.7326
   29MOL   C23630532   7.764   5.525   3.667 -0.3694  0.0031 -0.9252
   29MOL   C23730533   7.754   5.317   3.516 -0.4070  0.8324  0.3242
   29MOL   C23830534   7.864   5.257   3.578 -0.0542 -0.2486 -0.2117
   29MOL   C23930535   7.892   5.118   3.555  0.0778 -0.2605 -0.2869
   29MOL   C24030536   7.792   5.042   3.497  0.0166 -0.0910  0.1864
   29MOL   O24130537   7.801   4.906   3.480 -0.1917 -0.4494 -0.2300
   29MOL   C24230538   7.679   5.101   3.439  0.4169 -0.5646 -0.2194
   29MOL   C24330539   7.666   5.242   3.438  0.2836 -0.2639 -0.5166
   29MOL   C24430540   7.576   5.625   3.408 -0.2174 -0.5277  0.0709
   29MOL   C24530541   7.447   5.675   3.386 -0.0784  0.1030  0.3362
   29MOL   C24630542   7.093   5.480   3.327 -0.6889 -0.0407 -0.5369
   29MOL   C24730543   6.976   5.398   3.339 -0.2748 -0.3626 -0.2648
   29MOL   C24830544   6.648   5.165   3.246 -0.0822 -0.0730  0.0875
   29MOL   C24930545   6.633   5.084   3.133  0.6857  0.4228  0.5678
   29MOL   H25030546   6.944   4.932   3.141  0.4334  0.3978 -0.6873
   29MOL   H25130547   6.954   5.072   3.338 -0.8265 -1.9494  1.1429
   29MOL   H25230548   6.852   5.525   3.629  0.4062 -0.3918 -0.1808
   29MOL   H25330549   7.044   5.667   3.606 -1.3694 -0.4303  1.1940
   29MOL   H25430550   7.262   5.456   3.565 -0.2193 -1.5005 -0.2016
   29MOL   H25530551   7.484   5.372   3.629 -0.6590  1.4254  1.0733
   29MOL   H25630552   7.827   5.507   3.329  1.0787  0.7726 -1.1152
   29MOL   H25730553   7.939   5.492   3.466 -0.8290 -1.7442 -1.4182
   29MOL   H25830554   7.862   5.638   3.453  0.3445 -0.8145  4.5181
   29MOL   H25930555   7.702   5.479   3.744 -0.6733 -0.5902 -1.5199
   29MOL   H26030556   7.867   5.501   3.695 -0.7484 -1.0097 -0.3386
   29MOL   H26130557   7.759   5.634   3.666  0.9147  0.0899 -0.1548
   29MOL   H26230558   7.929   5.308   3.648  1.7522 -1.2160 -1.1585
   29MOL   H26330559   7.973   5.061   3.597 -0.0413  1.5638  2.5762
   29MOL   H26430560   7.600   5.048   3.387  2.2185 -0.4136 -3.2424
   29MOL   H26530561   7.590   5.293   3.381  2.3989  1.9139 -1.4700
   29MOL   H26630562   7.658   5.670   3.355 -0.1110 -2.1552 -1.1814
   29MOL   H26730563   7.427   5.745   3.306  0.7384 -0.5285 -0.4316
   29MOL   H26830564   7.154   5.480   3.238 -1.1426 -2.4961 -0.8793
   29MOL   H26930565   6.956   5.327   3.260  1.4088 -1.4029  0.1984
   29MOL   H27030566   6.563   5.224   3.279  1.3341  1.7182  0.6230
   29MOL   H27130567   6.539   5.065   3.082  0.3935  1.0813  0.8558
   29MOL   C27230568   7.892   4.857   3.385  0.1784  0.5365 -0.2511
   29MOL   C27330569   7.986   4.759   3.424 -0.8250 -0.5247 -0.4341
   29MOL   C27430570   8.098   4.716   3.347  0.3635  0.1535 -0.0409
   29MOL   C27530571   8.123   4.781   3.223 -0.9934  0.3034 -0.3191
   29MOL   S27630572   0.017   4.747   3.132  0.3358 -0.2629 -0.1946
   29MOL   O27730573   8.246   4.800   2.996  1.0526 -0.1796 -0.0200
   29MOL   O27830574   0.053   4.605   3.139 -0.0016  0.3498  0.1071
   29MOL   C27930575   0.153   4.843   3.211 -0.3068  0.7518 -0.9014
   29MOL   C28030576   0.202   4.810   3.339  0.6707 -0.5642 -0.5699
   29MOL   C28130577   0.302   4.892   3.397  0.5176  0.7112 -0.6665
   29MOL   C28230578   0.340   5.006   3.334 -0.7202  0.4952 -0.9158
   29MOL   O28330579   0.430   5.080   3.403  0.6784  0.0259 -0.0546
   29MOL   C28430580   0.392   5.153   3.514 -0.7769 -0.0738 -0.1287
   29MOL   C28530581   0.372   5.099   3.642  0.1057 -0.2354  0.8412
   29MOL   C28630582   0.340   5.183   3.748  0.3072 -0.2977 -0.5677
   29MOL   C28730583   0.340   5.326   3.733 -0.8359 -0.2062 -0.0160
   29MOL   C28830584   0.312   5.408   3.859 -0.2099 -0.1365  0.4888
   29MOL   C28930585   0.433   5.384   3.956  0.5216 -0.2848 -0.0912
   29MOL   C29030586   0.300   5.561   3.834  0.8747  0.1159 -0.0269
   29MOL   C29130587   0.177   5.371   3.929 -0.1977  0.2759 -0.3703
   29MOL   C29230588   0.068   5.332   3.843 -0.1686  0.5758 -0.2389
   29MOL   C29330589   8.195   5.302   3.895 -0.4215 -0.3509 -0.1904
   29MOL   C29430590   8.182   5.301   4.037  0.0287  0.9555  0.4875
   29MOL   O29530591   8.055   5.297   4.091 -0.0479  0.3508 -0.0374
   29MOL   C29630592   0.037   5.340   4.124  0.2645  0.0230 -0.3708
   29MOL   C29730593   0.163   5.372   4.071  0.0942  0.6945  0.5419
   29MOL   C29830594   0.352   5.375   3.604 -0.6458 -0.1910 -0.2803
   29MOL   C29930595   0.372   5.289   3.493 -0.0232  0.1894 -0.5348
   29MOL   C30030596   0.306   5.039   3.200  0.6203 -0.1576  0.1018
   29MOL   C30130597   0.210   4.953   3.141  0.0804  0.2811 -0.0550
   29MOL   C30230598   8.025   4.871   3.175 -0.0755 -0.1884  0.0116
   29MOL   C30330599   7.912   4.903   3.256  0.0874 -1.0942  0.2821
   29MOL   H30430600   7.980   4.719   3.524 -1.1856 -2.3842 -1.1912
   29MOL   H30530601   8.170   4.647   3.388 -1.6565 -2.5582 -0.8789
   29MOL   H30630602   0.170   4.720   3.389  1.6121 -1.2971 -1.2655
   29MOL   H30730603   0.346   4.860   3.491  2.0860  1.4776 -1.1201
   29MOL   H30830604   0.368   4.991   3.651 -0.1926 -0.2994  0.0077
   29MOL   H30930605   0.326   5.143   3.847  3.3815 -1.0123 -0.3690
   29MOL   H31030606   0.433   5.280   3.987  0.5057 -0.1790  0.2686
   29MOL   H31130607   0.432   5.449   4.044  1.3475 -0.9532  0.4167
   29MOL   H31230608   0.521   5.416   3.901 -0.4399 -1.6990 -2.5124
   29MOL   H31330609   0.266   5.608   3.927 -1.5824 -1.7581  0.0770
   29MOL   H31430610   0.397   5.604   3.808  0.0716  0.9017 -1.7882
   29MOL   H31530611   0.226   5.581   3.757  0.6458  0.1061  0.1915
   29MOL   H31630612   0.082   5.328   3.736 -1.0676 -1.0405 -0.3165
   29MOL   H31730613   8.111   5.282   3.829 -0.9987 -0.1232  0.4690
   29MOL   H31830614   0.012   5.343   4.229 -1.5429 -0.1539 -0.7787
   29MOL   H31930615   0.247   5.398   4.134  1.2140  0.6437 -0.9176
   29MOL   H32030616   0.347   5.481   3.587 -3.3870 -0.3964 -0.8764
   29MOL   H32130617   0.384   5.328   3.393  1.6718 -1.5304 -1.0467
   29MOL   H32230618   0.344   5.127   3.151 -0.5503 -0.3583 -1.1925
   29MOL   H32330619   0.183   4.973   3.039 -1.2647 -2.1625 -0.2162
   29MOL   H32430620   8.043   4.919   3.080  3.4834  0.7211  1.0735
   29MOL   H32530621   7.846   4.981   3.221  0.8187 -0.5409  0.1163
   29MOL   C32630622   8.012   5.182   4.150  1.1811 -0.4157 -0.2722
   29MOL   C32730623   7.904   5.122   4.083  0.1330 -0.2539  0.5036
   29MOL   C32830624   7.828   5.027   4.147  0.2859  0.6767 -0.0078
   29MOL   C32930625   7.862   4.987   4.278 -0.1399  0.6492  0.0966
   29MOL   S33030626   7.775   4.850   4.355 -0.0894  0.3107  0.1546
   29MOL   O33130627   7.656   4.821   4.270 -0.0616 -0.3919  0.4825
   29MOL   O33230628   7.764   4.877   4.499 -0.2634 -0.0078 -0.2107
   29MOL   C33330629   7.884   4.709   4.333  0.4747  0.5906 -0.4834
   29MOL   C33430630   7.858   4.601   4.417  0.4140 -0.4988  0.5996
   29MOL   C33530631   7.934   4.487   4.402 -0.0118 -0.3076  0.4168
   29MOL   C33630632   8.048   4.478   4.313 -0.5578  0.1501 -0.2811
   29MOL   O33730633   8.130   4.367   4.325  0.0889 -0.2538 -0.3738
   29MOL   C33830634   0.013   4.387   4.346  0.2724 -0.0715 -0.8340
   29MOL   C33930635   0.058   4.424   4.473 -0.2728 -0.4408 -0.3596
   29MOL   C34030636   0.191   4.449   4.493  0.0119 -0.4404 -0.7362
   29MOL   C34130637   0.286   4.434   4.387 -0.5758 -0.4012  0.0705
   29MOL   C34230638   0.436   4.462   4.403  0.4005  0.0109 -0.2235
   29MOL   C34330639   0.493   4.359   4.505 -0.0867  0.2003  0.0482
   29MOL   C34430640   0.525   4.454   4.278  0.1838  0.1315  0.1700
   29MOL   C34530641   0.460   4.604   4.458 -0.1198  0.5084 -0.5008
   29MOL   C34630642   0.548   4.632   4.567 -0.7408  0.2382 -0.6566
   29MOL   C34730643   0.561   4.764   4.607 -0.2606  0.0576  0.0730
   29MOL   C34830644   0.491   4.870   4.546  0.3021  0.2190 -0.0480
   29MOL   O34930645   0.504   5.003   4.584  0.8236  0.2731 -0.1035
   29MOL   C35030646   0.412   4.843   4.431  0.8489 -0.1338 -0.1712
   29MOL   C35130647   0.397   4.708   4.386 -0.5419 -0.0147 -0.6467
   29MOL   C35230648   0.234   4.389   4.261 -0.1317  0.2013 -0.5718
   29MOL   C35330649   0.100   4.363   4.241  0.0234  0.5655 -0.0083
   29MOL   C35430650   8.076   4.592   4.236  0.4904  0.2166 -0.2159
   29MOL   C35530651   7.994   4.708   4.243 -0.0977 -0.1234  0.2947
   29MOL   C35630652   7.975   5.033   4.343  0.0758  0.1746  0.6359
   29MOL   C35730653   8.044   5.136   4.281 -0.7410 -1.1842  0.2030
   29MOL   H35830654   7.875   5.148   3.983  2.2463  0.2895  0.0127
   29MOL   H35930655   7.749   4.981   4.090 -0.1702  1.4632 -0.0249
   29MOL   H36030656   7.769   4.612   4.478 -0.3446 -1.5625 -0.2943
   29MOL   H36130657   7.906   4.410   4.472  0.4627 -0.7275  0.1465
   29MOL   H36230658   8.246   4.452   4.555  0.6124  2.3330 -0.5331
   29MOL   H36330659   0.215   4.499   4.585 -2.4370 -1.4544  0.4819
   29MOL   H36430660   0.599   4.353   4.528 -0.3902 -1.2517  1.1231
   29MOL   H36530661   0.468   4.260   4.467 -3.3228  1.0954 -0.3094
   29MOL   H36630662   0.435   4.367   4.597 -0.3870  2.2170 -0.2882
   29MOL   H36730663   0.525   4.360   4.224  1.6467 -0.1405  0.6215
   29MOL   H36830664   0.501   4.526   4.199 -0.7666 -0.5871 -0.2125
   29MOL   H36930665   0.629   4.471   4.304  0.5478 -1.6988 -0.0549
   29MOL   H37030666   0.592   4.552   4.625 -1.8795  0.1600  0.1299
   29MOL   H37130667   0.629   4.773   4.690  1.7012 -0.4994 -1.4563
   29MOL   H37230668   0.374   4.925   4.373  3.7654 -0.3710 -2.5006
   29MOL   H37330669   0.328   4.688   4.305 -0.4924 -0.5106 -0.5656
   29MOL   H37430670   0.307   4.350   4.191  1.4441 -0.5341  1.4262
   29MOL   H37530671   0.056   4.332   4.147 -0.1471  0.9872 -0.0650
   29MOL   H37630672   8.163   4.596   4.172  1.2786  1.5420  0.8971
   29MOL   H37730673   8.017   4.789   4.176 -1.7023  0.1916  0.0969
   29MOL   H37830674   8.001   4.991   4.440  1.4522 -1.8023 -0.5468
   29MOL   H37930675   8.118   5.189   4.339 -0.8146 -1.6866  0.7554
   29MOL   C38030676   0.463   5.049   4.712  0.7476 -0.3120  0.3767
   29MOL   C38130677   0.338   5.008   4.753  0.2038 -0.4461 -0.3575
   29MOL   C38230678   0.276   5.069   4.865 -0.3958 -0.8969 -0.5462
   29MOL   C38330679   0.342   5.175   4.933 -0.0714 -0.4140  0.2094
   29MOL   S38430680   0.271   5.255   5.077 -0.3658  0.3671  0.0110
   29MOL   O38530681   0.263   5.396   5.055  0.4607 -0.0723 -0.1256
   29MOL   O38630682   0.337   5.198   5.197  0.0774 -0.4655  0.0027
   29MOL   C38730683   0.101   5.188   5.076  0.2837 -0.2295 -0.3121
   29MOL   C38830684   0.005   5.246   4.989  0.2416 -0.2206  0.0058
   29MOL   C38930685   8.117   5.226   5.005 -0.4645 -0.2856  0.6403
   29MOL   C39030686   8.076   5.145   5.107  0.1527  0.8740  0.1575
   29MOL   O39130687   7.943   5.135   5.131 -0.6507 -1.0341  0.2622
   29MOL   C39230688   7.890   5.243   5.199 -0.1386  0.2132  0.6694
   29MOL   C39330689   7.877   5.231   5.342  0.3556 -0.6813 -0.8632
   29MOL   C39430690   7.834   5.352   5.406  0.2492 -0.2566  0.3135
   29MOL   C39530691   7.793   5.472   5.333 -0.6540  0.0351  0.6901
   29MOL   C39630692   7.727   5.596   5.399  0.1109  0.6741  0.2386
   29MOL   C39730693   7.697   5.575   5.546 -0.4666 -0.4192 -0.6633
   29MOL   C39830694   7.821   5.719   5.401 -0.6443  0.1376 -0.3686
   29MOL   C39930695   7.590   5.624   5.327  0.6417  0.1824 -0.7547
   29MOL   C40030696   7.574   5.728   5.235  0.0319  0.2672 -0.3422
   29MOL   C40130697   7.463   5.741   5.148  0.0200  0.4240 -0.1570
   29MOL   C40230698   7.369   5.639   5.154 -0.1039 -0.1641 -0.1031
   29MOL   O40330699   7.262   5.646   5.077 -0.7613 -0.1974  0.1178
   29MOL   C40430700   7.383   5.532   5.246  0.7886  0.7640 -1.0683
   29MOL   C40530701   7.486   5.526   5.335  0.0522  0.1404  0.0098
   29MOL   C40630702   7.811   5.470   5.196  0.4249  0.1921 -0.8588
   29MOL   C40730703   7.857   5.357   5.123  0.3481 -0.1838 -0.0539
   29MOL   C40830704   8.167   5.079   5.191 -0.2131  0.0525  0.7608
   29MOL   C40930705   0.051   5.107   5.178 -0.8075  0.2310  0.4732
   29MOL   C41030706   0.475   5.202   4.895 -0.2474 -0.1025 -0.0884
   29MOL   C41130707   0.533   5.145   4.781 -0.3068 -0.2082 -0.0604
   29MOL   H41230708   0.276   4.939   4.698  1.5773 -1.9763 -0.0152
   29MOL   H41330709   0.178   5.032   4.890 -1.1263  0.9605 -0.6061
   29MOL   H41430710   0.033   5.325   4.921  1.7422 -0.9647 -0.2817
   29MOL   H41530711   8.048   5.281   4.942 -0.2085 -0.4927  0.1737
   29MOL   H41630712   7.892   5.146   5.406 -0.9169 -0.5862 -0.4139
   29MOL   H41730713   7.815   5.348   5.513  1.2164  0.0730  0.5007
   29MOL   H41830714   7.630   5.649   5.589  0.1838  1.2358 -2.4226
   29MOL   H41930715   7.798   5.580   5.587  0.0381 -0.7035 -1.8561
   29MOL   H42030716   7.650   5.477   5.554  3.0603 -2.1597 -0.6173
   29MOL   H42130717   7.779   5.808   5.446  1.7895  1.2751 -0.2594
   29MOL   H42230718   7.911   5.691   5.456 -0.0910 -0.5134 -1.5761
   29MOL   H42330719   7.842   5.759   5.302  0.8209 -1.3003 -0.6538
   29MOL   H42430720   7.647   5.807   5.225  1.5609 -1.0801 -0.0487
   29MOL   H42530721   7.450   5.821   5.077 -2.0587 -0.8146 -1.2151
   29MOL   H42630722   7.315   5.448   5.257 -0.0848  1.6273  0.3127
   29MOL   H42730723   7.491   5.444   5.405 -3.8840  0.4332  0.7284
   29MOL   H42830724   7.781   5.554   5.134  1.9544  1.6635  0.3355
   29MOL   H42930725   7.863   5.365   5.016  0.1793  1.0204  0.0272
   29MOL   H43030726   8.122   5.023   5.272 -1.2145  0.3645  0.4164
   29MOL   H43130727   0.118   5.058   5.247 -1.1900 -2.3973 -0.9683
   29MOL   H43230728   0.514   5.288   4.947 -1.2504  1.3123 -1.6040
   29MOL   H43330729   0.626   5.184   4.741  0.2412 -0.2904  1.1128
   29MOL   C43430730   7.274   5.592   4.950 -0.7591  0.0895 -0.6764
   29MOL   C43530731   7.181   5.627   4.850 -0.6001  0.2210  0.0113
   29MOL   C43630732   7.193   5.580   4.719 -0.0165 -0.3439  0.3684
   29MOL   C43730733   7.307   5.505   4.681  0.4813 -0.6108  0.1196
   29MOL   S43830734   7.341   5.479   4.501 -0.2308 -0.1075 -0.0655
   29MOL   O43930735   7.218   5.434   4.443  0.0735 -0.5034  0.3178
   29MOL   O44030736   7.460   5.389   4.489  0.3083 -0.0673  0.5979
   29MOL   C44130737   7.387   5.642   4.454 -0.7771 -0.0130 -0.2537
   29MOL   C44230738   7.380   5.661   4.315 -0.1691 -0.3084  0.5806
   29MOL   C44330739   7.403   5.787   4.264 -0.8085  0.0096 -0.1976
   29MOL   C44430740   7.441   5.889   4.349 -0.1885 -0.5994  0.0601
   29MOL   O44530741   7.468   6.016   4.293 -0.1000  0.6938 -0.1040
   29MOL   C44630742   7.386   6.118   4.336 -0.0692 -0.5400 -0.4039
   29MOL   C44730743   7.448   6.240   4.375  0.5218 -0.0898  0.1267
   29MOL   C44830744   7.370   6.344   4.427  0.5854  0.6379  0.6046
   29MOL   C44930745   7.228   6.330   4.437 -0.3820 -0.0340  0.2816
   29MOL   C45030746   7.151   6.455   4.489  0.2938 -0.4379 -0.6757
   29MOL   C45130747   6.995   6.434   4.507 -0.2685 -0.1517 -0.2190
   29MOL   C45230748   7.217   6.508   4.621  0.7204  0.0329 -0.6216
   29MOL   C45330749   7.171   6.575   4.386  0.6636  0.1102  0.8037
   29MOL   C45430750   7.131   6.711   4.419 -0.6978  0.1901  0.4840
   29MOL   C45530751   7.132   6.816   4.326 -0.2779  0.1812  0.6902
   29MOL   C45630752   7.177   6.788   4.192 -0.8165  0.3928 -0.0297
   29MOL   O45730753   7.187   6.884   4.097  0.4618  0.3001 -0.2076
   29MOL   C45830754   7.213   6.660   4.153 -0.1973  0.4769 -0.0434
   29MOL   C45930755   7.210   6.557   4.250 -0.1690 -0.2203  0.3040
   29MOL   C46030756   7.165   6.213   4.394 -0.3846  0.0715  0.2495
   29MOL   C46130757   7.248   6.100   4.345 -0.3598  0.1615 -0.1511
   29MOL   C46230758   7.464   5.863   4.480 -0.0263  0.1206  0.4537
   29MOL   C46330759   7.433   5.736   4.535  0.0061 -0.1673 -0.3235
   29MOL   C46430760   7.406   5.473   4.778 -0.0284 -0.6515 -0.2192
   29MOL   C46530761   7.389   5.514   4.912  0.9339 -0.7455 -0.3871
   29MOL   H46630762   7.092   5.684   4.875 -0.0104  0.2211  2.2452
   29MOL   H46730763   7.114   5.607   4.649  0.6226  0.8103  0.0721
   29MOL   H46830764   7.347   5.586   4.245  1.3223 -0.8162  0.4063
   29MOL   H46930765   7.375   5.809   4.162 -4.4376 -0.8481  0.5366
   29MOL   H47030766   7.555   6.257   4.369  0.7216 -0.6431  1.8421
   29MOL   H47130767   7.426   6.433   4.452  0.7374  0.5964  0.4127
   29MOL   H47230768   6.982   6.343   4.567  0.6509 -1.7348 -2.3648
   29MOL   H47330769   6.944   6.418   4.412  0.7844  1.5549 -1.0867
   29MOL   H47430770   6.953   6.521   4.557 -0.3784  0.1539 -0.8422
   29MOL   H47530771   7.167   6.594   4.665  2.1694  0.7935 -0.4510
   29MOL   H47630772   7.210   6.434   4.701  2.0100  1.9220  1.2861
   29MOL   H47730773   7.322   6.534   4.611  0.0750  2.7828 -0.6442
   29MOL   H47830774   7.079   6.727   4.512 -0.2490  2.3476  0.3699
   29MOL   H47930775   7.102   6.917   4.350 -0.0094  0.5340 -0.4610
   29MOL   H48030776   7.241   6.636   4.051 -1.9410  0.1386 -0.4670
   29MOL   H48130777   7.237   6.458   4.217  0.8108  1.2269 -3.4366
   29MOL   H48230778   7.058   6.204   4.411 -0.1655  1.7261  2.7775
   29MOL   H48330779   7.200   6.008   4.315 -1.5537  0.4504  0.8387
   29MOL   H48430780   7.496   5.945   4.543 -0.6537 -0.3531  1.3941
   29MOL   H48530781   7.456   5.722   4.639 -1.3128  4.2935  0.6957
   29MOL   H48630782   7.486   5.408   4.746 -1.6913 -2.5853 -0.5394
   29MOL   H48730783   7.464   5.491   4.986  1.1650 -0.9897 -0.6961
   29MOL   C48830784   7.296   6.966   4.112  0.5393  0.2827  0.1351
   29MOL   C48930785   7.294   7.090   4.187  0.0679  0.3239 -0.4062
   29MOL   C49030786   7.412   7.164   4.195  0.4403  0.2232  0.1523
   29MOL   C49130787   7.526   7.120   4.125  0.7547  0.5926  0.5818
   29MOL   S49230788   7.663   7.224   4.125 -0.0439  0.2979  0.4958
   29MOL   O49330789   7.613   7.365   4.146 -0.0546 -0.1867 -0.6478
   29MOL   O49430790   7.757   7.192   4.016 -0.8721  0.1840  0.4298
   29MOL   C49530791   7.730   7.177   4.275  0.5836  0.5495 -1.2331
   29MOL   C49630792   7.800   7.060   4.289  1.0249  0.0335  0.3347
   29MOL   C49730793   7.854   7.017   4.411 -0.3133  1.0945 -0.0946
   29MOL   C49830794   7.845   7.104   4.525 -0.0327  0.4791 -0.1663
   29MOL   O49930795   7.907   7.065   4.636  0.2147  0.0890  0.1722
   29MOL   C50030796   7.822   6.992   4.714 -1.0140  0.0812  0.5541
   29MOL   C50130797   7.837   6.855   4.714 -0.1877  0.5062 -0.3680
   29MOL   C50230798   7.758   6.780   4.804 -0.2524 -0.1026 -0.4290
   29MOL   C50330799   7.647   6.833   4.874  0.1732 -0.2388  0.4012
   29MOL   C50430800   7.564   6.740   4.963  0.2436 -0.4109 -0.1969
   29MOL   C50530801   7.464   6.817   5.051  0.2433  0.0205  0.8748
   29MOL   C50630802   7.470   6.655   4.866 -0.6190 -0.9024 -0.1172
   29MOL   C50730803   7.651   6.647   5.052 -0.0640 -0.2807  0.6392
   29MOL   C50830804   7.595   6.525   5.096  0.1005 -0.8611 -0.0730
   29MOL   C50930805   7.681   6.433   5.166  1.0056 -0.3966  0.5924
   29MOL   C51030806   7.809   6.473   5.217 -0.0064  0.8458 -0.0335
   29MOL   O51130807   7.874   6.407   5.320  0.0744 -0.1261 -0.1287
   29MOL   C51230808   7.862   6.595   5.167  0.6207 -0.3838  0.2955
   29MOL   C51330809   7.777   6.690   5.095 -0.1845  0.4006  0.7629
   29MOL   C51430810   7.627   6.972   4.863 -0.2897  0.0540 -0.1925
   29MOL   C51530811   7.717   7.050   4.786 -0.1986 -0.2916 -0.0878
   29MOL   C51630812   7.772   7.225   4.510 -0.0374 -0.4733 -0.7323
   29MOL   C51730813   7.720   7.261   4.386 -0.3807 -0.3965 -0.1627
   29MOL   C51830814   7.535   7.000   4.055  0.4337  0.5836  0.3144
   29MOL   C51930815   7.411   6.932   4.036  0.1496  0.3784  0.3122
   29MOL   H52030816   7.204   7.119   4.239 -0.0570  1.3248 -1.1762
   29MOL   H52130817   7.412   7.257   4.250 -3.1978  1.2882 -1.4395
   29MOL   H52230818   7.821   6.994   4.206 -1.2233  0.0179 -0.2603
   29MOL   H52330819   7.900   6.920   4.423 -3.5109 -0.5819 -0.9259
   29MOL   H52430820   7.919   6.804   4.665 -0.5701  1.0712 -1.5992
   29MOL   H52530821   7.786   6.676   4.818 -1.6096 -0.0042  3.7466
   29MOL   H52630822   7.398   6.872   4.984  0.8862  0.8493  0.9149
   29MOL   H52730823   7.515   6.894   5.109 -0.3858  1.1807 -0.0866
   29MOL   H52830824   7.406   6.750   5.115  0.5055 -1.7690 -0.7347
   29MOL   H52930825   7.525   6.567   4.833 -0.4988 -0.5842 -0.7778
   29MOL   H53030826   7.384   6.615   4.920  0.2200 -0.7745  1.3368
   29MOL   H53130827   7.425   6.710   4.784 -1.2066 -0.4255  0.5225
   29MOL   H53230828   7.495   6.490   5.076 -1.1716  1.7032  1.4691
   29MOL   H53330829   7.648   6.333   5.185 -1.1297 -0.5751 -3.4563
   29MOL   H53430830   7.956   6.639   5.197 -0.1226 -0.1661  2.3787
   29MOL   H53530831   7.824   6.786   5.084 -0.5685  0.7439  2.0517
   29MOL   H53630832   7.556   7.028   4.922 -0.0804  2.0019 -1.7267
   29MOL   H53730833   7.713   7.157   4.791  1.1210 -0.2617  0.5300
   29MOL   H53830834   7.766   7.298   4.589  0.1898 -2.8013  1.5222
   29MOL   H53930835   7.667   7.355   4.383 -1.5487 -1.0342  0.1863
   29MOL   H54030836   7.630   6.961   4.023  0.7088  1.5610 -0.0646
   29MOL   H54130837   7.411   6.842   3.975  0.6151  2.6379 -3.1388
   29MOL   C54230838   7.801   6.401   5.432  0.4624 -0.1316 -0.1011
   29MOL   C54330839   7.710   6.292   5.450 -0.0291 -0.1941 -0.2129
   29MOL   C54430840   7.626   6.280   5.565  0.7017 -0.2230 -0.8970
   29MOL   C54530841   7.647   6.372   5.671 -0.0545  0.2168 -0.4818
   29MOL   S54630842   7.552   6.356   5.825  0.1901  0.0644 -0.1421
   29MOL   O54730843   7.575   6.479   5.896 -0.1494 -0.3531 -1.0366
   29MOL   O54830844   7.582   6.225   5.884 -0.5456  0.4341 -0.3355
   29MOL   C54930845   7.375   6.352   5.780 -0.1924 -0.3127  0.1189
   29MOL   C55030846   7.290   6.265   5.850 -0.1199 -0.1490  1.2052
   29MOL   C55130847   7.152   6.252   5.802 -0.4220  0.2192  0.0943
   29MOL   C55230848   7.109   6.321   5.689  0.5898 -0.5676 -0.0811
   29MOL   O55330849   6.980   6.305   5.646  0.1241 -0.4640  0.5191
   29MOL   C55430850   6.882   6.369   5.721 -0.1299 -0.0516  0.1876
   29MOL   C55530851   6.896   6.484   5.801 -0.2297  0.2991  0.1558
   29MOL   C55630852   6.790   6.548   5.865  0.6131  0.0531  0.1265
   29MOL   C55730853   6.658   6.499   5.851  0.0690  0.6760 -0.1785
   29MOL   C55830854   6.532   6.562   5.909 -0.0576  1.0383  0.5259
   29MOL   C55930855   6.580   6.643   6.029 -0.1427 -0.6239 -0.9344
   29MOL   C56030856   6.479   6.656   5.801 -0.0408 -0.0018  0.1725
   29MOL   C56130857   6.430   6.463   5.967  0.1105  0.7917 -0.2040
   29MOL   C56230858   6.471   6.350   6.041 -0.2034  0.8796  0.2273
   29MOL   C56330859   6.377   6.272   6.108  0.3590 -0.1444  0.0333
   29MOL   C56430860   6.242   6.305   6.105 -0.1579  0.5471  0.1594
   29MOL   O56530861   6.165   6.240   6.190  0.3234  0.7740 -0.3144
   29MOL   C56630862   6.198   6.408   6.021  0.0504  0.5907 -0.1188
   29MOL   C56730863   6.293   6.495   5.956  0.0835 -0.0680  0.0466
   29MOL   C56830864   6.642   6.382   5.767 -0.1503  0.9585  0.4045
   29MOL   C56930865   6.750   6.321   5.703 -0.0536 -0.3655  0.7442
   29MOL   C57030866   7.192   6.415   5.626 -0.2256  0.0442  0.3966
   29MOL   C57130867   7.326   6.424   5.673 -0.1250  0.2386  0.2914
   29MOL   C57230868   7.736   6.481   5.660 -0.3600  0.5364 -0.6975
   29MOL   C57330869   7.812   6.502   5.540  0.2916  0.2810 -0.0695
   29MOL   H57430870   7.691   6.226   5.367 -1.3783 -0.4482  0.2856
   29MOL   H57530871   7.553   6.201   5.571  2.7980 -2.1964 -1.0173
   29MOL   H57630872   7.329   6.208   5.933 -0.7049 -1.0502  0.8652
   29MOL   H57730873   7.084   6.181   5.847  0.0006 -1.6105 -2.0514
   29MOL   H57830874   6.991   6.516   5.842 -0.0278  1.9092 -1.5215
   29MOL   H57930875   6.815   6.628   5.933  0.1796  1.7955 -1.7168
   29MOL   H58030876   6.483   6.672   6.070 -0.2124  1.1182 -2.2400
   29MOL   H58130877   6.642   6.731   6.010  1.5416 -1.7879 -0.8272
   29MOL   H58230878   6.630   6.585   6.107 -2.3014  1.0127  1.7913
   29MOL   H58330879   6.408   6.605   5.736  2.0968 -1.8394 -0.7689
   29MOL   H58430880   6.432   6.740   5.852 -0.8110  0.4057 -1.1733
   29MOL   H58530881   6.562   6.695   5.741  0.1190  1.8271  1.5082
   29MOL   H58630882   6.575   6.319   6.047 -0.4345  0.2047  0.8843
   29MOL   H58730883   6.407   6.187   6.167  1.7582  0.6328  0.4733
   29MOL   H58830884   6.095   6.436   6.033  0.5175  2.2740  0.1557
   29MOL   H58930885   6.246   6.586   5.922  0.4080 -0.1855 -0.7222
   29MOL   H59030886   6.542   6.342   5.758  0.4357 -0.9477  1.9123
   29MOL   H59130887   6.736   6.231   5.645  3.6255 -1.9360  2.1383
   29MOL   H59230888   7.155   6.467   5.540  0.9463  1.1923  0.5659
   29MOL   H59330889   7.395   6.481   5.612  0.4566 -1.6163 -0.8171
   29MOL   H59430890   7.745   6.543   5.748  2.6176  1.8214 -1.8342
   29MOL   H59530891   7.875   6.590   5.530 -0.6838  1.0726  0.6691
   29MOL   C59630892   6.127   6.315   6.299  0.1264  0.0371 -0.5372
   29MOL   C59730893   6.001   6.373   6.300  0.1887 -0.0288 -0.3164
   29MOL   C59830894   5.956   6.457   6.406  0.2390 -0.8786 -0.8623
   29MOL   C59930895   6.043   6.482   6.511  1.2232  0.4788 -0.6691
   29MOL   S60030896   5.986   6.581   6.644 -0.2282  0.5295  0.0429
   29MOL   O60130897   5.845   6.555   6.665  0.3623  0.0909 -0.3505
   29MOL   O60230898   6.042   6.716   6.626 -0.3384 -0.6691  0.4465
   29MOL   C60330899   6.057   6.517   6.793  0.6908 -0.4966  0.5902
   29MOL   C60430900   5.988   6.412   6.854 -0.2836 -0.0366 -0.5855
   29MOL   C60530901   6.036   6.371   6.983 -0.9083 -0.1370 -0.2652
   29MOL   C60630902   6.139   6.438   7.048 -0.2481  0.0516  0.1710
   29MOL   O60730903   6.180   6.399   7.176  0.1843  0.4399 -0.3279
   29MOL   C60830904   6.154   6.488   7.277  0.2299  0.1184 -0.0012
   29MOL   C60930905   6.245   6.592   7.307 -0.3170 -0.0106  0.7220
   29MOL   C61030906   6.211   6.696   7.394  0.2773 -0.6167 -0.3063
   29MOL   C61130907   6.085   6.690   7.456  0.1610  0.4190  0.2421
   29MOL   C61230908   6.049   6.805   7.552  0.0267  0.1257 -0.1224
   29MOL   C61330909   5.904   6.807   7.604  0.4939 -0.0816 -0.2534
   29MOL   C61430910   6.134   6.787   7.680 -0.1821 -0.0998 -0.8342
   29MOL   C61530911   6.073   6.942   7.479  0.4907 -0.0522  0.4980
   29MOL   C61630912   6.016   6.966   7.353  0.1823 -0.3601 -0.8150
   29MOL   C61730913   6.044   7.089   7.288 -0.8165  0.8403  0.0576
   29MOL   C61830914   6.111   7.193   7.348  0.1861 -0.9395  0.2401
   29MOL   O61930915   6.124   7.309   7.271  0.4116 -0.4650  0.3700
   29MOL   C62030916   6.162   7.175   7.478 -0.6865 -0.0551 -0.1657
   29MOL   C62130917   6.141   7.051   7.543 -0.4140  0.2381  0.2197
   29MOL   C62230918   5.994   6.582   7.427 -0.6677  0.6067 -0.1699
   29MOL   C62330919   6.029   6.478   7.341  0.3791 -0.1824 -0.5331
   29MOL   C62430920   6.214   6.528   6.975  0.3108 -0.4350  0.6369
   29MOL   C62530921   6.172   6.573   6.851  0.6383  0.3353  0.1395
   29MOL   C62630922   6.176   6.429   6.507  0.2864 -1.0782  0.2117
   29MOL   C62730923   6.218   6.342   6.407  0.0308  0.5899 -0.4058
   29MOL   H62830924   5.934   6.355   6.217  1.0090 -0.4452 -0.8960
   29MOL   H62930925   5.858   6.502   6.400  0.7022  0.4838  1.3584
   29MOL   H63030926   5.904   6.356   6.814 -0.2488 -0.7917  0.3648
   29MOL   H63130927   5.983   6.304   7.050  0.4274  0.0200  0.9683
   29MOL   H63230928   6.340   6.596   7.257 -0.3539  2.3231  0.7725
   29MOL   H63330929   6.281   6.777   7.403 -0.5775  0.2355 -1.1654
   29MOL   H63430930   5.844   6.796   7.514  1.1053 -1.2754 -0.5343
   29MOL   H63530931   5.870   6.898   7.652  0.1144 -0.6704  0.6077
   29MOL   H63630932   5.872   6.730   7.674 -2.0794  0.1741 -1.1257
   29MOL   H63730933   6.109   6.687   7.716 -0.0513 -0.1150 -0.7848
   29MOL   H63830934   6.240   6.796   7.659 -0.4976  0.4005 -2.2614
   29MOL   H63930935   6.098   6.863   7.748  2.0550  0.3900 -0.1803
   29MOL   H64030936   5.970   6.877   7.313  1.6878 -2.3929  1.7808
   29MOL   H64130937   6.007   7.103   7.187  2.3410  1.4711 -1.0734
   29MOL   H64230938   6.213   7.250   7.536 -2.6206 -0.4073  2.0593
   29MOL   H64330939   6.189   7.034   7.638  0.6291  1.8964  0.0083
   29MOL   H64430940   5.897   6.592   7.473 -1.8047 -0.2493 -2.3070
   29MOL   H64530941   5.961   6.399   7.313 -0.5408  0.8174 -1.1417
   29MOL   H64630942   6.302   6.573   7.018  0.9319 -1.4872  0.4880
   29MOL   H64730943   6.221   6.656   6.803  1.8200  0.1449  1.0057
   29MOL   H64830944   6.251   6.448   6.583  0.0264  0.9235  0.0100
   29MOL   H64930945   6.323   6.315   6.410 -0.7759 -2.8375 -0.8947
   29MOL   C65030946   6.232   7.389   7.292  0.1811  0.3642  0.6214
   29MOL   C65130947   6.225   7.511   7.367  0.3148 -0.5878 -0.1466
   29MOL   C65230948   6.331   7.595   7.386 -0.0352 -0.0122  0.0259
   29MOL   C65330949   6.455   7.561   7.328  0.1301  0.1688  0.6108
   29MOL   S65430950   6.586   7.684   7.347 -0.1965  0.2919 -0.1985
   29MOL   O65530951   6.537   7.815   7.311 -0.2677  0.1239 -0.1583
   29MOL   O65630952   6.706   7.634   7.273 -0.8911  0.2448 -0.2865
   29MOL   C65730953   6.605   7.678   7.523  0.1821 -0.5481 -0.5370
   29MOL   C65830954   6.583   7.795   7.598 -0.1610 -0.0650  0.2353
   29MOL   C65930955   6.590   7.785   7.743  1.0723 -0.1547  1.0600
   29MOL   C66030956   6.627   7.662   7.800 -0.8612 -0.2019  0.5982
   29MOL   O66130957   6.638   7.653   7.938  0.3569 -0.1439 -0.1470
   29MOL   C66230958   6.518   7.626   8.003 -0.1260 -0.1804 -0.0510
   29MOL   C66330959   6.487   7.490   8.031  0.3755  0.1852 -0.3567
   29MOL   C66430960   6.357   7.460   8.084 -0.1553 -0.9480 -0.3289
   29MOL   C66530961   6.265   7.566   8.117  0.3456  1.0615  1.3090
   29MOL   C66630962   6.126   7.533   8.179 -0.7094  0.6793 -0.7551
   29MOL   C66730963   6.048   7.655   8.218 -0.1413  0.1350  0.1846
   29MOL   C66830964   6.035   7.462   8.069  0.0867 -0.4312  0.0175
   29MOL   C66930965   6.139   7.441   0.051  0.4135 -0.1730 -0.4565
   29MOL   C67030966   6.219   7.476   0.160  0.2481  0.6896  0.0634
   29MOL   C67130967   6.230   7.393   0.272  0.0839  0.8768 -0.0611
   29MOL   C67230968   6.145   7.276   0.271 -0.4032 -0.2593 -0.4776
   29MOL   O67330969   6.141   7.194   0.375  0.3391  0.0601  0.2033
   29MOL   C67430970   6.076   7.231   0.158 -0.7439 -0.0281  0.4653
   29MOL   C67530971   6.069   7.317   0.048 -0.5552  0.4571  0.4077
   29MOL   C67630972   6.310   7.697   8.106 -0.4932  0.1438  0.8613
   29MOL   C67730973   6.434   7.730   8.045  0.1397  0.1971 -0.0869
   29MOL   C67830974   6.656   7.553   7.724  0.8645 -0.3126  0.6292
   29MOL   C67930975   6.642   7.557   7.581 -0.8390 -0.0903 -0.3826
   29MOL   C68030976   6.473   7.436   7.261  0.2889 -0.1759  0.1653
   29MOL   C68130977   6.358   7.365   7.230  0.2128  0.9086 -0.9629
   29MOL   H68230978   6.130   7.536   7.411  0.9119  2.6912 -0.5839
   29MOL   H68330979   6.317   7.688   7.438  0.6901  1.2821 -2.0108
   29MOL   H68430980   6.553   7.880   7.539  2.2102  0.7355  0.1261
   29MOL   H68530981   6.563   7.873   7.800  0.7349  0.0888  0.5297
   29MOL   H68630982   6.551   7.412   7.992 -1.5175 -0.5566 -2.0582
   29MOL   H68730983   6.342   7.362   8.127 -0.0166  0.4218  3.0321
   29MOL   H68830984   5.946   7.646   8.253 -1.3116  4.4253 -1.7414
   29MOL   H68930985   6.049   7.731   8.139  0.3750  0.5973  0.6336
   29MOL   H69030986   6.100   7.704   0.047 -1.5198  0.3263  0.9504
   29MOL   H69130987   6.082   7.369   8.036 -0.8159 -0.9131  0.0855
   29MOL   H69230988   5.930   7.442   8.089  0.1347 -1.5211 -0.7699
   29MOL   H69330989   6.042   7.517   7.975  0.3516  1.1516  0.9526
   29MOL   H69430990   6.263   7.575   0.159 -1.4566  1.4660  0.7052
   29MOL   H69530991   6.292   7.410   0.358  0.1258 -0.7014  0.2511
   29MOL   H69630992   6.029   7.134   0.155  2.7674 -1.7022 -2.6479
   29MOL   H69730993   6.009   7.285   8.217  1.8019  0.3933 -1.3000
   29MOL   H69830994   6.242   7.779   8.126 -1.0266  0.1882 -1.0345
   29MOL   H69930995   6.452   7.833   8.017  0.0291 -0.1771 -1.5441
   29MOL   H70030996   6.672   7.458   7.774 -0.8336 -0.8667  0.1477
   29MOL   H70130997   6.665   7.471   7.519 -1.1163 -0.1529 -0.3977
   29MOL   H70230998   6.565   7.407   7.212 -0.6050 -1.5286 -0.7344
   29MOL   H70330999   6.374   7.275   7.172 -0.4251  0.5448 -0.5727
   29MOL   C70431000   6.051   7.224   0.476 -0.7865  0.3583 -0.5504
   29MOL   C70531001   6.090   7.295   0.594  0.1825  0.4488 -0.1590
   29MOL   C70631002   5.998   7.332   0.692  0.4301 -0.2357  0.1826
   29MOL   C70731003   5.864   7.301   0.672  1.0611 -0.6095 -0.1826
   29MOL   S70831004   5.743   7.344   0.793 -0.2511 -0.0606  0.1099
   29MOL   O70931005   5.789   7.464   0.864  1.1512 -0.5060 -0.4612
   29MOL   O71031006   5.730   7.225   0.877  0.1040 -0.1565  0.0788
   29MOL   C71131007   5.581   7.384   0.725  0.4627 -0.6111 -0.4224
   29MOL   C71231008   5.571   7.449   0.604 -0.1072 -0.2112 -0.2337
   29MOL   C71331009   5.444   7.480   0.556 -0.4326 -0.1508 -0.0378
   29MOL   C71431010   5.327   7.460   0.621  0.0050 -0.0739  0.1935
   29MOL   O71531011   5.207   7.501   0.571  0.1390 -0.1830  0.2260
   29MOL   C71631012   5.152   7.429   0.466  0.1558  0.0236 -0.2420
   29MOL   C71731013   5.064   7.321   0.499  0.1652  0.0753 -0.5053
   29MOL   C71831014   5.001   7.243   0.399  0.3670 -0.5388  0.2336
   29MOL   C71931015   5.026   7.270   0.264 -0.9574  0.5381 -0.1125
   29MOL   C72031016   4.953   7.192   0.153 -0.1687  0.2554 -0.6689
   29MOL   C72131017   4.815   7.252   0.132 -0.1562  0.1307 -0.4203
   29MOL   C72231018   5.030   7.210   0.015  0.3970  0.4752  0.3723
   29MOL   C72331019   4.943   7.039   0.186 -0.6260 -0.0628  0.4232
   29MOL   C72431020   5.059   6.956   0.182 -0.3851 -0.4715  0.0249
   29MOL   C72531021   5.057   6.828   0.238  0.4759 -0.0591  0.0314
   29MOL   C72631022   4.938   6.770   0.289 -0.3583 -0.0845 -0.8068
   29MOL   O72731023   4.926   6.635   0.327  0.1009  0.5880 -0.2552
   29MOL   C72831024   4.820   6.846   0.284 -0.1211  0.8376 -0.3163
   29MOL   C72931025   4.825   6.974   0.228 -0.6325 -0.1761  0.2102
   29MOL   C73031026   5.102   7.386   0.236  0.2786 -0.0233  0.2096
   29MOL   C73131027   5.160   7.471   0.333 -0.9944 -0.0957 -0.3430
   29MOL   C73231028   5.335   7.407   0.757 -0.4424 -0.0599 -0.1300
   29MOL   C73331029   5.466   7.379   0.808 -0.9574 -0.5551  0.3057
   29MOL   C73431030   5.823   7.225   0.563  0.0134  1.1114 -0.1390
   29MOL   C73531031   5.916   7.185   0.467  0.4899 -0.6807 -1.0036
   29MOL   H73631032   6.196   7.300   0.617  0.4265 -0.9420 -0.9338
   29MOL   H73731033   6.027   7.371   0.788  2.7675 -0.9083 -0.2365
   29MOL   H73831034   5.656   7.476   0.543  0.3755  0.3824  0.6983
   29MOL   H73931035   5.442   7.516   0.454 -1.7758  0.4134  0.1778
   29MOL   H74031036   5.044   7.296   0.602 -1.5821 -1.6581 -1.2402
   29MOL   H74131037   4.938   7.161   0.428 -0.2086 -0.4978 -0.8949
   29MOL   H74231038   4.761   7.190   0.061  0.4398  0.4169 -1.1250
   29MOL   H74331039   4.837   7.353   0.098  0.9738 -0.0722 -0.2926
   29MOL   H74431040   4.754   7.272   0.221  0.2234  3.5656 -0.8425
   29MOL   H74531041   5.021   7.314   8.237  0.6231  1.1479  2.4876
   29MOL   H74631042   5.138   7.197   0.027  0.4283 -0.2267 -0.5600
   29MOL   H74731043   4.996   7.146   8.187 -1.6500 -0.4153  1.9102
   29MOL   H74831044   5.157   6.993   0.156 -1.1500  1.3433 -0.4302
   29MOL   H74931045   5.149   6.772   0.248  0.1110 -0.2983  2.3717
   29MOL   H75031046   4.724   6.806   0.314 -0.4524  2.2704  0.5255
   29MOL   H75131047   4.733   7.030   0.226  0.1501  1.0647 -1.3229
   29MOL   H75231048   5.115   7.410   0.131  0.2489 -0.6027  0.0737
   29MOL   H75331049   5.216   7.560   0.308 -0.5371 -0.6180 -1.1948
   29MOL   H75431050   5.243   7.394   0.813  0.4583  0.4425  1.5154
   29MOL   H75531051   5.472   7.347   0.911 -0.6274 -0.9239  0.1728
   29MOL   H75631052   5.722   7.188   0.558  0.5467 -1.1896  3.6975
   29MOL   H75731053   5.876   7.136   0.380 -0.4021 -1.2173 -0.3052
   29MOL   C75831054   5.002   6.546   0.256  0.6683 -0.8614  0.8898
   29MOL   C75931055   5.103   6.475   0.322  0.0372 -0.9128  0.3956
   29MOL   C76031056   5.190   6.401   0.245 -0.6600  0.0847  0.2649
   29MOL   C76131057   5.174   6.397   0.103  0.1885 -0.4923 -0.2600
   29MOL   S76231058   5.296   6.311   0.005  0.1780 -0.2236 -0.0725
   29MOL   O76331059   5.260   6.321   8.116  0.4462  0.3459  0.4904
   29MOL   O76431060   5.310   6.176   0.065 -0.5864  0.3282 -0.5595
   29MOL   C76531061   5.450   6.398   0.030  0.1394  0.2683 -0.6498
   29MOL   C76631062   5.456   6.540   0.030  0.6364 -0.1364 -0.2411
   29MOL   C76731063   5.575   6.612   0.049  0.5754 -0.0564 -0.0532
   29MOL   C76831064   5.692   6.537   0.063  0.2899  0.4398  0.0642
   29MOL   O76931065   5.805   6.605   0.093  0.2955 -0.3154  0.3632
   29MOL   C77031066   5.924   6.594   0.015  0.0992  0.2666 -0.3662
   29MOL   C77131067   5.938   6.528   8.149 -0.2018  0.2350 -0.2208
   29MOL   C77231068   6.059   6.523   8.075  0.3764 -0.2775 -0.6401
   29MOL   C77331069   6.176   6.579   8.137 -0.0158 -0.2761  0.4508
   29MOL   C77431070   6.311   6.568   8.071  0.0702 -0.3056  0.0083
   29MOL   C77531071   6.323   6.448   7.978  0.0001 -0.2763 -0.4679
   29MOL   C77631072   6.329   6.705   7.991  0.0913  0.5801  0.1403
   29MOL   C77731073   6.412   6.552   8.183 -0.6667  0.8857 -0.7193
   29MOL   C77831074   6.533   6.627   8.186  0.7629 -0.1070 -0.7657
   29MOL   C77931075   6.630   6.609   0.033  0.5035 -0.1225  0.2100
   29MOL   C78031076   6.607   6.516   0.140 -0.1769  0.3944 -0.2752
   29MOL   O78131077   6.694   6.514   0.250  0.2295  0.3142 -0.5351
   29MOL   C78231078   6.495   6.436   0.133 -0.1676 -0.0479  0.2250
   29MOL   C78331079   6.392   6.456   0.033 -0.3850 -0.6884  0.3076
   29MOL   C78431080   6.159   6.654   0.002  0.1781 -0.0775 -0.3300
   29MOL   C78531081   6.037   6.650   0.074 -0.5367  0.3910 -0.2533
   29MOL   C78631082   5.690   6.394   0.061  0.1339 -0.4164  0.3184
   29MOL   C78731083   5.570   6.323   0.043 -0.1613  0.1488  0.2838
   29MOL   C78831084   5.065   6.460   0.042  0.0219 -0.2090 -0.5497
   29MOL   C78931085   4.972   6.529   0.119 -0.0156  0.3812 -0.4286
   29MOL   H79031086   5.116   6.481   0.429 -3.5589  0.6596  0.8217
   29MOL   H79131087   5.269   6.342   0.289 -0.2215  1.2948  1.1193
   29MOL   H79231088   5.362   6.592   0.020  1.2112  0.6480 -1.7702
   29MOL   H79331089   5.562   6.719   0.045  0.5366 -0.0289  0.7882
   29MOL   H79431090   5.852   6.489   8.096  0.7673  1.2543 -2.6031
   29MOL   H79531091   6.072   6.467   7.983  1.8445  0.7169 -1.0586
   29MOL   H79631092   6.426   6.443   7.942 -0.6062  0.9364 -2.4655
   29MOL   H79731093   6.273   6.464   7.882  1.7369 -0.4346 -1.4252
   29MOL   H79831094   6.289   6.350   8.013 -2.9659  0.9772  0.2156
   29MOL   H79931095   6.251   6.726   7.918 -1.3549  0.3548  1.6063
   29MOL   H80031096   6.331   6.775   8.075  0.4657 -0.1395  0.7337
   29MOL   H80131097   6.425   6.711   7.940  0.1476 -0.1307  0.1539
   29MOL   H80231098   6.542   6.709   8.115  0.2632  0.4202 -0.2260
   29MOL   H80331099   6.709   6.682   0.042  0.6018 -0.5555  3.4679
   29MOL   H80431100   6.481   6.362   0.210 -0.1016  0.8059  1.0630
   29MOL   H80531101   6.302   6.396   0.041 -0.2919 -0.4755  3.6261
   29MOL   H80631102   6.241   6.696   0.058  0.9295  0.9838 -2.1747
   29MOL   H80731103   6.029   6.701   0.168  1.9653  1.3386 -0.5235
   29MOL   H80831104   5.780   6.337   0.081  0.5411  0.5166  1.1973
   29MOL   H80931105   5.576   6.216   0.054  2.1239  0.2594  0.4068
   29MOL   H81031106   5.055   6.451   8.188  0.3703  1.2361 -0.7059
   29MOL   H81131107   4.898   6.596   0.078 -0.0870  0.8626  0.4886
   29MOL   C81231108   6.645   6.494   0.379  0.5533 -0.6116 -0.3636
   29MOL   C81331109   6.686   6.386   0.459  0.1718  0.3833  0.1961
   29MOL   C81431110   6.634   6.367   0.588 -0.0380  0.0696 -0.2375
   29MOL   C81531111   6.538   6.459   0.638 -0.4022 -0.1475 -0.5354
   29MOL   S81631112   6.456   6.426   0.800  0.3877 -0.2900 -0.0208
   29MOL   O81731113   6.482   6.285   0.835  0.1420  0.2870 -0.2831
   29MOL   O81831114   6.318   6.478   0.792  0.2669  0.8768  0.5635
   29MOL   C81931115   6.542   6.522   0.918  0.2185 -0.5188 -0.1960
   29MOL   C82031116   6.544   6.467   1.048 -0.4819  0.5379  0.3509
   29MOL   C82131117   6.609   6.536   1.148  0.2386  0.4386 -0.4072
   29MOL   C82231118   6.671   6.661   1.126  0.1336  0.3582  0.5652
   29MOL   O82331119   6.727   6.717   1.240 -0.3185 -0.0705 -0.5253
   29MOL   C82431120   6.856   6.673   1.276  0.3194  0.3622 -0.5388
   29MOL   C82531121   6.919   6.560   1.216  0.3603  0.0619  0.7544
   29MOL   C82631122   7.048   6.511   1.263 -0.1984  0.3105  0.6816
   29MOL   C82731123   7.100   6.564   1.386  0.2129  0.1250 -0.7162
   29MOL   C82831124   7.233   6.509   1.439 -0.4093  0.3572  0.2959
   29MOL   C82931125   7.201   6.467   1.582 -0.3042 -0.4004  0.1791
   29MOL   C83031126   7.281   6.377   1.374 -0.2993 -0.0680 -0.8284
   29MOL   C83131127   7.344   6.612   1.426 -0.4622 -1.0558  1.0733
   29MOL   C83231128   7.426   6.644   1.532  0.3789  0.6067  0.2000
   29MOL   C83331129   7.541   6.724   1.509 -0.1251 -0.2501  0.3751
   29MOL   C83431130   7.561   6.785   1.381 -0.6583 -0.1540  0.1696
   29MOL   O83531131   7.662   6.877   1.360 -0.0484  0.1645 -0.1541
   29MOL   C83631132   7.470   6.759   1.278  0.0354 -0.0546  0.2735
   29MOL   C83731133   7.358   6.678   1.300  0.4033  0.7552  0.6077
   29MOL   C83831134   7.034   6.672   1.442 -0.8239  0.1347 -0.3574
   29MOL   C83931135   6.914   6.730   1.392 -0.4979  0.2779  0.3169
   29MOL   C84031136   6.681   6.712   0.994  0.0489  0.0473 -0.1977
   29MOL   C84131137   6.611   6.643   0.888  0.4212 -0.0608 -0.1870
   29MOL   C84231138   6.497   6.571   0.559  0.1355 -0.1377  0.6605
   29MOL   C84331139   6.543   6.581   0.428 -0.3476  0.0933  0.0620
   29MOL   H84431140   6.762   6.315   0.429  0.2803  0.7205 -0.3381
   29MOL   H84531141   6.661   6.289   0.657  2.2347 -0.1364 -1.3312
   29MOL   H84631142   6.495   6.376   1.078  0.5932 -0.0446  0.3763
   29MOL   H84731143   6.613   6.495   1.248  2.3155  0.5185 -0.4412
   29MOL   H84831144   6.882   6.519   1.123  1.0168  0.5218  0.2841
   29MOL   H84931145   7.089   6.423   1.215 -2.1475 -0.2948  0.0822
   29MOL   H85031146   7.286   6.420   1.631 -1.2811  0.8653  3.2306
   29MOL   H85131147   7.116   6.400   1.597 -0.1416 -0.4523  0.8922
   29MOL   H85231148   7.194   6.554   1.649 -0.4883 -1.6206  1.7741
   29MOL   H85331149   7.209   6.295   1.372  1.3191 -1.5281 -0.2664
   29MOL   H85431150   7.303   6.392   1.268 -1.5739 -0.1243 -1.1063
   29MOL   H85531151   7.368   6.333   1.423 -0.8374  0.2212  0.4042
   29MOL   H85631152   7.426   6.602   1.632  1.0665 -0.3831 -0.2022
   29MOL   H85731153   7.611   6.749   1.588 -0.9758  0.0751  1.0392
   29MOL   H85831154   7.486   6.810   1.183 -4.2481  0.4108 -0.2982
   29MOL   H85931155   7.292   6.651   1.219  1.5683 -2.1884  0.5461
   29MOL   H86031156   7.063   6.722   1.533 -0.7727 -1.2310  0.3945
   29MOL   H86131157   6.867   6.813   1.444 -1.8597 -1.5155  2.0128
   29MOL   H86231158   6.721   6.810   0.972 -1.3891  0.6146 -0.3979
   29MOL   H86331159   6.598   6.700   0.798  0.4548  0.5643  0.2007
   29MOL   H86431160   6.426   6.642   0.599 -1.3814 -2.1822  1.7161
   29MOL   H86531161   6.501   6.664   0.374 -3.0839  0.1638  2.1725
   29MOL   C86631162   7.728   6.884   1.241  0.0695 -0.2483  0.1281
   29MOL   C86731163   7.839   6.799   1.206  0.3100 -0.2171 -0.7379
   29MOL   C86831164   7.892   6.811   1.077  0.4730  0.5452 -0.6038
   29MOL   C86931165   7.861   6.918   0.995  0.0108 -1.1050 -0.2570
   29MOL   S87031166   7.947   6.930   0.840  0.3183  0.0013 -0.4649
   29MOL   O87131167   8.086   6.886   0.866  0.1200 -0.1871  0.2972
   29MOL   O87231168   7.918   7.054   0.765  0.4449  0.4748  0.4430
   29MOL   C87331169   7.861   6.797   0.755 -0.0759 -0.3422 -0.6695
   29MOL   C87431170   7.920   6.759   0.629  0.0148  0.4598 -0.1159
   29MOL   C87531171   7.861   6.659   0.551  0.3017  0.3142 -0.1399
   29MOL   C87631172   7.749   6.586   0.605  0.1041  1.3638  0.1061
   29MOL   O87731173   7.702   6.473   0.535  0.2011  0.6587 -0.8308
   29MOL   C87831174   7.566   6.460   0.515 -0.2698  0.3313  0.3707
   29MOL   C87931175   7.518   6.329   0.495 -0.1456 -0.6700  1.0402
   29MOL   C88031176   7.377   6.316   0.479  0.6888  0.4458  0.0861
   29MOL   C88131177   7.285   6.424   0.502  0.3991 -0.1171  0.0616
   29MOL   C88231178   7.131   6.410   0.493  0.0919  0.2032  0.6442
   29MOL   C88331179   7.065   6.534   0.429  0.2497 -0.0460 -0.6142
   29MOL   C88431180   7.101   6.280   0.406 -0.1931  0.6217 -0.8909
   29MOL   C88531181   7.074   6.393   0.639 -0.7079 -0.5650 -0.5403
   29MOL   C88631182   6.977   6.471   0.704  0.7612  0.0651 -0.0619
   29MOL   C88731183   6.934   6.453   0.837 -0.5142 -0.4438 -1.3440
   29MOL   C88831184   6.986   6.337   0.905  0.1242  0.8067 -0.6074
   29MOL   O88931185   6.936   6.313   1.037  0.1565  0.0340 -0.1459
   29MOL   C89031186   7.076   6.248   0.844  0.1265 -0.7513  0.2916
   29MOL   C89131187   7.124   6.270   0.709 -0.3694 -0.1794  0.0070
   29MOL   C89231188   7.344   6.553   0.524  0.6195  0.6400 -0.5980
   29MOL   C89331189   7.481   6.572   0.529  0.4820 -0.4622  0.1970
   29MOL   C89431190   7.697   6.625   0.730 -0.0855 -0.2454 -1.0456
   29MOL   C89531191   7.750   6.727   0.805 -0.3896  0.3768 -0.6385
   29MOL   C89631192   7.752   7.007   1.029  0.2694  0.2895  0.2504
   29MOL   C89731193   7.687   6.989   1.157  0.0504 -0.1563  0.2283
   29MOL   H89831194   7.875   6.731   1.281  3.4265  0.1209 -1.8762
   29MOL   H89931195   7.971   6.741   1.057 -1.1538 -1.4388 -0.2708
   29MOL   H90031196   8.006   6.812   0.592  1.0509 -2.3864 -1.9551
   29MOL   H90131197   7.899   6.615   0.460 -1.6704  1.5377 -1.5892
   29MOL   H90231198   7.585   6.244   0.491 -0.8132 -1.1074 -2.4110
   29MOL   H90331199   7.345   6.216   0.455 -1.1840  0.5142  2.1426
   29MOL   H90431200   6.959   6.515   0.411  0.5169 -1.7174 -0.4533
   29MOL   H90531201   7.106   6.563   0.332  1.8255 -2.1056 -0.5867
   29MOL   H90631202   7.071   6.623   0.491 -0.8009 -0.3714 -0.0284
   29MOL   H90731203   7.120   6.181   0.447 -2.1766  0.2190 -0.9060
   29MOL   H90831204   6.998   6.267   0.372  0.0563  0.4895 -1.6225
   29MOL   H90931205   7.150   6.282   0.308 -0.1465  0.4372 -0.8701
   29MOL   H91031206   6.936   6.560   0.658  2.7838  1.5478  0.9281
   29MOL   H91131207   6.856   6.515   0.877  0.6745  0.2242 -0.0023
   29MOL   H91231208   7.103   6.157   0.897  0.1321  0.6953  2.8305
   29MOL   H91331209   7.203   6.212   0.665  0.4546  1.0346 -0.1344
   29MOL   H91431210   7.277   6.637   0.535  1.0506  1.0991 -1.4371
   29MOL   H91531211   7.527   6.669   0.532 -1.8488  0.6492  1.7064
   29MOL   H91631212   7.617   6.560   0.763  0.3107  0.0670  0.5838
   29MOL   H91731213   7.695   6.755   0.893  2.6457 -0.1126  1.5043
   29MOL   H91831214   7.730   7.091   0.966 -1.9444  0.8917  1.7643
   29MOL   H91931215   7.614   7.057   1.198 -0.4464  1.6508 -3.4141
   29MOL   C92031216   6.835   6.224   1.063 -0.1481  0.3028  0.1643
   29MOL   C92131217   6.770   6.216   1.192  0.6621 -0.2669 -0.5646
   29MOL   C92231218   6.667   6.117   1.212 -0.3659  0.2361  0.9197
   29MOL   C92331219   6.616   6.040   1.111  0.4515 -0.1081 -0.5416
   29MOL   S92431220   6.488   5.923   1.151  0.1820 -0.2125 -0.0776
   29MOL   O92531221   6.523   5.863   1.276 -0.3504  0.6101  0.2563
   29MOL   O92631222   6.472   5.841   1.028  0.3873  0.0630  0.8014
   29MOL   C92731223   6.334   6.008   1.178 -0.0331  0.4475 -0.9770
   29MOL   C92831224   6.309   6.135   1.125 -0.1471  0.0386 -0.3290
   29MOL   C92931225   6.183   6.197   1.156  0.0957  0.6283  0.4201
   29MOL   C93031226   6.091   6.121   1.238 -0.1015  1.0534  0.2955
   29MOL   O93131227   5.971   6.176   1.260  0.5591  0.3397 -0.1063
   29MOL   C93231228   5.948   6.236   1.379 -0.3168  0.0792  0.2409
   29MOL   C93331229   6.058   6.288   1.453  0.3039 -0.0714  0.3352
   29MOL   C93431230   6.040   6.339   1.584 -0.5810 -0.1456 -0.2476
   29MOL   C93531231   5.912   6.356   1.635  0.3063 -0.6804  0.1060
   29MOL   C93631232   5.890   6.454   1.753  0.4026 -0.1574  0.1720
   29MOL   C93731233   6.019   6.484   1.827 -0.5672  0.2485  0.5503
   29MOL   C93831234   5.846   6.584   1.698 -0.4380 -0.0732  0.6947
   29MOL   C93931235   5.785   6.399   1.854 -0.3469 -0.6347 -0.0728
   29MOL   C94031236   5.644   6.413   1.824 -0.4253 -0.2448  1.0466
   29MOL   C94131237   5.553   6.374   1.918  0.1838  0.6317 -0.0526
   29MOL   C94231238   5.591   6.293   2.032 -0.3269  0.1066  1.0931
   29MOL   O94331239   5.487   6.251   2.113  0.1834 -0.6589 -0.5716
   29MOL   C94431240   5.728   6.259   2.044 -0.1710  0.2453 -1.0777
   29MOL   C94531241   5.818   6.318   1.963 -0.1718 -0.4562 -0.0819
   29MOL   C94631242   5.803   6.298   1.565  0.5837 -0.5688 -0.5436
   29MOL   C94731243   5.821   6.240   1.439 -0.0378  0.1772  0.4578
   29MOL   C94831244   6.136   6.005   1.303  0.7845  0.7987 -0.1073
   29MOL   C94931245   6.262   5.950   1.276  0.2203 -0.3384  0.0132
   29MOL   C95031246   6.669   6.056   0.980  0.1206 -0.4964 -0.0517
   29MOL   C95131247   6.785   6.134   0.957 -0.2916  0.3881  0.4141
   29MOL   H95231248   6.805   6.265   1.282  0.6394 -1.6950  0.2286
   29MOL   H95331249   6.630   6.096   1.312  0.0314 -0.2519  0.9635
   29MOL   H95431250   6.379   6.184   1.058 -0.8531  4.7263  2.1084
   29MOL   H95531251   6.153   6.292   1.115  1.4796  0.3848 -1.2196
   29MOL   H95631252   6.158   6.265   1.420  0.5187 -1.4247  1.8476
   29MOL   H95731253   6.128   6.380   1.631  0.4091  1.7325 -3.5652
   29MOL   H95831254   6.092   6.531   1.761 -0.0708  0.5403  1.2949
   29MOL   H95931255   6.076   6.405   1.875 -1.7291 -1.7584 -1.3212
   29MOL   H96031256   5.999   6.558   1.904  0.5205  0.4854  0.6200
   29MOL   H96131257   5.821   6.656   1.776  2.2219 -0.0603  1.6052
   29MOL   H96231258   5.916   6.621   1.623 -0.5466  1.4271  1.3236
   29MOL   H96331259   5.752   6.570   1.646 -0.2471 -1.6085  0.7398
   29MOL   H96431260   5.601   6.469   1.743 -3.0191  1.3090  3.4020
   29MOL   H96531261   5.448   6.397   1.902 -0.0955  1.1440  2.3084
   29MOL   H96631262   5.753   6.201   2.132 -2.3997 -0.8628 -1.1344
   29MOL   H96731263   5.924   6.302   1.981 -0.4525 -1.1233  1.0937
   29MOL   H96831264   5.700   6.307   1.596  0.8288  2.4423 -0.4777
   29MOL   H96931265   5.741   6.200   1.378 -1.1430  0.7093  1.5322
   29MOL   H97031266   6.067   5.970   1.379 -0.8624 -0.1186 -1.9645
   29MOL   H97131267   6.290   5.858   1.325  1.8519  0.1690  0.0388
   29MOL   H97231268   6.641   5.993   0.898 -1.0611 -0.2349  0.1465
   29MOL   H97331269   6.833   6.132   0.860  2.2287 -0.3655  1.6217
   29MOL   C97431270   5.499   6.253   2.245  0.3239 -0.6048 -0.2948
   29MOL   C97531271   5.544   6.134   2.310  0.0392 -0.0804 -0.0186
   29MOL   C97631272   5.533   6.119   2.452 -0.7409 -0.2294 -0.2842
   29MOL   C97731273   5.485   6.223   2.529  0.2018  0.5148  0.2572
   29MOL   S97831274   5.472   6.203   2.705 -0.0548  0.2347 -0.1128
   29MOL   O97931275   5.394   6.307   2.768  0.0048 -0.3498 -0.3209
   29MOL   O98031276   5.605   6.172   2.759 -0.0270 -0.7619 -0.1648
   29MOL   C98131277   5.375   6.054   2.720 -0.0252 -0.5604  0.6657
   29MOL   C98231278   5.436   5.928   2.713 -0.1911  0.0024  0.1307
   29MOL   C98331279   5.364   5.808   2.723  0.3377 -0.3846 -0.1987
   29MOL   C98431280   5.220   5.818   2.735 -1.1005 -0.2837 -0.2968
   29MOL   O98531281   5.135   5.710   2.754 -0.1262 -0.5944  0.3609
   29MOL   C98631282   5.058   5.670   2.643 -0.4279 -0.9339  0.6596
   29MOL   C98731283   4.951   5.740   2.603  1.0596  0.4576 -0.2857
   29MOL   C98831284   4.869   5.702   2.495 -0.2941 -0.2705 -0.2117
   29MOL   C98931285   4.899   5.579   2.424  0.5223 -0.3995  0.4622
   29MOL   C99031286   4.816   5.525   2.300 -0.1383 -0.1282  0.5662
   29MOL   C99131287   4.763   5.380   2.345 -0.2675  0.2615 -0.7286
   29MOL   C99231288   4.692   5.612   2.271 -0.2709  1.1762 -0.9637
   29MOL   C99331289   4.899   5.512   2.167  0.3082 -0.2737 -0.0653
   29MOL   C99431290   5.016   5.593   2.146  0.1686  0.1993 -0.1283
   29MOL   C99531291   5.081   5.589   2.021  0.4662 -0.6873  0.8401
   29MOL   C99631292   5.040   5.497   1.922 -0.0075  0.0030 -0.1939
   29MOL   O99731293   5.102   5.495   1.797  0.0635 -0.1779  0.1243
   29MOL   C99831294   4.930   5.409   1.940  0.1679  0.5438 -0.5034
   29MOL   C99931295   4.856   5.424   2.061 -0.0837  0.3934 -0.6674
   29MOL     C131296   5.009   5.504   2.473  0.0653  0.1189  0.1742
   29MOL     C231297   5.091   5.548   2.581 -0.0945  0.0558 -0.2999
   29MOL     C331298   5.160   5.945   2.738 -0.4453 -0.8498 -0.1192
   29MOL     C431299   5.237   6.060   2.731 -0.9880  0.0674 -0.0991
   29MOL     C531300   5.453   6.353   2.466 -0.0282  0.9900  0.5782
   29MOL     C631301   5.452   6.368   2.326 -0.2944  0.1166 -0.0460
   29MOL     H731302   5.583   6.059   2.243 -0.7740  0.3464 -0.9936
   29MOL     H831303   5.556   6.019   2.487  0.9425  0.2935  0.1231
   29MOL     H931304   5.544   5.922   2.720 -0.1458  1.2504  0.6726
   29MOL    H1031305   5.410   5.710   2.721 -1.7721 -1.4423  1.0228
   29MOL    H1131306   4.920   5.835   2.642 -0.7040 -0.3796  0.4039
   29MOL    H1231307   4.797   5.777   2.467  2.0570  2.1127 -0.0916
   29MOL    H1331308   4.707   5.390   2.438 -1.4024 -0.2032 -1.3511
   29MOL    H1431309   4.842   5.306   2.352 -0.1188  0.5460  0.7537
   29MOL    H1531310   4.695   5.339   2.270  0.1631 -1.1737 -0.3351
   29MOL    H1631311   4.636   5.570   2.187  0.9080 -1.4739 -0.4810
   29MOL    H1731312   4.619   5.622   2.352 -0.4835  2.1184 -1.2643
   29MOL    H1831313   4.705   5.715   2.240  1.7920  1.3682  0.4574
   29MOL    H1931314   5.031   5.670   2.219  1.3896  0.2066 -0.3814
   29MOL    H2031315   5.170   5.649   2.012  0.2188 -0.5478 -0.8123
   29MOL    H2131316   4.905   5.339   1.861  0.4597 -1.1904  0.9018
   29MOL    H2231317   4.758   5.378   2.059  0.6803 -1.2622 -0.7374
   29MOL    H2331318   5.028   5.410   2.423 -1.5244  0.6400 -1.4474
   29MOL    H2431319   5.174   5.487   2.615  0.5525 -0.8614 -3.3615
   29MOL    H2531320   5.061   5.945   2.780  0.6239 -1.4980  2.5515
   29MOL    H2631321   5.187   6.155   2.740 -0.6036  0.2975 -0.3828
   29MOL    H2731322   5.433   6.445   2.519 -3.1853  0.3488  0.6188
   29MOL    H2831323   5.420   6.458   2.275  1.5249 -0.0575 -1.5367
   29MOL    C2931324   5.239   5.524   1.786 -0.0434  0.3195  0.4500
   29MOL    C3031325   5.334   5.446   1.852  0.6039  0.2827  0.3720
   29MOL    C3131326   5.473   5.467   1.831  0.0070 -0.2456  0.4486
   29MOL    C3231327   5.509   5.564   1.738 -0.3230  0.2174  0.8177
   29MOL    S3331328   5.678   5.577   1.678  0.2205  0.4854 -0.3378
   29MOL    O3431329   5.659   5.649   1.553  0.2585 -0.5049  0.2751
   29MOL    O3531330   5.734   5.440   1.680  0.4154 -0.2853 -0.0626
   29MOL    C3631331   5.768   5.682   1.784 -0.0790 -0.0646 -0.5597
   29MOL    C3731332   5.831   5.621   1.893 -0.4985 -0.4934  0.2901
   29MOL    C3831333   5.917   5.700   1.969  0.0930  0.0905 -0.6873
   29MOL    C3931334   5.942   5.840   1.938  0.3307 -0.2049  0.7256
   29MOL    O4031335   6.048   5.912   1.994  0.9670 -0.1062  0.2224
   29MOL    C4131336   6.017   6.001   2.092  0.2280  0.1234 -0.2984
   29MOL    C4231337   5.910   5.982   2.181  0.2655 -0.1776 -1.1057
   29MOL    C4331338   5.885   6.071   2.290 -0.5071 -0.1606 -0.9103
   29MOL    C4431339   5.983   6.171   2.319 -0.2404  0.2429 -0.4020
   29MOL    C4531340   5.962   6.270   2.440 -0.1667 -0.2350  0.0350
   29MOL    C4631341   5.862   6.384   2.406  0.2856 -0.5504  0.2508
   29MOL    C4731342   5.905   6.206   2.564  0.1141 -0.0873  0.0054
   29MOL    C4831343   6.093   6.340   2.485 -0.6172 -0.1870 -0.5561
   29MOL    C4931344   6.118   6.481   2.502  0.1536  0.5574  0.0227
   29MOL    C5031345   6.249   6.527   2.510 -0.2032 -0.0008  0.2976
   29MOL    C5131346   6.360   6.442   2.498 -0.0009 -0.1628  0.3069
   29MOL    O5231347   6.487   6.488   2.502 -0.8780  0.6561 -0.7963
   29MOL    C5331348   6.334   6.303   2.506 -0.1557 -0.2959  0.1851
   29MOL    C5431349   6.204   6.257   2.498  0.1724  0.0012  0.0130
   29MOL    C5531350   6.090   6.190   2.223 -0.5868  0.2470  0.1802
   29MOL    C5631351   6.110   6.107   2.109  0.3322  0.0528 -0.0160
   29MOL    C5731352   5.867   5.903   1.829  0.3309 -0.2565 -0.1433
   29MOL    C5831353   5.783   5.821   1.755  0.0102  0.6046  0.1329
   29MOL    C5931354   5.416   5.645   1.672  0.2767  0.2178  0.1088
   29MOL    C6031355   5.280   5.625   1.699  0.6129  0.1865 -0.5370
   29MOL    H6131356   5.310   5.368   1.923  1.3518 -0.9623 -0.7239
   29MOL    H6231357   5.547   5.403   1.877  1.1644  1.9680  1.7561
   29MOL    H6331358   5.824   5.516   1.918 -1.0114 -0.9994 -1.9195
   29MOL    H6431359   5.960   5.642   2.049 -3.2067 -1.6824 -0.1443
   29MOL    H6531360   5.849   5.896   2.158  0.3847  0.2495 -3.1152
   29MOL    H6631361   5.798   6.060   2.354  1.6917 -2.3405  1.8213
   29MOL    H6731362   5.846   6.453   2.489 -1.6030  4.4039 -3.9268
   29MOL    H6831363   5.764   6.341   2.388  0.0091  0.7934 -1.5598
   29MOL    H6931364   5.893   6.445   2.321 -0.6349 -0.2977  0.0938
   29MOL    H7031365   5.980   6.134   2.598  1.1241  0.0729 -1.8071
   29MOL    H7131366   5.886   6.278   2.644  2.3166 -0.7907  1.2095
   29MOL    H7231367   5.808   6.159   2.547  1.2221 -1.3221 -3.2024
   29MOL    H7331368   6.029   6.541   2.504 -0.5684 -0.4720 -0.6446
   29MOL    H7431369   6.255   6.632   2.532  0.5984 -0.4020  2.0550
   29MOL    H7531370   6.418   6.234   2.508 -0.0791 -0.2217 -0.3086
   29MOL    H7631371   6.190   6.151   2.483  2.0479 -0.2205 -0.2669
   29MOL    H7731372   6.153   6.277   2.233  0.2665 -0.1119 -1.8134
   29MOL    H7831373   6.196   6.129   2.047 -0.6796  0.3877 -1.2906
   29MOL    H7931374   5.894   6.005   1.805 -0.4528  0.1106  0.4783
   29MOL    H8031375   5.748   5.858   1.659 -0.3201 -0.2764 -0.0921
   29MOL    H8131376   5.442   5.718   1.596  0.6030 -1.4395 -1.4033
   29MOL    H8231377   5.206   5.690   1.653  2.3531  1.1208 -2.0952
   29MOL    H8331378   6.484   6.581   2.517 -0.7970  0.1866  2.2835
   30MOL     C131379   1.005   3.055   7.931 -0.1342  0.2195  0.1820
   30MOL     C231380   0.999   2.928   7.871 -0.0371  0.1471 -0.0451
   30MOL     C331381   1.032   2.811   7.936 -0.0159 -0.2116 -0.9157
   30MOL     C431382   1.085   2.832   8.068  0.3562  0.1536 -0.5377
   30MOL     S531383   1.135   2.675   8.153  0.4463 -0.0191 -0.0230
   30MOL     O631384   1.229   2.720   0.003 -0.8079 -1.1060  0.3024
   30MOL     O731385   1.174   2.574   8.054 -0.7212  0.2290 -0.0414
   30MOL     C831386   0.981   2.619   8.231 -0.0845  0.7840 -0.1276
   30MOL     C931387   0.988   2.552   0.103  0.4809 -0.3195 -0.3848
   30MOL    C1031388   0.873   2.520   0.181  0.0947 -0.3715  0.0333
   30MOL    C1131389   0.747   2.537   0.120 -0.6627  0.5879 -0.2857
   30MOL    O1231390   0.636   2.493   0.181  0.6158 -0.5365 -0.1185
   30MOL    C1331391   0.555   2.576   0.252  0.2073 -1.1078 -0.7637
   30MOL    C1431392   0.437   2.627   0.206  0.2402  0.5554  0.9119
   30MOL    C1531393   0.353   2.718   0.272  0.0269 -0.1058  0.0958
   30MOL    C1631394   0.390   2.752   0.402 -0.0479 -0.0187  0.3824
   30MOL    C1731395   0.294   2.843   0.482 -0.0122 -0.4019  0.6206
   30MOL    C1831396   0.202   2.925   0.396  0.1180  0.1025  0.1758
   30MOL    C1931397   0.208   2.761   0.581 -0.3497 -0.1914  0.1663
   30MOL    C2031398   0.383   2.945   0.555 -0.3178 -0.7614  0.2615
   30MOL    C2131399   0.509   2.990   0.503  0.3351 -0.3596 -0.1400
   30MOL    C2231400   0.590   3.085   0.575 -0.2575  0.2318  0.3645
   30MOL    C2331401   0.559   3.117   0.709  0.2700  0.6672  0.1480
   30MOL    O2431402   0.640   3.190   0.793 -0.2463 -0.0268  0.3611
   30MOL    C2531403   0.435   3.074   0.762 -0.3274  0.0455 -0.7484
   30MOL    C2631404   0.351   2.998   0.682 -0.5914 -0.1242  0.0276
   30MOL    C2731405   0.511   2.699   0.454 -0.2310  0.0444  0.5708
   30MOL    C2831406   0.593   2.611   0.382  0.2243  0.4325 -0.1392
   30MOL    C2931407   0.740   2.587   8.243  0.0581  0.0611 -0.1314
   30MOL    C3031408   0.858   2.631   8.177  0.5244 -0.3852 -0.0161
   30MOL    C3131409   1.090   2.959   8.133  0.0053  0.1534  0.5216
   30MOL    C3231410   1.049   3.073   8.067 -0.4972  0.8237  0.1106
   30MOL    H3331411   0.969   2.920   7.768 -0.6576 -0.0698  0.1487
   30MOL    H3431412   1.027   2.710   7.898 -0.5208 -0.4312 -0.2861
   30MOL    H3531413   1.085   2.538   0.148  0.8895  1.8954 -0.5343
   30MOL    H3631414   0.877   2.475   0.279  0.9781  0.1153  0.2228
   30MOL    H3731415   0.417   2.601   0.102 -0.0541 -2.6047  1.6921
   30MOL    H3831416   0.266   2.756   0.222 -0.6184 -0.3274  1.0356
   30MOL    H3931417   0.159   3.005   0.457 -0.0500 -0.4704  0.8080
   30MOL    H4031418   0.119   2.875   0.346  0.0377  0.0124  0.3983
   30MOL    H4131419   0.264   2.970   0.319  2.9494 -0.2952  2.1347
   30MOL    H4231420   0.264   2.717   0.664 -0.9391 -1.6235 -0.1801
   30MOL    H4331421   0.129   2.816   0.633  0.0517 -0.8786  1.5179
   30MOL    H4431422   0.156   2.680   0.530  1.8420  0.3719 -3.0934
   30MOL    H4531423   0.544   2.954   0.408 -0.9050 -1.6994 -0.0939
   30MOL    H4631424   0.678   3.131   0.534 -0.4259 -0.3324 -0.6576
   30MOL    H4731425   0.409   3.106   0.862 -0.4657 -0.9528 -0.4638
   30MOL    H4831426   0.264   2.955   0.729 -1.9805  1.9850 -0.5767
   30MOL    H4931427   0.542   2.714   0.557 -0.9735  3.8989  0.2849
   30MOL    H5031428   0.682   2.570   0.427 -0.4459 -0.9747 -0.0652
   30MOL    H5131429   0.639   2.600   8.206 -0.8806 -2.7203  1.3402
   30MOL    H5231430   0.851   2.691   8.087 -3.2781 -0.2540  0.2904
   30MOL    H5331431   1.133   2.968   8.232  0.9371 -0.2425  0.1618
   30MOL    H5431432   1.048   3.164   8.125  1.5740  0.3970  0.8860
   30MOL    H5531433   0.960   3.145   7.890 -1.9015 -1.6185 -2.0573
   30MOL    C5631434   0.687   3.303   0.744 -0.3325 -1.1483  0.7791
   30MOL    C5731435   0.609   3.415   0.722  0.1522  0.6612 -0.0506
   30MOL    C5831436   0.656   3.533   0.669 -0.0704  0.2717 -0.4522
   30MOL    C5931437   0.792   3.537   0.626 -0.1443  0.1441 -0.2132
   30MOL    S6031438   0.853   3.691   0.553  0.6794  0.1750  0.2408
   30MOL    O6131439   0.992   3.706   0.595 -0.3823  0.2006  0.2407
   30MOL    O6231440   0.756   3.797   0.586  0.4687  0.1139  0.2572
   30MOL    C6331441   0.833   3.663   0.377 -0.1980  0.0028  0.2140
   30MOL    C6431442   0.698   3.660   0.327 -0.4068  0.3627  0.0316
   30MOL    C6531443   0.686   3.632   0.188 -0.0071 -0.9965 -0.7840
   30MOL    C6631444   0.796   3.606   0.102  0.0091  0.8439 -0.8699
   30MOL    O6731445   0.776   3.598   8.222 -0.2754 -0.3889 -0.0971
   30MOL    C6831446   0.733   3.481   8.172  0.2986 -0.4901  0.2386
   30MOL    C6931447   0.605   3.487   8.111  0.6220 -0.1600  0.0689
   30MOL    C7031448   0.557   3.363   8.060  0.0878  0.0231 -0.1131
   30MOL    C7131449   0.626   3.237   8.073 -0.1041  0.2568  0.8088
   30MOL    C7231450   0.556   3.108   8.024 -0.5729  0.4530  0.1017
   30MOL    C7331451   0.656   3.029   7.935  0.0500  0.6284 -0.6340
   30MOL    C7431452   0.525   3.024   8.151  0.6827  0.4891 -0.1752
   30MOL    C7531453   0.429   3.134   7.937  0.8016  0.2913 -0.4757
   30MOL    C7631454   0.432   3.172   7.798  0.0562 -0.6217 -0.1420
   30MOL    C7731455   0.310   3.199   7.730 -0.3908  0.3271 -0.9983
   30MOL    C7831456   0.186   3.186   7.795 -0.5771  0.3291  0.1141
   30MOL    O7931457   0.068   3.196   7.724  0.4881 -0.2663 -0.3900
   30MOL    C8031458   0.186   3.151   7.928 -0.6483  0.0623  0.0784
   30MOL    C8131459   0.304   3.132   8.003  0.2261 -0.0863 -0.4830
   30MOL    C8231460   0.758   3.239   8.124  0.5741  1.1585 -0.1405
   30MOL    C8331461   0.808   3.359   8.174 -0.0887  0.5317 -0.1353
   30MOL    C8431462   0.925   3.617   0.148  0.5181  0.4497 -0.8147
   30MOL    C8531463   0.938   3.647   0.286 -0.3815  0.0108 -0.1160
   30MOL    C8631464   0.875   3.427   0.654  0.6073 -0.5213  0.3437
   30MOL    C8731465   0.826   3.310   0.719  0.3233 -0.7540  0.5751
   30MOL    H8831466   0.502   3.410   0.734  0.4096 -1.7241  1.5930
   30MOL    H8931467   0.587   3.606   0.630  0.2595  0.4270 -0.7476
   30MOL    H9031468   0.617   3.677   0.396 -0.4052 -0.1897  0.1689
   30MOL    H9131469   0.592   3.641   0.135 -0.5083  0.8233  0.3841
   30MOL    H9231470   0.559   3.582   8.092  0.1509 -0.0272  1.8428
   30MOL    H9331471   0.460   3.366   8.014  0.9827 -0.6429 -2.1124
   30MOL    H9431472   0.618   2.935   7.896 -0.8938  0.8123 -0.1720
   30MOL    H9531473   0.739   3.003   8.000  0.5170 -0.5904 -1.7011
   30MOL    H9631474   0.700   3.089   7.855 -0.8509 -1.4187 -2.7395
   30MOL    H9731475   0.615   3.006   8.210  0.7417 -1.9063 -0.9325
   30MOL    H9831476   0.456   3.067   8.224 -1.7169 -1.4548 -1.2176
   30MOL    H9931477   0.489   2.926   8.121 -1.0180  0.7542  0.9266
   30MOL   H10031478   0.532   3.171   7.756  0.9666  0.9214  1.9122
   30MOL   H10131479   0.306   3.228   7.626 -1.1407 -1.6065 -1.5340
   30MOL   H10231480   0.088   3.141   7.973 -1.1276 -0.1549 -0.9903
   30MOL   H10331481   0.288   3.106   8.106 -1.3780 -0.0347 -0.7051
   30MOL   H10431482   0.812   3.147   8.139 -1.5647 -0.3068 -1.0568
   30MOL   H10531483   0.907   3.367   8.218  0.3792  0.2877 -1.1156
   30MOL   H10631484   1.012   3.601   0.085  1.1890 -1.1458  0.4648
   30MOL   H10731485   1.042   3.653   0.313 -0.3929 -0.1335 -0.0377
   30MOL   H10831486   0.980   3.431   0.628  0.5934 -1.3874  0.1530
   30MOL   H10931487   0.884   3.220   0.733  0.5202 -0.5140  1.3169
   30MOL   C11031488   0.004   3.317   7.712 -0.9631 -0.1968  0.2810
   30MOL   C11131489   8.201   3.372   7.828  0.3835 -0.8099 -0.0424
   30MOL   C11231490   8.138   3.501   7.814 -0.4740  0.8878  0.2947
   30MOL   C11331491   8.122   3.560   7.689 -0.9457  1.0554  0.6738
   30MOL   S11431492   8.051   3.725   7.683 -0.4343  0.8582 -0.0949
   30MOL   O11531493   7.965   3.736   7.805  0.1497 -0.7898 -0.0238
   30MOL   O11631494   7.992   3.746   7.548 -0.0224  0.4890 -0.3259
   30MOL   C11731495   8.176   3.844   7.700 -0.4836  0.2691 -0.3178
   30MOL   C11831496   0.058   3.802   7.732 -0.0988 -0.7769 -0.5083
   30MOL   C11931497   0.162   3.899   7.753 -0.1781 -1.2979  0.5550
   30MOL   C12031498   0.126   4.031   7.720 -0.4391  0.6320  0.1291
   30MOL   O12131499   0.219   4.125   7.712 -0.3190 -0.5320 -0.0476
   30MOL   C12231500   0.261   4.202   7.821  0.3705  0.3325 -0.2471
   30MOL   C12331501   0.287   4.340   7.797  0.0929  0.6036  0.7950
   30MOL   C12431502   0.326   4.423   7.903  0.1610  0.1329 -0.0826
   30MOL   C12531503   0.331   4.368   8.036  0.6589  0.3208 -0.3850
   30MOL   C12631504   0.343   4.466   8.153 -0.6191  0.1039 -0.4106
   30MOL   C12731505   0.456   4.416   8.250 -0.2372  0.0189  0.1254
   30MOL   C12831506   0.393   4.608   8.116  0.2693 -0.1739  0.3195
   30MOL   C12931507   0.196   4.478   8.213  0.1369  0.0235  0.0804
   30MOL   C13031508   0.173   4.483   0.100 -0.0303  0.2355  0.6239
   30MOL   C13131509   0.049   4.503   0.158  0.4881  0.3839 -0.4370
   30MOL   C13231510   8.200   4.531   0.071  0.7170 -0.3780  0.2651
   30MOL   O13331511   8.069   4.555   0.121 -0.9319  0.1256 -0.0428
   30MOL   C13431512   8.214   4.530   8.183 -0.1670  0.0354 -0.5175
   30MOL   C13531513   0.085   4.499   8.131 -0.2701  0.5282 -0.0272
   30MOL   C13631514   0.305   4.232   8.064 -0.2644 -0.6030 -0.2626
   30MOL   C13731515   0.275   4.149   7.953 -0.1435  0.5253  0.1674
   30MOL   C13831516   8.251   4.068   7.676  0.0804 -0.2181  0.7421
   30MOL   C13931517   8.143   3.977   7.672 -0.1458 -0.3707  0.2798
   30MOL   C14031518   8.156   3.491   7.570  0.8157  0.4396  0.0753
   30MOL   C14131519   8.228   3.368   7.583  0.5451 -0.1976  0.6295
   30MOL   H14231520   8.213   3.320   7.923  2.6652  0.0310  0.1639
   30MOL   H14331521   8.100   3.545   7.905  0.5802  0.3186  1.0175
   30MOL   H14431522   0.082   3.699   7.755 -0.1380 -0.8365 -0.7375
   30MOL   H14531523   0.268   3.881   7.769  0.2672 -0.1100 -0.9935
   30MOL   H14631524   0.289   4.373   7.694  0.0080 -1.6835  0.0161
   30MOL   H14731525   0.350   4.525   7.877  2.4882  0.0049  1.3517
   30MOL   H14831526   0.478   4.494   0.070  1.6909 -0.9468  0.6076
   30MOL   H14931527   0.550   4.400   8.197 -0.9353  0.5465 -1.3071
   30MOL   H15031528   0.421   4.322   0.039 -2.1915  0.5159 -0.3215
   30MOL   H15131529   0.322   4.652   8.045  1.7037 -0.2806 -1.2134
   30MOL   H15231530   0.404   4.678   8.199 -3.3214  0.5169  0.2758
   30MOL   H15331531   0.492   4.614   8.070 -0.7204  1.2604 -1.7200
   30MOL   H15431532   0.246   4.469   0.179 -1.7860 -0.8949  2.0849
   30MOL   H15531533   0.030   4.500   0.264 -0.5636 -0.7584 -0.6555
   30MOL   H15631534   8.124   4.554   8.128 -1.4764  0.7373  1.8690
   30MOL   H15731535   0.108   4.487   8.026  0.7023  0.2732  0.2029
   30MOL   H15831536   0.307   4.191   8.164  0.6068 -0.7015 -0.3133
   30MOL   H15931537   0.263   4.043   7.967  2.7861  0.2268  0.8249
   30MOL   H16031538   8.239   4.174   7.659  3.4307  0.3151  1.4570
   30MOL   H16131539   8.042   4.007   7.650 -0.6108 -0.7496  1.8843
   30MOL   H16231540   8.129   3.539   7.477  0.0217  0.1836  0.1740
   30MOL   H16331541   8.249   3.313   7.492  3.1123  0.2270  0.9215
   30MOL   C16431542   8.024   4.682   0.135 -0.0085 -0.4984  0.3344
   30MOL   C16531543   7.903   4.694   0.206 -0.5756  0.2025 -0.1446
   30MOL   C16631544   7.843   4.820   0.217 -0.3691 -0.0766 -0.0740
   30MOL   C16731545   7.907   4.932   0.165  0.5976  0.5024  0.4186
   30MOL   S16831546   7.823   5.084   0.202  0.4641  0.0332  0.2425
   30MOL   O16931547   7.674   5.075   0.170  0.0197  0.4974  0.2618
   30MOL   O17031548   7.902   5.186   0.132  0.0219 -0.1956 -0.9782
   30MOL   C17131549   7.857   5.094   0.384 -0.5220 -0.4239  0.1794
   30MOL   C17231550   7.750   5.123   0.469  0.5091 -0.5277  0.3605
   30MOL   C17331551   7.772   5.148   0.609 -0.2052  0.2066 -0.0177
   30MOL   C17431552   7.900   5.147   0.666 -0.5078  0.4062  0.0465
   30MOL   O17531553   7.938   5.186   0.795  0.0533  0.3389 -0.0991
   30MOL   C17631554   7.860   5.139   0.899 -0.6103  0.3284  0.1888
   30MOL   C17731555   7.857   5.215   1.013  0.3233 -0.1770 -0.4305
   30MOL   C17831556   7.811   5.158   1.133  0.5105 -0.0200 -0.0376
   30MOL   C17931557   7.745   5.033   1.133  0.3440 -0.2217  0.3686
   30MOL   C18031558   7.695   4.961   1.258  0.2054  0.1071  0.4780
   30MOL   C18131559   7.806   4.868   1.307  0.2011 -0.6400  0.0817
   30MOL   C18231560   7.671   5.055   1.373 -0.0428 -0.0206 -0.1317
   30MOL   C18331561   7.569   4.880   1.241 -0.2422  0.0262  0.6806
   30MOL   C18431562   7.460   4.943   1.184 -0.0862 -0.4019  0.3792
   30MOL   C18531563   7.341   4.869   1.151 -0.2081 -0.1385 -0.4698
   30MOL   C18631564   7.321   4.737   1.178 -0.5446 -0.4657 -0.0405
   30MOL   O18731565   7.213   4.664   1.132  0.1456 -0.0304  0.2928
   30MOL   C18831566   7.421   4.674   1.252 -0.5020 -0.7360  0.1154
   30MOL   C18931567   7.549   4.743   1.272  0.0165  0.8977 -0.1389
   30MOL   C19031568   7.732   4.962   1.007  0.1855 -0.3985  0.3758
   30MOL   C19131569   7.798   5.013   0.896 -0.0539  0.2385  0.6913
   30MOL   C19231570   8.006   5.116   0.579 -0.3813 -0.0022 -0.5930
   30MOL   C19331571   7.988   5.088   0.443 -0.1383  0.2425 -0.4311
   30MOL   C19431572   8.030   4.924   0.103  0.7443 -0.1184 -0.4214
   30MOL   C19531573   8.092   4.800   0.084  0.2253  0.6017 -0.2280
   30MOL   H19631574   7.847   4.602   0.210  0.6103 -0.4962  0.7815
   30MOL   H19731575   7.755   4.832   0.279  0.2103  0.4437  0.6546
   30MOL   H19831576   7.649   5.121   0.432  0.9543 -2.7903 -0.8081
   30MOL   H19931577   7.697   5.179   0.680 -0.3797 -0.5189  0.1203
   30MOL   H20031578   7.911   5.308   1.006 -0.6817  0.3821 -0.9341
   30MOL   H20131579   7.820   5.206   1.229 -1.4195  1.6243 -0.6455
   30MOL   H20231580   7.903   4.915   1.324 -0.6342  1.5572 -1.0512
   30MOL   H20331581   7.825   4.800   1.223 -4.8887  1.0240 -2.6012
   30MOL   H20431582   7.780   4.809   1.394 -0.3065  0.1515  0.4692
   30MOL   H20531583   7.589   5.125   1.359  0.3238  0.0196 -2.2097
   30MOL   H20631584   7.630   4.998   1.456 -1.5126  2.0858  0.6123
   30MOL   H20731585   7.761   5.108   1.404  1.1869 -1.0300 -1.8899
   30MOL   H20831586   7.463   5.046   1.151 -1.3683 -0.5836 -0.3385
   30MOL   H20931587   7.261   4.928   1.107  0.0670  0.5708 -0.0192
   30MOL   H21031588   7.409   4.571   1.283 -1.6780 -0.1812  1.5604
   30MOL   H21131589   7.633   4.682   1.301 -2.7505 -2.2485  1.5999
   30MOL   H21231590   7.687   4.865   1.008  1.2917 -0.9211  0.3370
   30MOL   H21331591   7.798   4.955   0.805 -1.7072  0.9090  0.2347
   30MOL   H21431592   8.105   5.112   0.623 -0.6470 -0.4031 -0.0249
   30MOL   H21531593   8.074   5.050   0.388  0.7659 -2.5499  2.7086
   30MOL   H21631594   8.087   5.012   0.076  2.9451 -0.7562  1.9527
   30MOL   H21731595   8.183   4.800   0.028  0.9566 -0.0602  0.9319
   30MOL   C21831596   7.216   4.523   1.105 -0.2989  0.2121 -1.0597
   30MOL   C21931597   7.149   4.427   1.185 -0.4647 -0.8842  0.6426
   30MOL   C22031598   7.154   4.288   1.154  0.6017  0.5249  0.0179
   30MOL   C22131599   7.219   4.248   1.032 -0.8520  0.4509 -0.4194
   30MOL   S22231600   7.214   4.080   0.964  0.0916 -0.3081 -0.0659
   30MOL   O22331601   7.352   4.028   0.960  0.4692 -0.7286  0.0708
   30MOL   O22431602   7.125   4.092   0.845  0.0750  0.2039 -0.3630
   30MOL   C22531603   7.140   3.971   1.088 -0.5481  0.1218  0.8508
   30MOL   C22631604   7.003   3.937   1.086 -0.2601  0.6217  0.3239
   30MOL   C22731605   6.953   3.839   1.175  0.3209  0.6022 -0.0851
   30MOL   C22831606   7.032   3.794   1.278  0.4307  0.4304 -0.8913
   30MOL   O22931607   6.991   3.698   1.360  0.5697  0.2184 -0.1074
   30MOL   C23031608   7.046   3.574   1.336  0.3217  0.2953  0.9272
   30MOL   C23131609   7.149   3.520   1.421 -0.3906  0.3917 -0.5131
   30MOL   C23231610   7.212   3.392   1.404  0.6657 -0.0005  0.2029
   30MOL   C23331611   7.169   3.322   1.289 -0.7473 -0.4982 -0.3941
   30MOL   C23431612   7.236   3.185   1.242  0.6216  0.1736 -0.0332
   30MOL   C23531613   7.366   3.157   1.325  0.0415 -0.1600 -0.8329
   30MOL   C23631614   7.132   3.073   1.274  0.0763 -0.1464  0.0831
   30MOL   C23731615   7.267   3.183   1.092  0.0572  0.0040 -0.1216
   30MOL   C23831616   7.245   3.078   1.004 -0.0604 -0.1534 -0.3304
   30MOL   C23931617   7.292   3.081   0.872  0.1524  0.1836 -0.1677
   30MOL   C24031618   7.371   3.191   0.824  0.1777  0.4844 -0.6341
   30MOL   O24131619   7.431   3.191   0.700 -0.4286  0.3508  0.5568
   30MOL   C24231620   7.402   3.291   0.918  0.3191 -0.9431  0.3627
   30MOL   C24331621   7.353   3.288   1.049  0.5057  0.1103 -0.0483
   30MOL   C24431622   7.063   3.371   1.208 -0.5509 -0.3629  0.1545
   30MOL   C24531623   7.009   3.498   1.225  0.8009 -0.5895 -1.0112
   30MOL   C24631624   7.163   3.842   1.297 -0.3348 -0.3317 -0.1665
   30MOL   C24731625   7.220   3.932   1.200 -0.0237 -0.8434 -0.0794
   30MOL   C24831626   7.289   4.341   0.958 -0.5756 -0.3223  0.2854
   30MOL   C24931627   7.285   4.480   0.992 -0.1573 -0.7978  0.9299
   30MOL   H25031628   7.099   4.460   1.275 -0.0189 -1.9254  1.2870
   30MOL   H25131629   7.101   4.214   1.212  0.8898  0.7981  0.6348
   30MOL   H25231630   6.938   3.977   1.009 -0.2251  0.1766  0.0616
   30MOL   H25331631   6.859   3.790   1.152 -0.8504  3.2165 -0.9948
   30MOL   H25431632   7.180   3.579   1.506 -1.4628  0.5195 -0.2053
   30MOL   H25531633   7.277   3.360   1.484 -0.1718  1.2476  1.4053
   30MOL   H25631634   7.357   3.182   1.431 -1.0305 -1.3762 -0.6247
   30MOL   H25731635   7.460   3.205   1.298  0.0253  0.4970  0.2261
   30MOL   H25831636   7.396   3.052   1.329  3.2242  0.7598  1.6870
   30MOL   H25931637   7.174   2.977   1.245 -0.3241 -0.2869 -0.0266
   30MOL   H26031638   7.114   3.065   1.381 -1.7949 -0.0710 -0.2126
   30MOL   H26131639   7.033   3.085   1.230  0.4562  1.4620 -0.3853
   30MOL   H26231640   7.178   2.997   1.026 -1.9554  1.4513 -0.0358
   30MOL   H26331641   7.275   3.001   0.802  0.6841 -0.5940  0.5881
   30MOL   H26431642   7.469   3.372   0.893  0.1947 -1.4785 -1.7785
   30MOL   H26531643   7.387   3.364   1.118  0.9952  0.7993 -1.0235
   30MOL   H26631644   7.035   3.312   1.122  0.2568  0.8509 -0.9597
   30MOL   H26731645   6.938   3.536   1.153 -3.1380 -1.1885  2.3669
   30MOL   H26831646   7.213   3.801   1.383 -2.5148 -0.0410  1.2607
   30MOL   H26931647   7.318   3.973   1.222 -0.1863 -0.2444 -0.4585
   30MOL   H27031648   7.336   4.306   0.867 -0.4565 -1.8638  0.9246
   30MOL   H27131649   7.336   4.552   0.929 -2.4914 -0.7448 -0.9567
   30MOL   C27231650   7.465   3.314   0.646 -0.5055 -0.3995 -0.2409
   30MOL   C27331651   7.401   3.363   0.533  0.5443  0.1360  0.1934
   30MOL   C27431652   7.434   3.492   0.484 -0.4436 -0.2230  0.7275
   30MOL   C27531653   7.556   3.552   0.529 -0.0086  0.2296  0.4869
   30MOL   S27631654   7.625   3.690   0.439 -0.0224  0.0872  0.3860
   30MOL   O27731655   7.517   3.757   0.369  0.3109  0.4682  0.3349
   30MOL   O27831656   7.739   3.639   0.363  0.1518 -0.3249 -0.4519
   30MOL   C27931657   7.678   3.811   0.553 -0.6249  0.6962  0.0016
   30MOL   C28031658   7.812   3.836   0.575 -0.0601  0.6756  0.5094
   30MOL   C28131659   7.847   3.942   0.660  0.0993  0.0611  0.0876
   30MOL   C28231660   7.744   4.021   0.717 -0.6624 -0.7264 -0.5810
   30MOL   O28331661   7.775   4.118   0.808  0.5168  0.6314 -0.1139
   30MOL   C28431662   7.734   4.238   0.769 -0.1739 -0.0207  0.3805
   30MOL   C28531663   7.778   4.291   0.644  0.1570  0.2949  0.1099
   30MOL   C28631664   7.737   4.420   0.604  0.1538  0.5382  0.4614
   30MOL   C28731665   7.663   4.500   0.692 -0.8214  0.1952 -0.5652
   30MOL   C28831666   7.627   4.647   0.648 -0.0290  0.3817 -0.0501
   30MOL   C28931667   7.532   4.711   0.751  0.2830 -0.5907  0.2552
   30MOL   C29031668   7.759   4.721   0.636 -0.0450 -0.1587 -0.3703
   30MOL   C29131669   7.568   4.657   0.511  0.7356 -0.4158  0.7397
   30MOL   C29231670   7.510   4.543   0.446 -0.8830  0.1303 -0.1226
   30MOL   C29331671   7.464   4.550   0.313  0.0204  0.2573 -0.5443
   30MOL   C29431672   7.464   4.679   0.245  0.3888  0.2200 -0.1385
   30MOL   O29531673   7.389   4.692   0.128  0.3943  0.2312  0.4442
   30MOL   C29631674   7.506   4.796   0.309  0.2690  0.4769 -0.5525
   30MOL   C29731675   7.561   4.780   0.437  0.4330 -0.4538 -0.3830
   30MOL   C29831676   7.640   4.450   0.825 -0.0708 -0.0109 -0.2196
   30MOL   C29931677   7.670   4.320   0.859 -0.1795 -0.9180  0.3603
   30MOL   C30031678   7.608   3.987   0.697  0.4788  0.1357 -0.3896
   30MOL   C30131679   7.575   3.886   0.615 -0.5602 -1.1434  0.2143
   30MOL   C30231680   7.644   3.482   0.616 -0.2075  0.0901  0.0926
   30MOL   C30331681   7.596   3.367   0.678 -0.1035  0.1835  0.5079
   30MOL   H30431682   7.319   3.310   0.487 -1.0867  1.9091  0.9630
   30MOL   H30531683   7.388   3.530   0.394  1.5115 -0.2623 -0.3319
   30MOL   H30631684   7.884   3.776   0.521 -0.6415  1.6427 -1.3777
   30MOL   H30731685   7.952   3.956   0.679  0.3216 -0.7986 -0.4855
   30MOL   H30831686   7.831   4.226   0.576 -0.9928 -2.2205  1.5365
   30MOL   H30931687   7.769   4.459   0.508  1.0832 -1.5908 -0.1274
   30MOL   H31031688   7.452   4.645   0.785  0.1721 -0.3823  0.3942
   30MOL   H31131689   7.501   4.806   0.708  0.2318 -0.9420 -0.4847
   30MOL   H31231690   7.587   4.743   0.840  0.0631 -0.6426  0.4106
   30MOL   H31331691   7.829   4.689   0.714  0.0735 -0.0812 -0.4447
   30MOL   H31431692   7.815   4.692   0.547  0.4157 -3.5772  0.9479
   30MOL   H31531693   7.753   4.830   0.639 -0.5257 -0.1231 -2.2185
   30MOL   H31631694   7.507   4.444   0.488  0.9254 -0.2421 -0.8104
   30MOL   H31731695   7.425   4.467   0.256  1.2265  0.6041 -1.9148
   30MOL   H31831696   7.508   4.891   0.260 -2.0310  0.1273 -1.3757
   30MOL   H31931697   7.609   4.866   0.482 -0.1022 -0.4467  0.1889
   30MOL   H32031698   7.610   4.514   0.907  0.5507 -1.0149  0.8117
   30MOL   H32131699   7.657   4.283   0.960 -3.3952  0.4650  0.5106
   30MOL   H32231700   7.531   4.048   0.741 -1.0172 -1.7237 -0.3731
   30MOL   H32331701   7.472   3.874   0.586 -1.4481  0.5908  2.5249
   30MOL   H32431702   7.738   3.527   0.646 -1.7559  1.5704  2.9672
   30MOL   H32531703   7.662   3.322   0.751  2.1603  0.2458 -1.4627
   30MOL   C32631704   7.410   4.606   0.025 -0.2703  0.7468 -0.7235
   30MOL   C32731705   7.307   4.522   8.231 -0.3563  0.5804 -0.5005
   30MOL   C32831706   7.330   4.429   8.129  0.5040 -0.1309  0.6447
   30MOL   C32931707   7.457   4.410   8.078 -0.1947  0.5850  0.5251
   30MOL   S33031708   7.492   4.278   7.966 -0.0643 -0.1653 -0.1064
   30MOL   O33131709   7.375   4.190   7.958  0.1443 -0.0005  0.3207
   30MOL   O33231710   7.619   4.217   8.003 -0.0831 -0.4698 -0.0624
   30MOL   C33331711   7.527   4.352   7.804 -0.2312  0.3424 -0.1638
   30MOL   C33431712   7.444   4.306   7.696 -0.4783 -0.0977 -0.1329
   30MOL   C33531713   7.490   4.334   7.566 -0.4132  0.0936  0.5578
   30MOL   C33631714   7.603   4.420   7.542  0.0965  1.4560  0.0437
   30MOL   O33731715   7.634   4.449   7.407  0.0503 -0.1462 -0.4122
   30MOL   C33831716   7.727   4.367   7.351 -0.0615 -0.6794  0.2949
   30MOL   C33931717   7.860   4.365   7.390  0.5285  0.1584  0.2551
   30MOL   C34031718   7.944   4.272   7.331 -0.7478  0.5293 -0.6466
   30MOL   C34131719   7.901   4.166   7.245  0.0632 -0.9422 -0.6627
   30MOL   C34231720   8.003   4.072   7.179  0.0359 -0.5801  0.4427
   30MOL   C34331721   8.081   4.156   7.075  0.3360 -0.0869  0.2562
   30MOL   C34431722   8.112   4.025   7.275 -0.1629 -0.1619 -0.3144
   30MOL   C34531723   7.927   3.953   7.107  0.2128  0.8565  0.2735
   30MOL   C34631724   7.902   3.949   6.970  1.5428  0.5468  0.0388
   30MOL   C34731725   7.818   3.852   6.915  0.5308  0.3000  0.0187
   30MOL   C34831726   7.765   3.750   6.995  0.2998 -0.9236 -0.0312
   30MOL   O34931727   7.691   3.652   6.935  0.2346 -0.6482  0.2045
   30MOL   C35031728   7.804   3.742   7.129  0.3036  0.1162 -0.1089
   30MOL   C35131729   7.880   3.844   7.185  0.2603 -0.7583  0.1274
   30MOL   C35231730   7.772   4.180   7.196  0.4326  0.0726  0.1475
   30MOL   C35331731   7.684   4.276   7.252 -0.1475  0.4517  0.2543
   30MOL   C35431732   7.667   4.481   7.649 -0.2630  0.2546  0.2060
   30MOL   C35531733   7.630   4.448   7.779  0.4323  0.2933 -0.0185
   30MOL   C35631734   7.565   4.491   8.122  0.5153 -0.7900 -0.0746
   30MOL   C35731735   7.535   4.595   8.215 -0.4023  0.4838 -0.6685
   30MOL   H35831736   7.211   4.521   0.027  0.7410  2.8380  1.7535
   30MOL   H35931737   7.247   4.364   8.105  0.5919 -0.3893  1.0251
   30MOL   H36031738   7.373   4.227   7.717  0.2762 -0.6931  0.2130
   30MOL   H36131739   7.443   4.280   7.485  0.9568 -1.9306  1.0851
   30MOL   H36231740   7.894   4.430   7.469 -2.7432 -0.9846  2.7334
   30MOL   H36331741   8.046   4.278   7.365 -1.3534 -2.0941  1.8480
   30MOL   H36431742   8.147   4.237   7.109  0.7027  0.3699 -1.4919
   30MOL   H36531743   8.008   4.203   7.009 -0.2262 -0.7320  0.4198
   30MOL   H36631744   8.141   4.088   7.015  1.8424  1.3985  0.0467
   30MOL   H36731745   8.080   3.947   7.345  2.3058  0.1054  1.1665
   30MOL   H36831746   8.199   3.990   7.218 -0.7089 -0.0859 -1.2007
   30MOL   H36931747   8.155   4.101   7.340  1.9129 -1.5296 -0.0353
   30MOL   H37031748   7.934   4.024   6.899  3.1983  0.3302  0.5365
   30MOL   H37131749   7.794   3.858   6.810  0.3324  1.8293  0.1416
   30MOL   H37231750   7.756   3.667   7.191 -0.1314 -0.1702 -0.7861
   30MOL   H37331751   7.897   3.838   7.292  3.1307  1.6902 -0.1036
   30MOL   H37431752   7.734   4.119   7.115  0.7095  0.6875 -0.4487
   30MOL   H37531753   7.583   4.271   7.214  0.8942 -3.4601 -2.2846
   30MOL   H37631754   7.740   4.557   7.626  1.4818 -1.0284  1.3880
   30MOL   H37731755   7.695   4.479   7.860  1.6628 -3.9032  0.7162
   30MOL   H37831756   7.665   4.483   8.082  0.3629  0.8813 -0.8132
   30MOL   H37931757   7.616   4.660   8.244  0.3436 -0.0834 -1.4634
   30MOL   C38031758   7.749   3.552   6.859 -0.5780 -0.6728 -0.3880
   30MOL   C38131759   7.671   3.446   6.801  0.6892  0.1964  0.0848
   30MOL   C38231760   7.734   3.336   6.736 -0.7237 -0.0032 -0.2114
   30MOL   C38331761   7.873   3.328   6.726 -0.1068  0.1296 -0.2278
   30MOL   S38431762   7.949   3.183   6.657 -0.8594 -0.2874  0.1024
   30MOL   O38531763   7.957   3.187   6.510 -0.4914  0.3815  0.0506
   30MOL   O38631764   7.895   3.059   6.714  0.8712  0.6380 -0.3808
   30MOL   C38731765   8.113   3.191   6.717 -0.9938 -0.2414  0.4423
   30MOL   C38831766   8.140   3.175   6.857  0.0446  1.2240  0.2909
   30MOL   C38931767   0.021   3.183   6.896  0.1352 -0.0471  0.3703
   30MOL   C39031768   0.126   3.188   6.804 -0.1318 -1.0960  0.1279
   30MOL   O39131769   0.251   3.208   6.852 -0.1856 -0.1166 -0.0876
   30MOL   C39231770   0.332   3.102   6.844  0.7258  0.1842 -0.2102
   30MOL   C39331771   0.316   2.995   6.935 -0.3201 -0.4816 -0.2048
   30MOL   C39431772   0.413   2.899   6.935 -0.7896 -0.6024 -0.0488
   30MOL   C39531773   0.517   2.896   6.839 -0.5128 -0.4557  0.7669
   30MOL   C39631774   0.626   2.795   6.840  0.2247 -0.2199 -0.0653
   30MOL   C39731775   0.742   2.860   6.913 -0.1142  0.5616  0.0610
   30MOL   C39831776   0.597   2.661   6.926 -0.5279  0.2094 -0.1724
   30MOL   C39931777   0.671   2.741   6.702  0.0644  0.6376 -0.4283
   30MOL   C40031778   0.572   2.695   6.614 -0.6471  0.9585  0.0796
   30MOL   C40131779   0.613   2.637   6.493  0.0284  0.8458 -0.2103
   30MOL   C40231780   0.747   2.620   6.454 -0.2088 -0.1047 -0.8977
   30MOL   O40331781   0.774   2.562   6.335 -0.1884 -0.2596  0.4673
   30MOL   C40431782   0.845   2.672   6.545  1.0805 -0.4496  0.9592
   30MOL   C40531783   0.806   2.732   6.667  0.5125 -0.6531 -0.0374
   30MOL   C40631784   0.529   2.995   6.745 -0.4409  0.2576 -0.4151
   30MOL   C40731785   0.428   3.098   6.744 -0.2660  0.0703  0.2565
   30MOL   C40831786   0.103   3.187   6.662  0.2703 -0.4258 -0.4109
   30MOL   C40931787   8.219   3.198   6.620  0.0168  0.9129  0.0492
   30MOL   C41031788   7.947   3.430   6.780 -0.7596 -0.4125 -0.1090
   30MOL   C41131789   7.888   3.541   6.850  0.4959 -0.3984 -0.3032
   30MOL   H41231790   7.563   3.451   6.802  0.6331 -0.6567 -0.6657
   30MOL   H41331791   7.677   3.258   6.687  1.0121 -0.4038 -1.6310
   30MOL   H41431792   8.060   3.173   6.929 -1.3497  3.0451 -1.1369
   30MOL   H41531793   0.038   3.182   7.003 -0.4645 -0.3063  0.4686
   30MOL   H41631794   0.236   2.992   7.008  1.3567 -0.6088  1.6950
   30MOL   H41731795   0.405   2.821   7.009  1.1394  0.8476  1.7415
   30MOL   H41831796   0.709   2.879   7.015 -1.9424  0.6992 -0.5373
   30MOL   H41931797   0.771   2.950   6.859  2.6878 -0.1292  0.3623
   30MOL   H42031798   0.826   2.797   6.940  0.0077  1.5534  2.1493
   30MOL   H42131799   0.675   2.585   6.925 -1.6985 -1.0752  2.3442
   30MOL   H42231800   0.574   2.692   7.028 -1.9570 -0.0008 -0.4181
   30MOL   H42331801   0.511   2.608   6.885 -0.6340 -0.4056  0.8342
   30MOL   H42431802   0.468   2.705   6.640 -0.8423  1.9103 -0.9864
   30MOL   H42531803   0.539   2.597   6.425 -0.5694  2.8503 -0.7704
   30MOL   H42631804   0.946   2.679   6.510  1.6344 -0.7807  2.4235
   30MOL   H42731805   0.869   2.763   6.750 -0.7414 -0.3979  0.8357
   30MOL   H42831806   0.607   2.988   6.670  1.0620  2.6691  0.8713
   30MOL   H42931807   0.421   3.174   6.668 -0.8014 -1.0392 -0.8232
   30MOL   H43031808   0.182   3.182   6.590 -0.5241  1.0668 -1.4154
   30MOL   H43131809   8.200   3.218   6.516 -4.2331  1.2202  0.7876
   30MOL   H43231810   8.055   3.425   6.778 -0.6571  0.6245  1.8926
   30MOL   H43331811   7.954   3.605   6.908  0.4215  0.1512 -0.8302
   30MOL   C43431812   0.704   2.597   6.227 -0.0035  0.2468 -0.8610
   30MOL   C43531813   0.688   2.731   6.199  0.6555 -0.3487  0.3876
   30MOL   C43631814   0.623   2.776   6.083 -0.0298  0.1124  0.4957
   30MOL   C43731815   0.561   2.678   6.000 -0.2506  0.1168 -0.4271
   30MOL   S43831816   0.449   2.719   5.866 -0.3967  0.4984 -0.1048
   30MOL   O43931817   0.367   2.834   5.908  0.3345 -0.8704 -0.4621
   30MOL   O44031818   0.383   2.591   5.830  0.3600 -0.0219 -0.0677
   30MOL   C44131819   0.551   2.769   5.728 -0.3117  0.3670  0.0818
   30MOL   C44231820   0.653   2.871   5.746  0.5344 -0.7212 -0.0473
   30MOL   C44331821   0.720   2.916   5.628 -0.1466 -0.2537 -0.2073
   30MOL   C44431822   0.685   2.860   5.503  0.3190  0.4279 -0.7055
   30MOL   O44531823   0.759   2.901   5.395  0.0923  0.6785  0.1779
   30MOL   C44631824   0.717   2.873   5.264  0.2445  1.1041  0.8155
   30MOL   C44731825   0.613   2.942   5.206  0.1448  0.1265 -0.0597
   30MOL   C44831826   0.582   2.911   5.075 -0.2713  0.1012  0.3460
   30MOL   C44931827   0.647   2.802   5.004  0.3076 -0.4659  0.4109
   30MOL   C45031828   0.616   2.776   4.849 -0.7372  0.1278  0.0036
   30MOL   C45131829   0.734   2.712   4.779 -0.3469 -0.0400 -0.3569
   30MOL   C45231830   0.501   2.675   4.852  0.7987  0.3274  0.3827
   30MOL   C45331831   0.584   2.904   4.780  0.0342  0.4527 -1.0921
   30MOL   C45431832   0.681   3.005   4.754  0.0498  0.5003  0.9018
   30MOL   C45531833   0.660   3.117   4.675 -0.5980  0.4260 -0.4369
   30MOL   C45631834   0.528   3.148   4.645  0.6716  0.1112 -0.2564
   30MOL   O45731835   0.492   3.264   4.578 -0.1025 -0.0308  0.2908
   30MOL   C45831836   0.420   3.063   4.680 -0.8157  0.6823 -0.1302
   30MOL   C45931837   0.453   2.937   4.740 -0.6872  0.3752  0.6454
   30MOL   C46031838   0.754   2.730   5.071 -0.2535  0.1156  0.1528
   30MOL   C46131839   0.796   2.773   5.198  0.0288 -0.4146 -0.4060
   30MOL   C46231840   0.599   2.750   5.491 -0.0119  0.2652 -0.6405
   30MOL   C46331841   0.523   2.710   5.607  0.5205  0.6349 -0.1067
   30MOL   C46431842   0.569   2.540   6.042  0.3834 -0.6485 -0.1367
   30MOL   C46531843   0.648   2.504   6.144  0.4053  0.3304  0.3571
   30MOL   H46631844   0.731   2.800   6.271  0.6320 -0.4242  0.4749
   30MOL   H46731845   0.603   2.880   6.061  0.4572  0.1744  0.3494
   30MOL   H46831846   0.662   2.925   5.839 -0.6014 -2.4036  1.0741
   30MOL   H46931847   0.794   2.994   5.640  0.3066 -0.8697  0.9944
   30MOL   H47031848   0.554   3.018   5.255  0.0186 -0.6559  1.0114
   30MOL   H47131849   0.500   2.965   5.031  1.3769  2.4061 -0.0051
   30MOL   H47231850   0.824   2.773   4.778 -0.2052 -0.1937  1.4055
   30MOL   H47331851   0.695   2.704   4.677  2.0327 -0.6096 -1.2634
   30MOL   H47431852   0.755   2.612   4.814  2.7818  0.2548 -1.2735
   30MOL   H47531853   0.462   2.676   4.750 -2.1416 -0.5590  1.4476
   30MOL   H47631854   0.531   2.572   4.872  0.2818 -0.6075 -3.1893
   30MOL   H47731855   0.432   2.720   4.923  0.9906  4.9817 -2.1540
   30MOL   H47831856   0.782   2.981   4.783 -0.5303  0.4804  2.9906
   30MOL   H47931857   0.746   3.176   4.647 -0.7522  0.6493 -0.4466
   30MOL   H48031858   0.320   3.099   4.658 -0.4961  0.2233 -2.4499
   30MOL   H48131859   0.369   2.872   4.762 -0.3169  0.0014  0.9795
   30MOL   H48231860   0.804   2.648   5.022 -1.4200  1.0784 -2.8290
   30MOL   H48331861   0.868   2.712   5.251  0.6113  1.3463  0.8782
   30MOL   H48431862   0.578   2.703   5.395  0.7296 -0.5419 -0.4134
   30MOL   H48531863   0.447   2.635   5.591  1.4010 -0.3771  0.3669
   30MOL   H48631864   0.512   2.466   5.989 -0.2112  0.3637 -0.9505
   30MOL   H48731865   0.659   2.399   6.166 -1.6443  0.3804  1.8203
   30MOL   C48831866   0.580   3.326   4.491  0.2447  0.3112  0.1789
   30MOL   C48931867   0.658   3.428   4.554  0.9956 -0.0592  0.1713
   30MOL   C49031868   0.783   3.463   4.493 -0.2554  0.5216 -0.1586
   30MOL   C49131869   0.830   3.394   4.384  0.4485  0.0410 -0.2190
   30MOL   S49231870   0.998   3.418   4.328  0.3671 -0.3451 -0.1088
   30MOL   O49331871   1.064   3.526   4.404 -0.2584  0.4057 -0.3339
   30MOL   O49431872   1.004   3.416   4.181 -0.4143  0.0697 -0.3331
   30MOL   C49531873   1.075   3.271   4.393 -0.0149  0.2024 -0.1703
   30MOL   C49631874   1.138   3.283   4.522 -0.1988 -0.1326 -0.1481
   30MOL   C49731875   1.181   3.167   4.583 -0.1039  0.7648  0.0020
   30MOL   C49831876   1.176   3.038   4.522  0.1206  0.1554 -0.0822
   30MOL   O49931877   1.217   2.925   4.602 -0.2650 -0.2391  0.3899
   30MOL   C50031878   1.337   2.865   4.573 -0.4417 -0.2542  0.1211
   30MOL   C50131879   1.370   2.821   4.445  0.7468 -0.1864 -0.5579
   30MOL   C50231880   1.479   2.731   4.418 -0.8882  0.1766 -0.0917
   30MOL   C50331881   1.563   2.687   4.524 -0.5275  0.0642  0.0594
   30MOL   C50431882   1.687   2.593   4.504 -0.0025 -0.8136  0.6467
   30MOL   C50531883   1.695   2.538   4.357 -0.2147  0.5712 -0.4032
   30MOL   C50631884   1.813   2.686   4.539 -0.5567  0.2064 -0.3071
   30MOL   C50731885   1.661   2.477   4.597 -0.2490 -0.9922 -0.3450
   30MOL   C50831886   1.554   2.388   4.565 -0.0517 -0.2001 -0.3846
   30MOL   C50931887   1.529   2.275   4.643  0.4302 -0.5489  0.3852
   30MOL   C51031888   1.611   2.242   4.749  0.9698 -0.0403 -0.0828
   30MOL   O51131889   1.583   2.124   4.823  0.7324 -0.1456  0.7988
   30MOL   C51231890   1.721   2.326   4.779  0.4640  0.3748  0.4447
   30MOL   C51331891   1.746   2.442   4.705  0.1816 -0.1637 -0.5990
   30MOL   C51431892   1.528   2.741   4.652 -0.0861  0.1304  0.3464
   30MOL   C51531893   1.419   2.821   4.677 -1.2220 -0.4216  0.3699
   30MOL   C51631894   1.117   3.032   4.395 -0.3400 -0.8368  0.5072
   30MOL   C51731895   1.071   3.148   4.331  0.3314  0.3071  0.3139
   30MOL   C51831896   0.742   3.303   4.313 -0.0656 -0.0498 -0.4729
   30MOL   C51931897   0.619   3.270   4.369  0.8245  0.4575  0.1563
   30MOL   H52031898   0.629   3.483   4.643 -3.8359  0.0977 -1.3206
   30MOL   H52131899   0.844   3.522   4.559  1.2790 -0.8394 -0.3242
   30MOL   H52231900   1.152   3.383   4.562  0.6907 -0.5660  0.6275
   30MOL   H52331901   1.219   3.163   4.684 -0.7531 -2.1660  0.1665
   30MOL   H52431902   1.299   2.839   4.365  2.2392 -0.0068 -1.8584
   30MOL   H52531903   1.497   2.700   4.316  0.4549  1.1720 -0.1818
   30MOL   H52631904   1.737   2.603   4.280 -0.4158  0.7274 -0.3821
   30MOL   H52731905   1.605   2.487   4.323  1.2935 -3.0540  0.8385
   30MOL   H52831906   1.775   2.465   4.350 -0.3621  0.0521  2.6593
   30MOL   H52931907   1.904   2.625   4.537  0.2463  1.4020 -0.7987
   30MOL   H53031908   1.821   2.769   4.469 -0.4049  0.2848 -0.1982
   30MOL   H53131909   1.822   2.738   4.634  2.9879 -1.0065  0.1165
   30MOL   H53231910   1.489   2.416   4.484 -1.2210 -1.1829  0.1975
   30MOL   H53331911   1.451   2.205   4.617  1.3743 -0.8341 -1.7580
   30MOL   H53431912   1.793   2.288   4.850  0.9512  2.1630  0.9062
   30MOL   H53531913   1.834   2.500   4.731 -0.5064 -0.1504  1.8310
   30MOL   H53631914   1.585   2.699   4.733  1.3532  0.2428 -0.5872
   30MOL   H53731915   1.389   2.857   4.774  4.0895 -0.3646  2.1934
   30MOL   H53831916   1.110   2.932   4.355  1.0127  0.1818 -2.3712
   30MOL   H53931917   1.029   3.141   4.232 -0.3539  2.6879  0.3906
   30MOL   H54031918   0.775   3.254   4.223 -1.4466  0.7461 -1.4236
   30MOL   H54131919   0.570   3.188   4.318  0.2432 -0.2871  1.8925
   30MOL   C54231920   1.492   2.127   4.928 -0.0529 -0.7599 -0.1983
   30MOL   C54331921   1.400   2.026   4.931 -0.3674 -0.0185 -0.4240
   30MOL   C54431922   1.305   2.024   5.038 -0.4841  0.1159  0.4017
   30MOL   C54531923   1.315   2.117   5.140 -0.6762  0.5245 -0.2696
   30MOL   S54631924   1.203   2.115   5.274  0.1913 -0.2310  0.0830
   30MOL   O54731925   1.260   2.195   5.382 -0.2094 -0.3984 -0.5705
   30MOL   O54831926   1.164   1.976   5.308 -0.0682 -0.2032  0.8777
   30MOL   C54931927   1.063   2.201   5.207  0.6550 -0.1694 -0.3481
   30MOL   C55031928   0.964   2.123   5.138  0.7867  0.3173 -0.0331
   30MOL   C55131929   0.864   2.191   5.061 -0.2910 -0.2930 -0.2309
   30MOL   C55231930   0.858   2.330   5.056  0.7953  0.4464 -0.3770
   30MOL   O55331931   0.762   2.403   4.990  0.1367 -0.5762  0.2256
   30MOL   C55431932   0.681   2.350   4.891  1.1132  0.9374 -0.4313
   30MOL   C55531933   0.729   2.325   4.760  0.5782 -0.3837 -0.1823
   30MOL   C55631934   0.640   2.272   4.663  0.2789 -0.9464  0.4004
   30MOL   C55731935   0.506   2.240   4.694 -0.3139  0.2231  0.0367
   30MOL   C55831936   0.408   2.187   4.588 -0.3273  1.1387  0.1374
   30MOL   C55931937   0.458   2.042   4.558 -0.6705  0.4590  0.3496
   30MOL   C56031938   0.255   2.168   4.632  0.1849  0.1593 -0.0248
   30MOL   C56131939   0.415   2.275   4.465  0.1963 -0.0759  0.1603
   30MOL   C56231940   0.442   2.221   4.336 -0.1191  0.1465 -0.7691
   30MOL   C56331941   0.428   2.311   4.225  0.4231 -0.5889 -0.5405
   30MOL   C56431942   0.385   2.443   4.244 -0.9448 -0.7405 -0.4375
   30MOL   O56531943   0.355   2.523   4.136  0.3368  0.2228 -0.1123
   30MOL   C56631944   0.359   2.494   4.375  0.6313 -0.5058 -0.4211
   30MOL   C56731945   0.376   2.411   4.484 -0.3699 -0.1603 -0.2227
   30MOL   C56831946   0.463   2.253   4.825  0.8148 -0.2932  0.5549
   30MOL   C56931947   0.552   2.303   4.921 -0.4446  0.0455  0.6350
   30MOL   C57031948   0.961   2.404   5.124  0.1784  0.2117 -0.0274
   30MOL   C57131949   1.055   2.338   5.200 -0.0101  0.1373 -0.0607
   30MOL   C57231950   1.410   2.223   5.133 -0.4187 -0.4261  0.1001
   30MOL   C57331951   1.504   2.223   5.031 -0.0335  0.0437 -0.1278
   30MOL   H57431952   1.401   1.945   4.859  0.6373 -1.8761  1.6187
   30MOL   H57531953   1.234   1.943   5.038 -0.7924  0.3830  0.7881
   30MOL   H57631954   0.976   2.017   5.124 -2.0483 -0.3020  1.8377
   30MOL   H57731955   0.787   2.141   5.003  0.5734 -0.5776 -1.1494
   30MOL   H57831956   0.833   2.343   4.739  0.6223  0.1862  0.5132
   30MOL   H57931957   0.686   2.245   4.570 -0.9898  0.9788 -0.8117
   30MOL   H58031958   0.386   1.987   4.497  2.1295 -0.0636 -2.6902
   30MOL   H58131959   0.489   1.977   4.640  0.4528  0.5590  0.0146
   30MOL   H58231960   0.551   2.051   4.501 -1.3276 -1.0620 -1.0157
   30MOL   H58331961   0.194   2.147   4.544 -0.9738 -0.0158  0.8076
   30MOL   H58431962   0.256   2.084   4.702  1.4316  3.5753  4.2599
   30MOL   H58531963   0.200   2.250   4.677 -0.2082  0.0598 -0.3198
   30MOL   H58631964   0.460   2.118   4.309  0.3120 -0.3529  1.3819
   30MOL   H58731965   0.438   2.268   4.126 -2.1963  0.3607 -1.2517
   30MOL   H58831966   0.321   2.592   4.400  3.9258  0.6249  0.5370
   30MOL   H58931967   0.355   2.458   4.578  0.1045  1.5113 -0.9325
   30MOL   H59031968   0.367   2.212   4.855  1.4061 -1.1640  1.2867
   30MOL   H59131969   0.531   2.304   5.027 -2.9935 -3.6835  0.2514
   30MOL   H59231970   0.981   2.509   5.109 -0.8597  0.3098 -0.7646
   30MOL   H59331971   1.121   2.411   5.245  0.3501 -0.6855  0.7500
   30MOL   H59431972   1.408   2.301   5.208 -1.1364  0.1246 -0.4807
   30MOL   H59531973   1.575   2.304   5.027 -0.3706  0.2905 -1.4698
   30MOL   C59631974   0.429   2.635   4.114 -0.7823  0.3642  0.3352
   30MOL   C59731975   0.381   2.754   4.168  0.4350 -0.3012 -0.1901
   30MOL   C59831976   0.437   2.880   4.137 -0.2985  0.3096 -0.3135
   30MOL   C59931977   0.553   2.871   4.049  1.0831  0.1389  0.0646
   30MOL   S60031978   0.645   3.020   4.016 -0.4572 -0.0055 -0.1921
   30MOL   O60131979   0.782   2.997   4.075  0.0305 -0.0669  0.2004
   30MOL   O60231980   0.558   3.133   4.057  0.2078  0.5490  0.2781
   30MOL   C60331981   0.664   3.013   3.839  0.4416 -1.0535  0.4133
   30MOL   C60431982   0.564   3.071   3.759 -0.0487 -0.0857  0.2485
   30MOL   C60531983   0.574   3.052   3.625 -0.2096 -0.4933  0.1692
   30MOL   C60631984   0.689   2.994   3.566 -0.9996 -0.0248  0.3064
   30MOL   O60731985   0.703   2.969   3.429 -1.1985  0.1064 -0.3968
   30MOL   C60831986   0.726   3.080   3.349 -0.5657 -0.5895 -0.0222
   30MOL   C60931987   0.672   3.078   3.218 -0.0209  0.1215 -0.0524
   30MOL   C61031988   0.679   3.183   3.130  0.2789 -0.3625 -0.6949
   30MOL   C61131989   0.742   3.303   3.172  0.3246  0.1254 -0.0029
   30MOL   C61231990   0.754   3.426   3.081 -0.3675 -0.6483  0.3799
   30MOL   C61331991   0.656   3.434   2.967 -1.0355  0.0347  0.5969
   30MOL   C61431992   0.737   3.557   3.172  0.6242 -0.4450 -0.0269
   30MOL   C61531993   0.895   3.410   3.017  1.5458  0.6497 -0.7731
   30MOL   C61631994   0.923   3.300   2.938 -0.4812 -0.4747  0.9304
   30MOL   C61731995   1.047   3.288   2.868  0.8735 -0.1337  0.2819
   30MOL   C61831996   1.144   3.389   2.883  0.3575  0.1258  0.2305
   30MOL   O61931997   1.269   3.374   2.833 -0.2471 -1.3477 -0.6456
   30MOL   C62031998   1.118   3.498   2.961  0.3765 -0.2753  0.2668
   30MOL   C62131999   0.999   3.507   3.038  0.4872 -0.3785  0.1869
   30MOL   C62232000   0.795   3.307   3.302  0.3860 -0.6392  0.1037
   30MOL   C62332001   0.802   3.195   3.387  0.4469  0.9128  0.0474
   30MOL   C62432002   0.794   2.948   3.651 -0.4487 -0.1198  0.4685
   30MOL   C62532003   0.770   2.946   3.787 -0.0630  0.1836 -0.6258
   30MOL   C62632004   0.606   2.748   4.008 -0.2639 -0.3492  0.0724
   30MOL   C62732005   0.547   2.632   4.041 -0.0880  0.3874 -0.2159
   30MOL   H62832006   0.298   2.758   4.236  1.7688 -1.4449  1.5383
   30MOL   H62932007   0.395   2.973   4.171 -1.7546  0.7264 -3.0801
   30MOL   H63032008   0.479   3.116   3.809  0.6601  0.6153  0.8341
   30MOL   H63132009   0.494   3.089   3.563  0.3233 -0.6890 -0.6379
   30MOL   H63232010   0.624   2.987   3.184  0.5959  0.6037 -2.3020
   30MOL   H63332011   0.637   3.175   3.031  0.0586 -0.4280 -0.5958
   30MOL   H63432012   0.648   3.348   2.900 -0.9915  1.0089 -0.6768
   30MOL   H63532013   0.676   3.523   2.908 -1.5481 -0.1451  0.1458
   30MOL   H63632014   0.557   3.454   3.007 -2.1415 -1.0891 -1.4596
   30MOL   H63732015   0.806   3.571   3.256 -0.5888 -1.2303  1.1175
   30MOL   H63832016   0.737   3.644   3.107 -0.4655  0.8582  1.6790
   30MOL   H63932017   0.640   3.539   3.220  1.1117  0.5645  1.3832
   30MOL   H64032018   0.854   3.220   2.918 -0.4218  0.1362 -1.9714
   30MOL   H64132019   1.063   3.211   2.794 -0.1700 -0.0045 -0.0895
   30MOL   H64232020   1.196   3.573   2.963  1.4072 -1.3467  1.1326
   30MOL   H64332021   0.982   3.583   3.113 -1.8274  0.2452 -0.9041
   30MOL   H64432022   0.845   3.396   3.336  0.6996 -0.3618 -1.0403
   30MOL   H64532023   0.855   3.202   3.480  0.8065  0.3101 -0.1139
   30MOL   H64632024   0.882   2.912   3.600 -2.0605  0.1283 -2.5943
   30MOL   H64732025   0.847   2.900   3.847 -0.2588  3.0274  1.8776
   30MOL   H64832026   0.697   2.737   3.951  0.7587 -1.6216  1.8851
   30MOL   H64932027   0.585   2.538   4.002 -1.2265 -0.2206  0.1080
   30MOL   C65032028   1.289   3.287   2.729 -0.8229 -0.6255  0.1123
   30MOL   C65132029   1.355   3.165   2.756  0.7189 -0.5839 -0.1438
   30MOL   C65232030   1.415   3.099   2.647  0.3306  0.0941  0.0163
   30MOL   C65332031   1.400   3.143   2.517 -0.3155 -0.1150  0.1661
   30MOL   S65432032   1.479   3.050   2.385  0.4561  0.0457 -0.2173
   30MOL   O65532033   1.463   2.903   2.402 -0.5422 -0.2080 -0.3134
   30MOL   O65632034   1.615   3.103   2.392 -0.4594  0.5316 -0.1625
   30MOL   C65732035   1.414   3.105   2.222 -0.0461  0.1489 -0.6226
   30MOL   C65832036   1.446   3.236   2.180  0.5739  1.1069 -0.1061
   30MOL   C65932037   1.400   3.282   2.056  0.3893 -0.5625  0.4158
   30MOL   C66032038   1.313   3.198   1.980  0.0858  0.4488  0.4661
   30MOL   O66132039   1.260   3.247   1.865  0.2981 -0.1226  0.0563
   30MOL   C66232040   1.166   3.345   1.889 -0.2151 -0.2190 -0.3953
   30MOL   C66332041   1.194   3.472   1.842 -0.1430 -0.9842 -0.4705
   30MOL   C66432042   1.109   3.576   1.876  0.4216 -0.0437 -0.5138
   30MOL   C66532043   0.993   3.557   1.955  0.9091  0.2448  0.4821
   30MOL   C66632044   0.899   3.672   1.994  0.4219 -0.6188 -0.0628
   30MOL   C66732045   0.792   3.620   2.093 -0.4551 -0.1646  0.2925
   30MOL   C66832046   0.981   3.779   2.067 -0.6990  0.0665 -0.0403
   30MOL   C66932047   0.822   3.723   1.867  0.4767 -0.2593  0.2387
   30MOL   C67032048   0.779   3.857   1.854 -0.4602  0.5403  0.0305
   30MOL   C67132049   0.716   3.908   1.742 -0.1968 -0.1562  0.0075
   30MOL   C67232050   0.685   3.833   1.630  0.7290  0.9316 -0.3389
   30MOL   O67332051   0.615   3.896   1.523  0.3650 -0.1044 -0.7729
   30MOL   C67432052   0.730   3.701   1.633  0.6890  0.4557  0.1991
   30MOL   C67532053   0.794   3.646   1.748  0.4987  0.6377 -0.3212
   30MOL   C67632054   0.964   3.418   1.986  0.5706 -0.0978 -0.3567
   30MOL   C67732055   1.048   3.316   1.959 -0.3930 -0.3644  0.7348
   30MOL   C67832056   1.274   3.068   2.020  0.2587  0.2783  0.2079
   30MOL   C67932057   1.319   3.029   2.151 -0.1231  0.2198 -0.1668
   30MOL   C68032058   1.311   3.248   2.491 -0.3151 -0.4972  0.5758
   30MOL   C68132059   1.265   3.328   2.599  1.1366  0.1103 -0.1624
   30MOL   H68232060   1.385   3.136   2.855  0.0043 -1.3146 -0.1323
   30MOL   H68332061   1.463   3.004   2.666  1.6435  0.4562 -1.3743
   30MOL   H68432062   1.509   3.300   2.241  2.5113  0.1259 -1.0255
   30MOL   H68532063   1.416   3.385   2.029 -2.6056  0.0828  0.8918
   30MOL   H68632064   1.280   3.490   1.780 -0.7332 -0.0062 -1.0274
   30MOL   H68732065   1.136   3.677   1.849 -2.6884  0.1446 -3.1737
   30MOL   H68832066   0.725   3.543   2.057  0.8169 -0.1255 -2.2640
   30MOL   H68932067   0.723   3.695   2.132  0.9806  0.9325  0.7868
   30MOL   H69032068   0.829   3.575   2.185 -1.2517 -2.8703 -0.6735
   30MOL   H69132069   1.051   3.832   2.001  0.8547 -0.0770  1.4628
   30MOL   H69232070   0.919   3.854   2.115  0.1224  0.0580  1.0364
   30MOL   H69332071   1.042   3.738   2.147  0.3812 -0.2788 -1.0235
   30MOL   H69432072   0.797   3.917   1.941  2.1940  0.6467 -0.5369
   30MOL   H69532073   0.706   4.016   1.749  0.7107 -0.1661  1.7178
   30MOL   H69632074   0.720   3.621   1.561 -0.6271  1.3628 -0.6437
   30MOL   H69732075   0.822   3.541   1.747 -0.6958  0.3139 -0.4431
   30MOL   H69832076   0.867   3.385   2.020 -0.1406  2.0190 -0.2811
   30MOL   H69932077   1.010   3.221   1.993  1.2153 -0.7039  1.6373
   30MOL   H70032078   1.209   2.997   1.971 -0.3388  2.4177 -2.1436
   30MOL   H70132079   1.287   2.934   2.191 -0.8536 -0.0369 -1.3234
   30MOL   H70232080   1.294   3.270   2.387 -1.1507 -2.8723  0.1776
   30MOL   H70332081   1.211   3.420   2.580  0.0464 -0.7664 -1.3631
   30MOL   C70432082   0.580   3.831   1.408  0.9656 -0.0910  0.0174
   30MOL   C70532083   0.446   3.812   1.380  0.2544 -0.8043  0.0539
   30MOL   C70632084   0.407   3.759   1.255 -0.4740 -0.3686  0.3047
   30MOL   C70732085   0.510   3.706   1.173  0.1555 -0.7128 -0.0974
   30MOL   S70832086   0.455   3.625   1.021  0.1393  0.5540 -0.1870
   30MOL   O70932087   0.526   3.683   0.907  0.2883  0.4128 -0.5013
   30MOL   O71032088   0.306   3.631   1.016  0.1756  0.1569  0.5490
   30MOL   C71132089   0.509   3.456   1.047  0.0256  0.1219  0.1651
   30MOL   C71232090   0.643   3.412   1.035 -0.5947  0.1737  0.3540
   30MOL   C71332091   0.677   3.279   1.068  0.7177  1.2054  0.4576
   30MOL   C71432092   0.573   3.184   1.086  0.5599  0.5179  0.1880
   30MOL   O71532093   0.607   3.047   1.107 -0.1852 -0.7764 -0.1758
   30MOL   C71632094   0.536   2.985   1.205 -0.7755 -0.6612  0.0864
   30MOL   C71732095   0.440   2.889   1.172 -0.8062 -0.1079 -0.0570
   30MOL   C71832096   0.357   2.837   1.274  0.1519 -0.8144  0.2760
   30MOL   C71932097   0.364   2.885   1.409  0.0644  0.5557  0.8800
   30MOL   C72032098   0.274   2.839   1.525  0.2606  0.1895  0.2098
   30MOL   C72132099   0.180   2.724   1.485 -0.5286  0.1788 -0.1674
   30MOL   C72232100   0.357   2.772   1.645 -0.0613 -0.7162  0.0541
   30MOL   C72332101   0.179   2.954   1.573  0.4391 -0.6424 -0.8257
   30MOL   C72432102   0.115   3.051   1.489  0.0847 -0.6668  0.2996
   30MOL   C72532103   0.050   3.172   1.540 -0.0933 -0.0463 -0.0403
   30MOL   C72632104   0.035   3.187   1.679 -0.2344  0.0507  0.2755
   30MOL   O72732105   8.206   3.293   1.720 -0.0963  0.2814  0.1521
   30MOL   C72832106   0.094   3.091   1.764  0.1864  1.0160 -0.2646
   30MOL   C72932107   0.159   2.975   1.708  0.0969  0.0148 -0.1114
   30MOL   C73032108   0.460   2.979   1.435  0.8181  0.2111  0.5242
   30MOL   C73132109   0.547   3.035   1.339 -0.2536 -0.1418  0.0950
   30MOL   C73232110   0.441   3.231   1.095 -0.2460 -0.3654  0.1813
   30MOL   C73332111   0.408   3.363   1.075 -0.2891  0.8054 -0.1129
   30MOL   C73432112   0.643   3.718   1.205  0.7635  0.1631  0.4663
   30MOL   C73532113   0.678   3.779   1.324 -0.1832  0.2348 -0.4899
   30MOL   H73632114   0.363   3.864   1.426  0.7279 -1.5401  1.8142
   30MOL   H73732115   0.304   3.754   1.224 -0.3208  2.6067 -0.8394
   30MOL   H73832116   0.718   3.483   1.004 -1.0399  0.8255  0.7546
   30MOL   H73932117   0.780   3.249   1.066  0.2533 -0.6006  1.7608
   30MOL   H74032118   0.426   2.877   1.065 -0.5664 -0.8611 -0.0093
   30MOL   H74132119   0.281   2.764   1.253 -0.1008  0.4161 -3.2920
   30MOL   H74232120   0.126   2.762   1.398 -1.4479 -0.5579  0.0836
   30MOL   H74332121   0.109   2.694   1.562  0.9824 -0.4254  1.0153
   30MOL   H74432122   0.239   2.634   1.473  0.6823  0.8633  0.4872
   30MOL   H74532123   0.434   2.704   1.609  0.5348  0.2829 -0.5787
   30MOL   H74632124   0.415   2.849   1.695 -1.4117 -0.8296  1.8569
   30MOL   H74732125   0.294   2.718   1.715 -2.0378 -0.1657 -1.2364
   30MOL   H74832126   0.128   3.041   1.382 -0.0037  1.9148  0.0246
   30MOL   H74932127   8.251   3.242   1.476 -0.6529 -0.7744 -0.3980
   30MOL   H75032128   0.085   3.092   1.872 -1.3689  2.3908 -0.3794
   30MOL   H75132129   0.206   2.913   1.782 -2.7085 -0.7039  1.1525
   30MOL   H75232130   0.458   3.036   1.527  0.1840 -0.2612  0.7998
   30MOL   H75332131   0.620   3.113   1.353 -1.3726  0.4514  2.9892
   30MOL   H75432132   0.352   3.171   1.108  0.3239 -1.3856 -0.5334
   30MOL   H75532133   0.307   3.395   1.094  0.2903  2.6157  0.0410
   30MOL   H75632134   0.709   3.680   1.129  0.6528 -0.9881  0.9397
   30MOL   H75732135   0.779   3.803   1.355  0.2736  0.3808 -2.0378
   30MOL   C75832136   8.212   3.365   1.839  0.5697  0.1639 -0.2135
   30MOL   C75932137   0.077   3.385   1.915 -0.4553  0.1761  0.1400
   30MOL   C76032138   0.079   3.468   2.027 -0.3432  0.1194  0.1795
   30MOL   C76132139   8.212   3.523   2.071  0.1471  0.3672 -0.0355
   30MOL   S76232140   8.213   3.614   2.219 -0.0703  0.0272 -0.3753
   30MOL   O76332141   0.089   3.682   2.230 -0.3683  0.4858  0.0479
   30MOL   O76432142   8.167   3.522   2.321 -0.4766 -0.4348  0.4203
   30MOL   C76532143   8.089   3.740   2.203 -0.0462  0.3278  0.0254
   30MOL   C76632144   8.107   3.840   2.111  0.0220 -0.0978 -0.7292
   30MOL   C76732145   8.005   3.931   2.083 -0.2594  0.0158  0.0003
   30MOL   C76832146   7.893   3.929   2.164 -0.2327 -0.0642 -0.4404
   30MOL   O76932147   7.783   4.009   2.147 -0.0949  0.2866  0.1703
   30MOL   C77032148   7.659   3.963   2.108 -0.2173 -0.1010  0.5341
   30MOL   C77132149   7.637   3.838   2.039 -0.1671 -0.4273  0.2150
   30MOL   C77232150   7.505   3.796   2.013  0.7276 -0.5399 -0.1172
   30MOL   C77332151   7.398   3.885   2.035 -0.5824  0.5961 -0.5184
   30MOL   C77432152   7.259   3.838   2.000 -0.6893  0.5131  0.2110
   30MOL   C77532153   7.201   3.932   1.892 -0.0234  0.0829 -0.4784
   30MOL   C77632154   7.252   3.699   1.934 -0.7640  0.7061 -0.8736
   30MOL   C77732155   7.176   3.832   2.126 -0.7238  0.2531 -0.2049
   30MOL   C77832156   7.072   3.926   2.153 -0.5437 -0.0054 -0.5022
   30MOL   C77932157   7.007   3.939   2.278 -0.1996  0.6290 -0.4491
   30MOL   C78032158   7.036   3.841   2.372 -0.3786 -0.3659 -0.1532
   30MOL   O78132159   6.998   3.858   2.500 -0.2973  0.2928  0.1170
   30MOL   C78232160   7.123   3.734   2.340  0.0285  0.1423 -0.1691
   30MOL   C78332161   7.197   3.731   2.220  0.0137  0.3264 -0.2103
   30MOL   C78432162   7.422   4.007   2.102 -0.0052 -0.0645  0.4634
   30MOL   C78532163   7.551   4.047   2.139  0.5992  0.3210 -0.3681
   30MOL   C78632164   7.877   3.837   2.265  0.0681  0.1550 -0.5149
   30MOL   C78732165   7.978   3.744   2.288 -0.2186  0.3051 -0.2401
   30MOL   C78832166   8.094   3.502   1.998  0.2049 -0.1908 -0.7527
   30MOL   C78932167   8.094   3.431   1.878 -0.4517 -0.0300  0.2372
   30MOL   H79032168   0.171   3.351   1.875 -0.8966 -0.1606 -0.6050
   30MOL   H79132169   0.171   3.491   2.079  0.1727  0.5005 -0.8817
   30MOL   H79232170   8.194   3.835   2.048 -0.1630 -0.0674 -0.9868
   30MOL   H79332171   8.012   4.008   2.007  2.0186  0.2011  0.3603
   30MOL   H79432172   7.718   3.768   2.029  2.0472  2.1189 -0.2528
   30MOL   H79532173   7.486   3.695   1.983 -0.1040 -0.8569  1.4161
   30MOL   H79632174   7.096   3.916   1.866 -0.5439 -1.0116  2.0709
   30MOL   H79732175   7.257   3.913   1.801 -2.0567 -0.2264 -1.7016
   30MOL   H79832176   7.207   4.035   1.928 -3.0771 -0.6097  2.2464
   30MOL   H79932177   7.150   3.675   1.902 -1.0615  2.0750 -0.9519
   30MOL   H80032178   7.301   3.688   1.838 -0.6494 -0.5229 -0.6885
   30MOL   H80132179   7.290   3.618   1.997  1.6548 -0.2210 -3.4510
   30MOL   H80232180   7.051   4.006   2.083  0.4192 -0.4001 -1.2589
   30MOL   H80332181   6.943   4.024   2.297 -0.0398  0.9187 -1.1922
   30MOL   H80432182   7.149   3.656   2.411  0.4221 -1.0916 -1.6427
   30MOL   H80532183   7.276   3.660   2.201  1.3178  1.5870  0.4936
   30MOL   H80632184   7.353   4.087   2.120  0.8595  1.7901 -3.7673
   30MOL   H80732185   7.551   4.129   2.209 -1.9646  0.0563  0.0113
   30MOL   H80832186   7.793   3.840   2.333 -0.2746 -1.1371 -0.8679
   30MOL   H80932187   7.972   3.668   2.365  1.8795 -0.2532 -0.6004
   30MOL   H81032188   8.000   3.536   2.039 -0.5106  0.9846 -3.3039
   30MOL   H81132189   8.002   3.394   1.834  1.2873 -0.9024 -2.7572
   30MOL   C81232190   7.090   3.927   2.577  0.3273 -0.0659  0.5008
   30MOL   C81332191   7.104   4.067   2.581  0.3753  0.3391 -0.4505
   30MOL   C81432192   7.213   4.121   2.655  0.6142  0.2646  0.0491
   30MOL   C81532193   7.294   4.041   2.733  0.0033  0.9407 -0.6515
   30MOL   S81632194   7.423   4.109   2.832 -0.3136 -0.5562 -0.2242
   30MOL   O81732195   7.431   4.035   2.959  0.3658  0.2350 -0.1851
   30MOL   O81832196   7.391   4.248   2.845 -0.3788  0.5061  0.1326
   30MOL   C81932197   7.574   4.105   2.736 -0.1212  0.1829 -0.4324
   30MOL   C82032198   7.694   4.075   2.800  0.1217 -0.0425 -0.2972
   30MOL   C82132199   7.815   4.054   2.726 -0.4505 -0.0875 -0.1708
   30MOL   C82232200   7.813   4.052   2.585  0.1496  0.3840  0.4026
   30MOL   O82332201   7.925   4.027   2.513  0.3927  0.2385 -0.4604
   30MOL   C82432202   8.029   4.114   2.495 -0.8405 -0.0977 -0.0138
   30MOL   C82532203   8.145   4.060   2.427  0.0257 -0.1438 -0.9916
   30MOL   C82632204   0.001   4.141   2.407 -0.1542  0.3719 -0.3007
   30MOL   C82732205   0.003   4.277   2.444  0.1981 -0.2861 -0.3226
   30MOL   C82832206   0.135   4.367   2.418  0.3827  1.2775  0.7322
   30MOL   C82932207   0.121   4.498   2.476  0.1519 -0.6232 -0.0834
   30MOL   C83032208   0.247   4.302   2.497 -0.1855 -0.4230 -0.0420
   30MOL   C83132209   0.161   4.386   2.270 -0.3939  0.1669 -0.0642
   30MOL   C83232210   0.294   4.393   2.214 -0.1100  0.0989  0.1277
   30MOL   C83332211   0.324   4.418   2.079 -0.7987 -0.0363 -0.1956
   30MOL   C83432212   0.215   4.446   1.995  0.4829 -0.5737  0.0883
   30MOL   O83532213   0.232   4.508   1.874  0.5526 -0.1756 -0.0386
   30MOL   C83632214   0.086   4.424   2.042 -0.1686  0.0650  0.0004
   30MOL   C83732215   0.058   4.394   2.174  0.4010 -0.2516  0.3257
   30MOL   C83832216   8.142   4.332   2.505 -0.5115  0.7630 -0.1366
   30MOL   C83932217   8.027   4.250   2.525 -1.3090 -0.1529 -0.4857
   30MOL   C84032218   7.685   4.085   2.521 -0.5011 -0.0529  0.0873
   30MOL   C84132219   7.569   4.111   2.595 -0.5172 -1.2818  0.1952
   30MOL   C84232220   7.273   3.900   2.730 -0.3381  0.1432  0.7576
   30MOL   C84332221   7.174   3.841   2.655 -0.2630  0.0467 -0.1142
   30MOL   H84432222   7.034   4.132   2.529 -1.1430  0.4220  1.6304
   30MOL   H84532223   7.229   4.227   2.662 -0.3698  0.4880 -0.8956
   30MOL   H84632224   7.698   4.080   2.908 -0.5650  2.7417 -0.3595
   30MOL   H84732225   7.902   4.026   2.782 -1.8945 -0.3137  2.0221
   30MOL   H84832226   8.146   3.958   2.392  1.2585  0.0612 -1.5627
   30MOL   H84932227   0.096   4.103   2.372 -0.8836  0.9884 -3.0432
   30MOL   H85032228   0.101   4.503   2.583 -0.9093  2.8924 -0.3771
   30MOL   H85132229   0.048   4.564   2.428 -0.3215 -0.3313  1.0166
   30MOL   H85232230   0.217   4.548   2.477  0.5370 -1.3621  1.9058
   30MOL   H85332231   0.269   4.199   2.468 -2.8947 -0.5164 -1.9329
   30MOL   H85432232   0.345   4.350   2.493  0.0232 -0.6047  2.2724
   30MOL   H85532233   0.207   4.292   2.597 -2.5584 -1.2491 -1.0469
   30MOL   H85632234   0.378   4.391   2.281 -0.4726  0.4734  0.5984
   30MOL   H85732235   0.426   4.431   2.048 -0.7200 -0.1731  0.0036
   30MOL   H85832236   0.006   4.453   1.977 -0.1012  0.4062  0.0713
   30MOL   H85932237   8.208   4.391   2.206 -0.2154  0.0468 -1.5387
   30MOL   H86032238   8.134   4.438   2.523 -2.5677  0.7794 -0.9471
   30MOL   H86132239   7.936   4.293   2.565 -1.9333 -2.0112  0.1554
   30MOL   H86232240   7.684   4.085   2.413  0.9546 -0.0910  0.0636
   30MOL   H86332241   7.473   4.124   2.548 -0.5311 -1.2594  0.2289
   30MOL   H86432242   7.347   3.845   2.786 -0.4537 -0.9108 -0.1176
   30MOL   H86532243   7.153   3.735   2.658  1.3720 -0.2465  0.9457
   30MOL   C86632244   0.260   4.428   1.770 -0.3326  0.4413  0.1534
   30MOL   C86732245   0.172   4.421   1.662 -0.2642  0.0794 -0.1139
   30MOL   C86832246   0.208   4.345   1.549  0.1642 -0.2871 -0.5476
   30MOL   C86932247   0.328   4.271   1.549 -0.0873 -0.0425  0.4206
   30MOL   S87032248   0.362   4.170   1.401 -0.1863 -0.1372  0.4471
   30MOL   O87132249   0.242   4.085   1.388 -0.2768 -0.2067  0.4381
   30MOL   O87232250   0.495   4.109   1.415 -0.1535 -0.8553  0.1278
   30MOL   C87332251   0.366   4.290   1.268  0.0181  0.4036  0.0730
   30MOL   C87432252   0.446   4.403   1.274 -0.0294  0.4866  0.4759
   30MOL   C87532253   0.447   4.498   1.171 -0.4363 -0.0319 -0.5160
   30MOL   C87632254   0.371   4.473   1.056  0.5004 -0.1652 -0.6078
   30MOL   O87732255   0.382   4.556   0.954  0.3503 -0.3385  0.0920
   30MOL   C87832256   0.478   4.541   0.856  0.0488  0.2293  1.3575
   30MOL   C87932257   0.575   4.435   0.865  0.7177 -0.0453 -0.3900
   30MOL   C88032258   0.678   4.415   0.769 -0.2810 -0.2239 -0.0292
   30MOL   C88132259   0.686   4.513   0.660 -0.5724  0.0224  0.2924
   30MOL   C88232260   0.800   4.486   0.557  1.1127  0.2098 -0.2145
   30MOL   C88332261   0.809   4.598   0.450 -0.1439  0.6245  0.3838
   30MOL   C88432262   0.946   4.482   0.617 -0.6464 -0.0867 -0.3097
   30MOL   C88532263   0.761   4.357   0.491 -0.1414  0.0602  0.3945
   30MOL   C88632264   0.858   4.250   0.490 -0.5874  0.0703 -0.3725
   30MOL   C88732265   0.820   4.124   0.430  0.4932  0.0225  0.3538
   30MOL   C88832266   0.693   4.098   0.381 -0.4806 -0.0989 -0.1519
   30MOL   O88932267   0.660   3.976   0.326  0.4137 -0.4338  0.0137
   30MOL   C89032268   0.600   4.204   0.389 -0.2909 -0.2855  0.6454
   30MOL   C89132269   0.630   4.331   0.440 -0.0030  0.1135 -0.0216
   30MOL   C89232270   0.596   4.615   0.652 -0.2317 -0.1453  0.0618
   30MOL   C89332271   0.496   4.633   0.754 -0.3206  0.3027  0.3030
   30MOL   C89432272   0.289   4.360   1.043 -0.3083 -0.2820 -0.0300
   30MOL   C89532273   0.286   4.271   1.149 -0.2611  0.5611  0.3134
   30MOL   C89632274   0.415   4.278   1.655 -0.5645  0.1788  0.1699
   30MOL   C89732275   0.385   4.362   1.763 -1.5912  0.0683 -0.3378
   30MOL   H89832276   0.086   4.485   1.652 -0.3654 -0.2232 -1.2889
   30MOL   H89932277   0.141   4.337   1.464 -1.3091  2.3788  0.2829
   30MOL   H90032278   0.513   4.420   1.357  2.0164  0.6502 -1.1620
   30MOL   H90132279   0.508   4.587   1.180 -0.0132 -0.2159 -1.5174
   30MOL   H90232280   0.569   4.363   0.945 -0.3339 -0.5253 -0.8963
   30MOL   H90332281   0.750   4.336   0.784  1.9183  1.8673  0.8125
   30MOL   H90432282   0.714   4.622   0.403  0.7005 -0.5940 -2.0355
   30MOL   H90532283   0.879   4.576   0.370 -2.7520 -1.3276 -1.4335
   30MOL   H90632284   0.849   4.683   0.505 -0.3746  0.2933  1.0675
   30MOL   H90732285   0.974   4.402   0.685 -0.5002 -0.7733 -1.1784
   30MOL   H90832286   1.012   4.493   0.531 -0.1219  2.3789  0.3561
   30MOL   H90932287   0.961   4.570   0.680  0.4225 -0.5660  0.1114
   30MOL   H91032288   0.959   4.259   0.529 -0.9242 -1.4335  0.8884
   30MOL   H91132289   0.893   4.044   0.430 -0.5563 -0.9543  0.5757
   30MOL   H91232290   0.504   4.195   0.340  0.9941  0.7132 -2.1364
   30MOL   H91332291   0.552   4.405   0.441 -0.5547 -0.4355 -1.1246
   30MOL   H91432292   0.600   4.687   0.571  0.4519 -0.2407  0.0034
   30MOL   H91532293   0.439   4.725   0.755  0.8071  1.0302  3.8896
   30MOL   H91632294   0.224   4.347   0.957 -1.4306 -1.1411  0.9367
   30MOL   H91732295   0.229   4.180   1.134 -0.6545  1.2391 -2.5355
   30MOL   H91832296   0.513   4.234   1.642 -0.2601  0.7464  0.5183
   30MOL   H91932297   0.465   4.378   1.834 -2.1755  3.1125 -0.3014
   30MOL   C92032298   0.659   3.978   0.189 -0.0341  0.7734  0.1619
   30MOL   C92132299   0.532   3.975   0.120  0.4183  0.6886  0.3606
   30MOL   C92232300   0.529   3.964   8.234 -0.8946 -1.2579 -0.2856
   30MOL   C92332301   0.645   3.933   8.154 -0.3956  0.2436  0.0221
   30MOL   S92432302   0.619   3.894   7.980  0.0977  0.0214 -0.0381
   30MOL   O92532303   0.470   3.889   7.961  0.1897  0.0390 -0.7107
   30MOL   O92632304   0.707   3.790   7.930 -0.4798 -0.4794 -0.8818
   30MOL   C92732305   0.667   4.043   7.890 -0.8521  0.4371 -1.1164
   30MOL   C92832306   0.620   4.166   7.935  0.1685  0.5152 -0.1387
   30MOL   C92932307   0.660   4.284   7.867 -0.4747  0.4742 -0.4986
   30MOL   C93032308   0.740   4.281   7.748  0.7022 -0.0051 -0.0712
   30MOL   O93132309   0.779   4.392   7.676 -0.4402  0.1803 -0.2392
   30MOL   C93232310   0.705   4.505   7.685 -0.4319  0.1249  0.1074
   30MOL   C93332311   0.576   4.516   7.622 -0.5790  0.5586 -0.4734
   30MOL   C93432312   0.504   4.633   7.634 -0.1751 -1.1190 -0.5816
   30MOL   C93532313   0.550   4.743   7.716 -0.2253  0.4744 -0.3859
   30MOL   C93632314   0.457   4.867   7.724  0.1558 -0.0681  0.8116
   30MOL   C93732315   0.306   4.818   7.736 -0.5300 -0.3917 -0.1508
   30MOL   C93832316   0.489   4.949   7.848 -0.0982 -0.5902  0.3379
   30MOL   C93932317   0.473   4.958   7.600 -0.5356 -0.0833 -0.0753
   30MOL   C94032318   0.398   5.072   7.583  0.1316  0.4760  0.2358
   30MOL   C94132319   0.418   5.159   7.477  0.6869 -0.4941  0.3976
   30MOL   C94232320   0.508   5.126   7.379 -0.0246 -1.0041  0.0286
   30MOL   O94332321   0.520   5.209   7.272 -0.1035  0.2818  0.4448
   30MOL   C94432322   0.582   5.008   7.382  0.2930 -0.3431 -0.0802
   30MOL   C94532323   0.567   4.926   7.493  0.5034  0.0128  0.6517
   30MOL   C94632324   0.670   4.735   7.783 -0.6944 -1.1025  0.0411
   30MOL   C94732325   0.746   4.615   7.762 -0.5552 -0.7045  0.3628
   30MOL   C94832326   0.784   4.157   7.704 -0.3495 -0.2085  0.2547
   30MOL   C94932327   0.752   4.035   7.775  0.1301 -0.3451  0.4397
   30MOL   C95032328   0.764   3.935   8.222  0.7717 -0.4246  0.2040
   30MOL   C95132329   0.771   3.960   0.109  0.2592  0.1510  0.4414
   30MOL   H95232330   0.442   3.994   0.175  0.4769 -1.8640  1.3870
   30MOL   H95332331   0.431   3.958   8.190 -1.0185  0.6578 -0.3118
   30MOL   H95432332   0.562   4.177   8.026  0.1966 -3.9226  0.5067
   30MOL   H95532333   0.624   4.373   7.916 -1.5256 -0.9762  1.4379
   30MOL   H95632334   0.538   4.442   7.554  0.6789 -0.6525  0.1100
   30MOL   H95732335   0.406   4.638   7.587 -0.2196  1.5951 -0.2741
   30MOL   H95832336   0.312   4.741   7.813  0.2661  1.0302  1.2398
   30MOL   H95932337   0.274   4.783   7.638 -0.1051  0.4507 -0.5978
   30MOL   H96032338   0.239   4.900   7.761  1.2572  0.6598  1.3455
   30MOL   H96132339   0.477   4.887   7.938 -0.2693 -0.7908  0.1777
   30MOL   H96232340   0.589   4.991   7.851 -0.1570 -0.4396  0.1660
   30MOL   H96332341   0.427   5.033   7.880  1.3094 -0.0343  1.6460
   30MOL   H96432342   0.317   5.102   7.648 -1.4419  2.6483 -2.5997
   30MOL   H96532343   0.364   5.252   7.470 -1.1533 -1.5302  0.5422
   30MOL   H96632344   0.650   4.987   7.300  1.8107  0.4682  0.9418
   30MOL   H96732345   0.613   4.829   7.501  0.8865 -0.1376 -2.6049
   30MOL   H96832346   0.714   4.812   7.844  0.0543 -0.7418 -0.9529
   30MOL   H96932347   0.840   4.613   7.814 -0.8531  0.0099  0.9290
   30MOL   H97032348   0.854   4.155   7.622  1.2737  0.6461  1.5927
   30MOL   H97132349   0.790   3.943   7.734 -1.0437 -0.2308 -0.9415
   30MOL   H97232350   0.852   3.920   8.161  0.4365  1.1390 -0.6933
   30MOL   H97332351   0.872   3.949   0.145  0.5253  1.8787  0.2723
   30MOL   C97432352   0.543   5.346   7.281  0.6144  0.6425  0.0668
   30MOL   C97532353   0.461   5.435   7.202  0.2327  0.6263 -0.5301
   30MOL   C97632354   0.483   5.574   7.201 -0.0101  1.0196 -0.1364
   30MOL   C97732355   0.585   5.623   7.291  0.2524  0.1546 -0.1601
   30MOL   S97832356   0.620   5.797   7.295 -0.2072 -0.3896  0.2715
   30MOL   O97932357   0.735   5.816   7.385 -0.5245  0.0049  1.1684
   30MOL   O98032358   0.496   5.868   7.321 -0.1895 -0.1498  0.5345
   30MOL   C98132359   0.693   5.849   7.135  0.3503  0.3912  0.0698
   30MOL   C98232360   0.608   5.868   7.023 -0.5447 -0.2328  0.1405
   30MOL   C98332361   0.666   5.934   6.908  0.7202 -0.3234  0.8392
   30MOL   C98432362   0.805   5.964   6.900 -0.3879 -0.3840 -0.1605
   30MOL   O98532363   0.858   6.023   6.788  0.5790 -0.0801 -0.3047
   30MOL   C98632364   0.838   5.965   6.668 -0.3132  0.1568  0.3401
   30MOL   C98732365   0.888   5.835   6.637  0.6362 -0.8978  0.1860
   30MOL   C98832366   0.849   5.778   6.511 -0.2558 -0.1813 -0.0294
   30MOL   C98932367   0.772   5.845   6.414 -0.2556  0.2165 -0.3782
   30MOL   C99032368   0.745   5.793   6.266  0.0277 -0.7741 -0.1726
   30MOL   C99132369   0.837   5.879   6.168 -0.2827 -0.2447 -0.2216
   30MOL   C99232370   0.793   5.655   6.243  0.1698 -0.4722  0.3002
   30MOL   C99332371   0.599   5.793   6.233  0.2211 -0.1378  0.0617
   30MOL   C99432372   0.548   5.835   6.107 -0.4514 -0.1089 -0.2524
   30MOL   C99532373   0.408   5.843   6.082 -0.9462 -0.1430 -0.0991
   30MOL   C99632374   0.313   5.802   6.185 -0.2077 -0.1694  0.2783
   30MOL   O99732375   0.182   5.801   6.155 -0.0425  0.4656 -0.1901
   30MOL   C99832376   0.365   5.759   6.307 -0.1198  0.5572 -0.4889
   30MOL   C99932377   0.504   5.758   6.332  0.4415  0.1164  0.0200
   30MOL     C132378   0.723   5.970   6.444 -0.7660  0.4104  0.6653
   30MOL     C232379   0.761   6.031   6.568 -0.0212  0.1639  0.1211
   30MOL     C332380   0.884   5.941   7.011  0.7110 -0.5720 -0.1289
   30MOL     C432381   0.830   5.881   7.128  0.0175 -0.4282  0.0160
   30MOL     C532382   0.664   5.534   7.368  0.4324 -0.1282 -0.5726
   30MOL     C632383   0.643   5.397   7.370  0.7637 -0.2988  0.5562
   30MOL     H732384   0.396   5.390   7.129  0.7876  0.5499 -0.9776
   30MOL     H832385   0.434   5.640   7.131  0.7564 -0.0678 -1.7388
   30MOL     H932386   0.505   5.838   7.019  0.5288 -4.1492 -0.1923
   30MOL    H1032387   0.608   5.969   6.824 -0.9983 -0.6219  1.8938
   30MOL    H1132388   0.951   5.782   6.708  2.8414  0.4310 -0.7288
   30MOL    H1232389   0.888   5.682   6.483  0.6433  0.2584 -0.3108
   30MOL    H1332390   0.854   5.838   6.069 -1.6776  0.6304 -0.8392
   30MOL    H1432391   0.936   5.875   6.214 -0.2405  0.9811 -0.2022
   30MOL    H1532392   0.804   5.982   6.160  0.0594 -0.3232 -2.7567
   30MOL    H1632393   0.755   5.623   6.145  0.2676 -0.7696  0.3592
   30MOL    H1732394   0.901   5.645   6.241  0.2664  0.6120 -1.0066
   30MOL    H1832395   0.747   5.591   6.319 -0.1622  0.0533  0.5426
   30MOL    H1932396   0.622   5.861   6.033  0.8544  0.4205  1.2208
   30MOL    H2032397   0.374   5.877   5.985  0.0497  0.6058 -0.1941
   30MOL    H2132398   0.295   5.722   6.381  0.5142  0.9702  0.3159
   30MOL    H2232399   0.550   5.721   6.422 -0.3515  1.7809  1.1427
   30MOL    H2332400   0.662   6.030   6.376 -0.0102 -0.8893 -1.2105
   30MOL    H2432401   0.721   6.130   6.581 -0.7922  0.5034 -4.2834
   30MOL    H2532402   0.988   5.971   7.015 -0.2601  3.3451 -1.8727
   30MOL    H2632403   0.897   5.849   7.207 -0.0956 -1.3999 -0.2791
   30MOL    H2732404   0.745   5.578   7.425 -0.3475 -0.2819  0.6873
   30MOL    H2832405   0.700   5.327   7.430 -1.7023 -1.2066  1.8835
   30MOL    C2932406   0.108   5.693   6.186 -0.3317 -0.1795  0.2831
   30MOL    C3032407   0.148   5.567   6.143  0.4241 -0.0197 -0.3565
   30MOL    C3132408   0.073   5.454   6.170  0.5697  0.0825 -0.9681
   30MOL    C3232409   8.220   5.465   6.254  0.5915 -0.5175 -0.6927
   30MOL    S3332410   8.134   5.313   6.311 -0.0301  0.3154  0.0313
   30MOL    O3432411   8.020   5.342   6.395  0.1281  0.3157 -0.7375
   30MOL    O3532412   8.239   5.231   6.374  0.0849 -0.3464  0.6523
   30MOL    C3632413   8.081   5.223   6.165 -0.1277 -0.2393  0.2400
   30MOL    C3732414   7.939   5.215   6.143 -0.2396 -0.1430  0.7390
   30MOL    C3832415   7.897   5.144   6.028 -0.2055 -0.0428  0.8136
   30MOL    C3932416   7.990   5.095   5.932  0.1335  0.2217 -0.0738
   30MOL    O4032417   7.954   5.052   5.811  0.4522 -0.1210 -0.2624
   30MOL    C4132418   7.851   4.963   5.801  0.7808 -0.0673  0.3759
   30MOL    C4232419   7.808   4.871   5.901  1.1637  0.4052 -0.4240
   30MOL    C4332420   7.706   4.774   5.875 -0.1607  0.3752  0.6890
   30MOL    C4432421   7.640   4.766   5.750 -0.2508  0.4673 -0.2089
   30MOL    C4532422   7.522   4.668   5.716 -0.4818 -0.2359 -0.2455
   30MOL    C4632423   7.564   4.590   5.588  0.2304  0.0575 -0.3525
   30MOL    C4732424   7.493   4.567   5.829  0.4348 -0.2730 -0.4690
   30MOL    C4832425   7.388   4.742   5.701  0.0447  0.9338 -0.1033
   30MOL    C4932426   7.275   4.683   5.633  0.8510  0.3758 -0.7567
   30MOL    C5032427   7.151   4.749   5.625 -0.4643 -0.1298  0.8306
   30MOL    C5132428   7.131   4.869   5.697 -0.3021  0.8899  0.4537
   30MOL    O5232429   7.008   4.921   5.700  0.3549 -0.3940  0.3769
   30MOL    C5332430   7.237   4.928   5.768 -0.4143 -0.4188  0.4169
   30MOL    C5432431   7.360   4.864   5.771  0.2731 -0.4796  0.5357
   30MOL    C5532432   7.673   4.872   5.664  0.0535 -0.0407 -0.4320
   30MOL    C5632433   7.777   4.962   5.685  0.3629 -0.2217  0.0860
   30MOL    C5732434   8.128   5.107   5.959 -0.3196  0.4685  0.5696
   30MOL    C5832435   8.178   5.167   6.076 -0.4474  0.4618  0.6229
   30MOL    C5932436   8.176   5.588   6.299 -0.1037 -0.2889 -0.7205
   30MOL    C6032437   8.241   5.705   6.256 -0.3418 -0.3968  0.7187
   30MOL    H6132438   0.237   5.549   6.084  2.2684  0.4148  2.2298
   30MOL    H6232439   0.110   5.360   6.131  0.6091  0.0604 -0.8754
   30MOL    H6332440   7.867   5.263   6.209 -1.2221 -0.1777 -0.2939
   30MOL    H6432441   7.791   5.134   6.006 -0.1994 -1.3321  1.3025
   30MOL    H6532442   7.855   4.858   5.997 -1.7328  2.2968  1.3360
   30MOL    H6632443   7.674   4.706   5.952  1.1682 -0.0114  0.9139
   30MOL    H6732444   7.494   4.512   5.557  0.0204  1.0538 -2.4299
   30MOL    H6832445   7.662   4.544   5.604 -0.6543 -1.7138  0.0792
   30MOL    H6932446   7.574   4.656   5.502 -0.2259  1.9088  0.9866
   30MOL    H7032447   7.461   4.608   5.925  1.5327 -0.2261 -0.1160
   30MOL    H7132448   7.411   4.498   5.811 -1.9289  2.6094 -1.1151
   30MOL    H7232449   7.588   4.520   5.856  0.7652  0.4221 -0.4240
   30MOL    H7332450   7.297   4.586   5.591  0.0694  0.3575 -1.1166
   30MOL    H7432451   7.076   4.701   5.564  1.4798 -0.2927 -1.4860
   30MOL    H7532452   7.210   5.020   5.818 -3.0717 -1.0395  0.2256
   30MOL    H7632453   7.435   4.904   5.838  0.1852  1.3501 -0.4310
   30MOL    H7732454   7.616   4.883   5.573  0.2822 -0.2064 -0.5977
   30MOL    H7832455   7.794   5.028   5.601 -1.8721  1.1796  0.7040
   30MOL    H7932456   8.199   5.058   5.894 -0.1457  1.1056  0.2797
   30MOL    H8032457   0.031   5.178   6.090 -0.5063  1.0874  0.5812
   30MOL    H8132458   8.084   5.605   6.353  0.6618  0.1062  0.4829
   30MOL    H8232459   8.199   5.802   6.277  1.9966  0.8380 -0.1778
   30MOL    H8332460   6.984   4.967   5.779  0.4958  1.5367 -0.6884
   31MOL     C132461   3.115   4.935   1.389  0.6658  0.1688 -0.0063
   31MOL     C232462   3.147   4.806   1.338  0.3517  0.0268 -0.1657
   31MOL     C332463   3.256   4.787   1.254 -0.3828  0.1895  0.3422
   31MOL     C432464   3.337   4.895   1.217 -0.6303 -0.7370  0.5608
   31MOL     S532465   3.488   4.869   1.111 -0.2602  0.3826  0.5581
   31MOL     O632466   3.534   5.003   1.076  0.4956 -0.0889  0.2357
   31MOL     O732467   3.462   4.769   1.005 -0.6616 -0.2381  0.2171
   31MOL     C832468   3.616   4.791   1.218  0.8083 -0.0014 -0.2849
   31MOL     C932469   3.746   4.852   1.229  0.1719  0.5293 -0.3357
   31MOL    C1032470   3.841   4.786   1.313 -0.0016 -0.6770 -0.5306
   31MOL    C1132471   3.812   4.676   1.386  0.1653  0.3218  0.4270
   31MOL    O1232472   3.908   4.633   1.473  0.4450  0.0404 -0.1702
   31MOL    C1332473   3.910   4.669   1.602 -0.1160  0.1348 -0.7257
   31MOL    C1432474   3.942   4.578   1.705  0.3111 -0.1516 -0.2345
   31MOL    C1532475   3.937   4.612   1.838  0.5213 -0.5952  0.7282
   31MOL    C1632476   3.913   4.746   1.880  0.9601  0.3280  0.3481
   31MOL    C1732477   3.911   4.795   2.026 -0.0421  0.2334  0.2898
   31MOL    C1832478   3.902   4.672   2.124 -0.3786 -0.2047  0.1431
   31MOL    C1932479   4.041   4.863   2.065  0.3271 -0.1384 -0.5830
   31MOL    C2032480   3.786   4.886   2.057 -0.1529 -0.0501 -0.1661
   31MOL    C2132481   3.798   5.030   2.054 -0.1943 -0.0525 -0.2232
   31MOL    C2232482   3.692   5.120   2.082  0.5462 -0.0108  0.0427
   31MOL    C2332483   3.566   5.065   2.112  0.1714 -0.5471  0.6994
   31MOL    O2432484   3.468   5.155   2.147  0.2912 -0.3885 -0.0879
   31MOL    C2532485   3.547   4.930   2.111  0.2951  0.4821  0.3371
   31MOL    C2632486   3.658   4.836   2.091  0.5384  0.2658  0.4016
   31MOL    C2732487   3.881   4.845   1.776  0.0244 -0.4300 -0.2443
   31MOL    C2832488   3.881   4.803   1.647  0.1262  0.0278  0.6816
   31MOL    C2932489   3.684   4.620   1.379  0.3690 -0.1743 -0.8032
   31MOL    C3032490   3.583   4.673   1.295  0.2054 -0.3028 -0.3064
   31MOL    C3132491   3.302   5.027   1.254 -0.6652  0.0436  0.2460
   31MOL    C3232492   3.189   5.046   1.345 -0.5525 -0.5576  0.4274
   31MOL    H3332493   3.098   4.716   1.374 -0.9094  0.2124 -1.3689
   31MOL    H3432494   3.286   4.687   1.227 -0.4191  0.1009  0.6285
   31MOL    H3532495   3.783   4.941   1.181  2.3611 -0.2274 -0.0974
   31MOL    H3632496   3.935   4.837   1.326  0.2627 -1.4146  0.4771
   31MOL    H3732497   3.961   4.475   1.677 -1.0548 -0.4740 -0.0363
   31MOL    H3832498   3.956   4.527   1.901 -0.1408  0.1987  2.0235
   31MOL    H3932499   3.912   4.708   2.226  0.3402  0.2458 -0.0835
   31MOL    H4032500   3.975   4.592   2.118  0.5085  0.4858  1.4293
   31MOL    H4132501   3.806   4.621   2.116  0.2014 -1.3023  0.1903
   31MOL    H4232502   4.128   4.798   2.073 -0.5768 -1.2616  0.3305
   31MOL    H4332503   4.067   4.932   1.985  2.2356 -1.7645 -1.4096
   31MOL    H4432504   4.022   4.914   2.159  0.1328  0.1363 -0.7707
   31MOL    H4532505   3.894   5.075   2.034 -1.3257  1.3140 -2.8480
   31MOL    H4632506   3.707   5.227   2.091 -1.7294  0.2176  1.5174
   31MOL    H4732507   3.449   4.886   2.125  1.1927 -1.0741  2.0188
   31MOL    H4832508   3.634   4.731   2.094 -0.6703  0.4862 -0.9231
   31MOL    H4932509   3.837   4.941   1.794  0.9007  0.1150 -0.9630
   31MOL    H5032510   3.836   4.869   1.574 -0.6131 -0.9290  0.2531
   31MOL    H5132511   3.657   4.530   1.431  1.9676  0.3650  1.0245
   31MOL    H5232512   3.484   4.631   1.297  0.3612 -0.6375  0.5347
   31MOL    H5332513   3.359   5.114   1.223 -0.0438  0.1893  1.7307
   31MOL    H5432514   3.164   5.149   1.364  0.9272  0.4877 -2.8572
   31MOL    H5532515   3.029   4.945   1.452  0.6378 -1.3905  0.2309
   31MOL    C5632516   3.373   5.126   2.240  0.6652 -0.0415  0.1189
   31MOL    C5732517   3.259   5.048   2.209 -0.2360 -0.1140 -0.1961
   31MOL    C5832518   3.159   5.028   2.305 -0.0586  0.2316  0.3632
   31MOL    C5932519   3.166   5.088   2.430  0.1531  0.3348  0.6302
   31MOL    S6032520   3.038   5.076   2.562 -0.0198  0.2387  0.0586
   31MOL    O6132521   3.026   5.212   2.606  0.2049 -0.0868  0.0537
   31MOL    O6232522   3.092   4.974   2.650 -1.0300  0.2538  0.6031
   31MOL    C6332523   2.881   5.032   2.485 -0.5152 -0.6057  0.0741
   31MOL    C6432524   2.794   4.952   2.561 -0.3307 -0.5069 -0.1430
   31MOL    C6532525   2.665   4.925   2.513  0.1281 -0.0928  0.2892
   31MOL    C6632526   2.632   4.976   2.385 -0.7186  0.1160 -0.2938
   31MOL    O6732527   2.508   4.936   2.333  0.2138  0.4550  0.6485
   31MOL    C6832528   2.507   4.873   2.215 -0.4866 -0.1310 -0.2438
   31MOL    C6932529   2.599   4.769   2.179  0.4951  0.4459  0.7506
   31MOL    C7032530   2.594   4.704   2.052 -0.2062 -0.2462 -0.0915
   31MOL    C7132531   2.502   4.741   1.957 -0.0036  0.2247 -0.1408
   31MOL    C7232532   2.484   4.667   1.822 -0.2860  0.4190  0.1621
   31MOL    C7332533   2.543   4.762   1.715  0.2155 -0.1363 -0.2292
   31MOL    C7432534   2.563   4.529   1.815  0.2723 -0.0280 -0.1684
   31MOL    C7532535   2.332   4.640   1.796  0.4347 -0.0835  0.3300
   31MOL    C7632536   2.237   4.625   1.907 -1.1463 -0.7882  0.2839
   31MOL    C7732537   2.104   4.590   1.871  0.7665 -0.8410 -0.5900
   31MOL    C7832538   2.069   4.539   1.744 -0.6252 -0.1454  0.8049
   31MOL    O7932539   1.945   4.495   1.708  0.4152 -0.0399 -0.2682
   31MOL    C8032540   2.155   4.556   1.640  0.6643 -0.6268  0.1653
   31MOL    C8132541   2.285   4.606   1.667 -0.4861  0.0926  0.5022
   31MOL    C8232542   2.416   4.851   1.989  0.4378 -0.2236  0.1310
   31MOL    C8332543   2.417   4.914   2.116  0.2274  0.6120  0.1425
   31MOL    C8432544   2.722   5.051   2.308 -0.2576 -1.1429 -0.2160
   31MOL    C8532545   2.847   5.080   2.361 -0.8882  0.5454  0.6884
   31MOL    C8632546   3.280   5.172   2.454  0.3661 -0.2225  0.7355
   31MOL    C8732547   3.383   5.186   2.365  0.7139 -0.4140  0.4281
   31MOL    H8832548   3.248   5.005   2.111  1.3127  0.3116 -0.5686
   31MOL    H8932549   3.072   4.969   2.280  2.9899 -5.0794  1.5950
   31MOL    H9032550   2.838   4.917   2.654  0.9996  2.3529  0.3673
   31MOL    H9132551   2.594   4.857   2.559 -1.1863  0.5361 -0.8015
   31MOL    H9232552   2.673   4.745   2.253 -0.5966  0.8539  2.0042
   31MOL    H9332553   2.668   4.625   2.046  0.2047 -0.1008  2.3879
   31MOL    H9432554   2.535   4.713   1.618 -0.9852  0.3550 -0.3878
   31MOL    H9532555   2.645   4.795   1.733  0.0496 -1.5153  3.7804
   31MOL    H9632556   2.490   4.852   1.686  1.4712 -0.1278 -2.5864
   31MOL    H9732557   2.517   4.448   1.871  0.0997  0.2173  0.0496
   31MOL    H9832558   2.561   4.510   1.708 -1.3481 -4.0564  0.5022
   31MOL    H9932559   2.668   4.529   1.843  0.4082  0.1619 -0.6795
   31MOL   H10032560   2.257   4.658   2.008  0.5086 -1.2570  0.1263
   31MOL   H10132561   2.026   4.586   1.947  0.4938  1.4097 -0.7273
   31MOL   H10232562   2.137   4.532   1.536  2.8571  2.2401 -0.9543
   31MOL   H10332563   2.351   4.611   1.581 -0.1986 -1.0371  0.6584
   31MOL   H10432564   2.345   4.883   1.914 -0.3039 -1.6600  0.2181
   31MOL   H10532565   2.353   5.000   2.130  1.6780  1.7420  0.0219
   31MOL   H10632566   2.690   5.092   2.214  0.2008 -1.1404 -0.3725
   31MOL   H10732567   2.912   5.153   2.315  1.0080 -2.4851 -1.5947
   31MOL   H10832568   3.287   5.206   2.556  2.3224  1.1815  0.1474
   31MOL   H10932569   3.459   5.255   2.399  0.7640 -0.0776 -0.3749
   31MOL   C11032570   1.918   4.365   1.674  0.4933 -0.3493  0.2186
   31MOL   C11132571   1.859   4.329   1.556 -0.5968  0.2843 -0.1688
   31MOL   C11232572   1.827   4.197   1.525 -0.1924  0.6521 -0.4656
   31MOL   C11332573   1.855   4.097   1.617 -0.4178  0.1445 -0.6398
   31MOL   S11432574   1.821   3.926   1.592  0.3394  0.1543 -0.0138
   31MOL   O11532575   1.696   3.902   1.664 -0.0315 -0.3067 -0.1905
   31MOL   O11632576   1.937   3.842   1.629  0.2342  0.2050 -0.3565
   31MOL   C11732577   1.787   3.899   1.421 -0.4441 -0.4034 -0.0134
   31MOL   C11832578   1.878   3.826   1.341  0.6193  0.2327  0.4130
   31MOL   C11932579   1.846   3.804   1.203 -0.2901  0.1337  0.2821
   31MOL   C12032580   1.736   3.864   1.149 -0.1826 -0.6544 -0.0485
   31MOL   O12132581   1.703   3.837   1.017  0.2024 -0.1791  0.2685
   31MOL   C12232582   1.761   3.915   0.919 -0.1248 -0.3931  1.1349
   31MOL   C12332583   1.675   3.964   0.825 -0.3734  0.5537  0.0475
   31MOL   C12432584   1.733   4.044   0.721 -0.9341 -0.3002  0.0217
   31MOL   C12532585   1.869   4.078   0.713 -0.6099  0.2595  0.1554
   31MOL   C12632586   1.925   4.171   0.602 -0.3306 -0.0188 -0.0325
   31MOL   C12732587   1.878   4.311   0.645  0.3357 -0.3463  0.2152
   31MOL   C12832588   2.077   4.172   0.591  0.6648 -0.0140 -0.0574
   31MOL   C12932589   1.859   4.131   0.466  0.8118  0.1372  0.2220
   31MOL   C13032590   1.856   3.998   0.427  0.4894 -0.2068  0.0743
   31MOL   C13132591   1.829   3.968   0.293  0.1375 -0.0536  0.1880
   31MOL   C13232592   1.791   4.061   0.203 -0.3469  0.1786 -0.0934
   31MOL   O13332593   1.757   4.037   0.075  0.4485  0.0602 -0.4743
   31MOL   C13432594   1.785   4.199   0.241 -0.1764 -0.3951  0.1202
   31MOL   C13532595   1.818   4.230   0.376  0.6117  0.6886  0.2436
   31MOL   C13632596   1.957   4.026   0.819  0.2439 -0.5496  0.5197
   31MOL   C13732597   1.901   3.943   0.916 -0.3990  0.5437 -0.3620
   31MOL   C13832598   1.645   3.940   1.224 -0.4866  0.2064 -0.7507
   31MOL   C13932599   1.670   3.957   1.364 -0.3716  0.1306  0.6110
   31MOL   C14032600   1.912   4.130   1.739 -0.8465 -0.8275 -0.3146
   31MOL   C14132601   1.947   4.261   1.769  0.6891  0.7078  1.0297
   31MOL   H14232602   1.843   4.411   1.487 -0.0949  0.9956  0.5554
   31MOL   H14332603   1.789   4.171   1.427  1.9178  0.6061 -1.3011
   31MOL   H14432604   1.963   3.782   1.390  0.4480 -0.3513  0.1839
   31MOL   H14532605   1.918   3.741   1.152  1.7387  1.3785  1.5075
   31MOL   H14632606   1.571   3.936   0.830 -0.7355  1.8055 -0.2169
   31MOL   H14732607   1.671   4.092   0.647 -0.3471 -1.4827 -1.2670
   31MOL   H14832608   1.922   4.378   0.571 -1.2438  0.0407 -0.3835
   31MOL   H14932609   1.912   4.339   0.745 -0.2722  0.7380  0.1199
   31MOL   H15032610   1.773   4.337   0.646  0.8126  1.6652 -0.0380
   31MOL   H15132611   2.133   4.212   0.675 -0.8192 -0.4977  1.1786
   31MOL   H15232612   2.110   4.070   0.571  0.2538  0.0902 -1.3219
   31MOL   H15332613   2.115   4.230   0.506 -0.8877  0.1100 -0.6778
   31MOL   H15432614   1.889   3.912   0.484 -1.2570 -0.7600  0.2650
   31MOL   H15532615   1.835   3.864   0.264  1.1699  0.1566 -0.3904
   31MOL   H15632616   1.757   4.283   0.178  1.2459  1.3799  1.7881
   31MOL   H15732617   1.822   4.338   0.385  1.0259  0.6801  0.1440
   31MOL   H15832618   2.059   4.058   0.827  0.2473 -0.4173 -0.0446
   31MOL   H15932619   1.960   3.921   1.003 -3.0973 -1.1362  1.1195
   31MOL   H16032620   1.558   3.979   1.174 -0.5512  0.3102 -0.5561
   31MOL   H16132621   1.599   4.020   1.415 -1.3322  0.7953 -1.4619
   31MOL   H16232622   1.927   4.054   1.814  1.5703  1.2988  1.4081
   31MOL   H16332623   1.993   4.285   1.863 -0.1174  3.1187  0.8594
   31MOL   C16432624   1.618   4.026   0.050  0.5043 -0.1812 -0.1112
   31MOL   C16532625   1.558   3.898   0.046 -0.4534  1.1592  0.7073
   31MOL   C16632626   1.420   3.877   0.009 -0.3363  0.6515 -0.6484
   31MOL   C16732627   1.341   3.993   8.250 -0.0123 -0.0486 -0.1882
   31MOL   S16832628   1.170   3.965   8.203  0.0734 -0.0512  0.0623
   31MOL   O16932629   1.121   3.879   0.058 -0.3984 -0.4681  0.3870
   31MOL   O17032630   1.172   3.911   8.070  0.2736 -0.2361 -0.6470
   31MOL   C17132631   1.082   4.118   8.202  0.3215  0.1229 -0.2462
   31MOL   C17232632   1.043   4.178   0.070  0.3473 -1.0511 -0.0755
   31MOL   C17332633   0.959   4.292   0.066  0.1969 -0.2726 -0.3408
   31MOL   C17432634   0.912   4.346   8.194  0.0374  0.5296  0.7513
   31MOL   O17532635   0.811   4.445   8.190  0.1488  0.5306  0.0644
   31MOL   C17632636   0.849   4.569   8.226 -0.0908 -0.0179 -0.7081
   31MOL   C17732637   0.936   4.650   8.149  0.2441 -0.4100  0.2200
   31MOL   C17832638   0.975   4.785   8.189  0.1783  0.4123 -0.7814
   31MOL   C17932639   0.920   4.837   0.056 -0.9339 -0.7980 -0.2175
   31MOL   C18032640   0.963   4.982   0.097  0.0818  0.1665  0.0201
   31MOL   C18132641   0.893   5.075   0.002 -0.1063 -0.3047  0.3836
   31MOL   C18232642   0.932   5.011   0.239  0.3733 -0.5106 -0.1600
   31MOL   C18332643   1.115   4.985   0.071 -0.5610 -0.2419  0.3564
   31MOL   C18432644   1.196   4.896   0.148 -0.7598  0.2798 -0.1967
   31MOL   C18532645   1.338   4.889   0.136  0.0707 -0.8444  0.2781
   31MOL   C18632646   1.396   4.969   0.033 -0.3242  0.0258 -0.4638
   31MOL   O18732647   1.526   4.943   8.243  0.1562 -0.2152  0.3160
   31MOL   C18832648   1.319   5.066   8.221  0.1963 -0.7010 -0.8205
   31MOL   C18932649   1.179   5.073   8.244  0.5477 -0.0667 -0.1818
   31MOL   C19032650   0.844   4.749   0.141 -0.3245  0.1536  0.2538
   31MOL   C19132651   0.810   4.624   0.093 -0.3489 -0.2636 -0.8156
   31MOL   C19232652   0.957   4.289   8.071 -0.5109  1.2116 -0.1124
   31MOL   C19332653   1.041   4.180   8.074 -0.2592  0.1577  0.1025
   31MOL   C19432654   1.394   4.122   8.253  0.3421 -0.3603  0.2387
   31MOL   C19532655   1.535   4.142   0.019  0.1091  0.1227 -0.6252
   31MOL   H19632656   1.630   3.817   0.053 -0.5498  0.9899 -0.1488
   31MOL   H19732657   1.373   3.780   8.252 -0.1535  0.4729  0.2006
   31MOL   H19832658   1.086   4.148   0.164 -0.5103 -1.0725  0.3133
   31MOL   H19932659   0.941   4.343   0.159  0.3902 -0.7873 -0.0223
   31MOL   H20032660   0.979   4.608   8.060  1.5757  1.8044 -0.2259
   31MOL   H20132661   1.037   4.844   8.123  1.0885 -0.2844 -0.5542
   31MOL   H20232662   0.918   5.181   0.010  3.5024 -1.0473 -0.4035
   31MOL   H20332663   0.785   5.067   0.014 -0.2761  1.5435  0.1234
   31MOL   H20432664   0.916   5.052   8.152  1.5419  0.8873  0.4758
   31MOL   H20532665   0.970   4.943   0.315 -1.3013 -3.0110 -1.4945
   31MOL   H20632666   0.980   5.106   0.266 -2.1573 -0.1690  3.5804
   31MOL   H20732667   0.825   5.025   0.259  0.7645  0.9529  1.0454
   31MOL   H20832668   1.150   4.836   0.225 -0.4551  1.3411  0.8322
   31MOL   H20932669   1.401   4.822   0.192  0.4180 -1.1370 -0.4484
   31MOL   H21032670   1.364   5.132   8.148  1.8457  0.5645  1.2628
   31MOL   H21132671   1.127   5.151   8.190 -0.2841 -0.6326 -0.2021
   31MOL   H21232672   0.816   4.785   0.239  2.5487  3.1709  0.0869
   31MOL   H21332673   0.766   4.559   0.167 -0.1494 -0.3730 -0.7949
   31MOL   H21432674   0.912   4.329   7.980 -1.0921  0.5374 -0.1226
   31MOL   H21532675   1.085   4.138   7.985  0.8458  1.6291 -0.0746
   31MOL   H21632676   1.327   4.207   8.252  1.8040  0.8752  2.8751
   31MOL   H21732677   1.578   4.241   0.025  0.7391 -0.2864  2.7044
   31MOL   C21832678   1.635   5.013   0.039  0.5762 -0.0552 -0.0147
   31MOL   C21932679   1.623   5.149   0.076 -0.0684  0.1779 -0.3730
   31MOL   C22032680   1.743   5.221   0.109  0.4770 -0.1111 -0.1718
   31MOL   C22132681   1.867   5.159   0.093  0.1663  0.0294  0.0360
   31MOL   S22232682   2.015   5.256   0.113  0.0653 -0.5064  0.3098
   31MOL   O22332683   2.118   5.168   0.166 -0.1757 -0.1045  0.1844
   31MOL   O22432684   1.975   5.374   0.186 -0.1662 -0.4698 -0.5033
   31MOL   C22532685   2.068   5.304   8.198 -1.2195  0.2523  0.0574
   31MOL   C22632686   2.204   5.341   8.177 -0.1473 -0.0584 -0.5008
   31MOL   C22732687   2.249   5.381   8.047  0.0570 -0.3220 -0.0544
   31MOL   C22832688   2.154   5.364   7.944  0.1720 -0.6253  0.8133
   31MOL   O22932689   2.202   5.400   7.823 -0.0986  0.5186  0.4820
   31MOL   C23032690   2.213   5.297   7.731  0.5579 -0.2299 -1.0374
   31MOL   C23132691   2.299   5.191   7.758  0.1837 -0.4135 -0.3940
   31MOL   C23232692   2.326   5.098   7.659  0.6145  0.0289 -0.6663
   31MOL   C23332693   2.254   5.099   7.532 -0.6452 -0.0936 -0.3634
   31MOL   C23432694   2.275   4.983   7.432 -0.2650  0.0497 -0.3315
   31MOL   C23532695   2.191   5.003   7.307  0.1183 -0.3930  0.3395
   31MOL   C23632696   2.423   4.980   7.392  0.5873 -0.5983  0.2208
   31MOL   C23732697   2.235   4.844   7.489  0.5787 -0.5697 -0.4205
   31MOL   C23832698   2.315   4.727   7.489  0.0155 -0.4826 -0.1056
   31MOL   C23932699   2.272   4.606   7.542  0.1694  0.2665  0.1054
   31MOL   C24032700   2.142   4.605   7.600 -0.2359  0.7555  0.5350
   31MOL   O24132701   2.089   4.485   7.646 -0.1011 -0.3601  0.7511
   31MOL   C24232702   2.065   4.720   7.612 -0.7766 -0.5068  0.1177
   31MOL   C24332703   2.116   4.840   7.559 -0.3529  0.6871 -0.4473
   31MOL   C24432704   2.160   5.203   7.513 -0.8002  0.2774  0.4430
   31MOL   C24532705   2.144   5.307   7.607  0.2863 -0.1496 -0.1377
   31MOL   C24632706   2.022   5.321   7.961 -0.0411 -0.3492 -0.2467
   31MOL   C24732707   1.979   5.293   8.090 -0.1408 -0.5133  0.2606
   31MOL   C24832708   1.880   5.024   0.052 -0.2146 -0.1879 -0.0082
   31MOL   C24932709   1.761   4.947   0.030 -0.3281 -0.4814  0.5614
   31MOL   H25032710   1.527   5.197   0.066 -0.6673 -1.3589 -2.1491
   31MOL   H25132711   1.728   5.327   0.126  1.1164 -0.2828  1.5508
   31MOL   H25232712   2.263   5.336   0.013 -0.0752  0.1692 -0.5367
   31MOL   H25332713   2.345   5.428   8.034 -0.5752  1.2367  0.8296
   31MOL   H25432714   2.345   5.175   7.854  0.0314  0.3563 -0.1935
   31MOL   H25532715   2.395   5.019   7.686 -1.3696 -1.4250  0.3111
   31MOL   H25632716   2.083   5.002   7.326 -0.1389  0.8303 -0.9810
   31MOL   H25732717   2.218   4.927   7.234  0.9219 -1.4336  1.6916
   31MOL   H25832718   2.212   5.105   7.274  1.4669 -0.5532  0.6905
   31MOL   H25932719   2.490   4.986   7.478  0.9141  0.6652 -0.1064
   31MOL   H26032720   2.451   4.906   7.317  0.2214 -0.1324 -0.3832
   31MOL   H26132721   2.450   5.075   7.346 -2.7265  1.7811  2.9328
   31MOL   H26232722   2.410   4.721   7.437  0.3093  2.1436  0.0768
   31MOL   H26332723   2.325   4.514   7.521  3.5431  2.0361  0.6124
   31MOL   H26432724   1.975   4.721   7.671 -1.4322  2.2925 -0.8666
   31MOL   H26532725   2.054   4.928   7.564 -1.8983 -0.4675  0.9609
   31MOL   H26632726   2.095   5.197   7.426  1.0409  0.2510 -0.9621
   31MOL   H26732727   2.075   5.388   7.592  1.7181  1.1654  0.2374
   31MOL   H26832728   1.959   5.294   7.878 -0.0096 -0.2920 -0.2895
   31MOL   H26932729   1.878   5.262   8.111 -0.7082  1.8677  1.2265
   31MOL   H27032730   1.979   4.981   0.050 -0.3983 -0.7722  1.9563
   31MOL   H27132731   1.773   4.841   0.012  1.5697 -0.2235  0.1822
   31MOL   C27232732   1.980   4.425   7.588  1.0260  0.4202  0.3074
   31MOL   C27332733   1.994   4.376   7.457 -0.6661  0.5020  0.3957
   31MOL   C27432734   1.890   4.310   7.394  0.6099 -0.3509 -0.3973
   31MOL   C27532735   1.764   4.295   7.461  0.4363  0.2097  0.3293
   31MOL   S27632736   1.623   4.213   7.375  0.1404  0.0745 -0.2045
   31MOL   O27732737   1.513   4.207   7.474 -0.3301  0.3916 -0.3162
   31MOL   O27832738   1.669   4.081   7.326 -0.5232  0.5131 -0.6148
   31MOL   C27932739   1.579   4.313   7.235 -0.3874 -0.2881 -0.9551
   31MOL   C28032740   1.458   4.386   7.233  0.1275 -0.1614 -1.1006
   31MOL   C28132741   1.415   4.466   7.124 -0.2277  0.1806  0.5709
   31MOL   C28232742   1.488   4.455   7.003  0.8208  0.3011  0.1217
   31MOL   O28332743   1.455   4.521   6.888 -0.1191 -0.3091 -0.1090
   31MOL   C28432744   1.344   4.603   6.889  0.2430  0.6025  0.2494
   31MOL   C28532745   1.358   4.739   6.901 -0.3393 -1.4277  0.6708
   31MOL   C28632746   1.253   4.827   6.874  0.1587 -0.1790 -0.8145
   31MOL   C28732747   1.121   4.776   6.841 -0.1360  0.8064  0.0018
   31MOL   C28832748   1.014   4.872   6.807  0.6395  0.1814 -0.5080
   31MOL   C28932749   1.061   4.964   6.689  0.2097  0.5588 -0.9634
   31MOL   C29032750   0.883   4.804   6.760  0.1597 -0.7911  0.1854
   31MOL   C29132751   0.980   4.952   6.932 -0.4160 -0.1510  0.1206
   31MOL   C29232752   0.998   5.095   6.935 -0.7180  0.6666  0.1127
   31MOL   C29332753   0.965   5.171   7.049  0.3502 -0.3121 -0.4261
   31MOL   C29432754   0.912   5.102   7.162  0.3041 -0.5094 -0.9724
   31MOL   O29532755   0.862   5.174   7.274  0.7274 -0.1850 -0.3868
   31MOL   C29632756   0.893   4.964   7.163 -0.0413 -0.0834  0.3213
   31MOL   C29732757   0.933   4.891   7.049 -0.1775  1.0007  0.0609
   31MOL   C29832758   1.103   4.636   6.837  0.8464 -0.1946 -0.7118
   31MOL   C29932759   1.210   4.557   6.859 -1.2765  0.5633 -0.1486
   31MOL   C30032760   1.604   4.377   6.990  0.5789  0.3443 -0.1159
   31MOL   C30132761   1.648   4.307   7.108 -0.0774  0.3697 -0.5804
   31MOL   C30232762   1.757   4.343   7.594  0.4066 -0.4822 -0.4311
   31MOL   C30332763   1.859   4.417   7.656  0.4130  0.1927  0.4749
   31MOL   H30432764   2.090   4.391   7.410 -1.0448  1.1637 -0.1648
   31MOL   H30532765   1.896   4.285   7.289  1.4455 -0.0288 -0.4347
   31MOL   H30632766   1.408   4.387   7.329 -0.2357 -0.0286 -1.2900
   31MOL   H30732767   1.332   4.535   7.129  0.9171  1.6857 -0.6485
   31MOL   H30832768   1.452   4.786   6.928  0.5100 -1.9502 -1.2887
   31MOL   H30932769   1.268   4.933   6.885 -1.0702 -0.0162 -0.5271
   31MOL   H31032770   1.063   4.901   6.600  2.6984 -3.1335  1.5930
   31MOL   H31132771   1.158   5.013   6.693  0.9136 -0.9114  0.2649
   31MOL   H31232772   0.986   5.041   6.670 -0.1118  0.5906  0.3556
   31MOL   H31332773   0.835   4.729   6.823 -1.6156  0.7119  0.6570
   31MOL   H31432774   0.804   4.874   6.732  1.6873  1.5282  1.5304
   31MOL   H31532775   0.903   4.743   6.671  0.8386 -1.3286  0.7058
   31MOL   H31632776   1.023   5.158   6.850  0.1266  1.7289  1.1442
   31MOL   H31732777   0.958   5.279   7.053 -2.8626 -0.3824 -2.0372
   31MOL   H31832778   0.859   4.915   7.253 -0.5249  0.4825  0.4506
   31MOL   H31932779   0.923   4.785   7.064 -0.6737  1.0124 -0.1908
   31MOL   H32032780   1.005   4.596   6.819  1.0889 -0.5503 -1.2642
   31MOL   H32132781   1.195   4.450   6.852  0.8799  0.2196  0.2162
   31MOL   H32232782   1.659   4.370   6.897 -0.3000 -0.4709 -0.5738
   31MOL   H32332783   1.739   4.249   7.096 -1.6780 -2.3899  0.3312
   31MOL   H32432784   1.661   4.333   7.642  0.7918 -1.6304  0.1227
   31MOL   H32532785   1.840   4.449   7.757 -1.2104 -1.0983  0.5898
   31MOL   C32632786   0.956   5.236   7.352  0.4323 -0.1322 -0.8737
   31MOL   C32732787   1.034   5.168   7.446 -0.1996  0.0597 -0.8611
   31MOL   C32832788   1.123   5.242   7.532  0.2800 -0.6967  0.0251
   31MOL   C32932789   1.136   5.381   7.511 -0.1941 -0.3016  0.6117
   31MOL   S33032790   1.262   5.469   7.608  0.2334  0.4313  0.0563
   31MOL   O33132791   1.254   5.429   7.749 -0.3148 -0.0311 -0.5549
   31MOL   O33232792   1.239   5.608   7.568  0.0844  0.0517 -1.0240
   31MOL   C33332793   1.419   5.414   7.541  0.0079  0.3631  0.7047
   31MOL   C33432794   1.442   5.408   7.398 -0.3993  0.3856 -0.3261
   31MOL   C33532795   1.567   5.357   7.351  0.2059 -0.4784 -0.1543
   31MOL   C33632796   1.670   5.334   7.443 -0.1499 -0.6343 -0.0751
   31MOL   O33732797   1.799   5.295   7.397  0.7398 -0.4397 -0.0912
   31MOL   C33832798   1.810   5.170   7.344  0.3832  0.9282  0.1546
   31MOL   C33932799   1.817   5.058   7.432 -0.5242 -0.6194 -0.2703
   31MOL   C34032800   1.823   4.928   7.379 -0.4878  0.3947 -0.2248
   31MOL   C34132801   1.832   4.898   7.241 -0.1116  0.0691  1.0336
   31MOL   C34232802   1.836   4.746   7.194 -0.1084  0.1500  0.1270
   31MOL   C34332803   1.965   4.675   7.253  0.3611 -0.2005 -1.0792
   31MOL   C34432804   1.723   4.661   7.258  0.4878  0.2750 -0.5185
   31MOL   C34532805   1.837   4.716   7.040  0.1932 -0.3858  0.6278
   31MOL   C34632806   1.960   4.706   6.968 -0.0296 -0.4912  0.0228
   31MOL   C34732807   1.962   4.679   6.829 -0.9076  0.1960 -0.1469
   31MOL   C34832808   1.840   4.672   6.754  0.1651  0.2978  0.0991
   31MOL   O34932809   1.854   4.627   6.624  0.1078  0.0800  0.2666
   31MOL   C35032810   1.722   4.687   6.827 -0.5871  0.0777  0.7526
   31MOL   C35132811   1.718   4.712   6.961  0.2647  0.0789  0.2242
   31MOL   C35232812   1.821   5.016   7.157  0.4686  0.6084 -0.0407
   31MOL   C35332813   1.813   5.144   7.205  0.5905 -0.8048  0.0615
   31MOL   C35432814   1.653   5.354   7.581  0.4329  0.0941 -0.4840
   31MOL   C35532815   1.523   5.388   7.630  0.1990 -0.5160 -0.6242
   31MOL   C35632816   1.068   5.453   7.415  0.2747 -0.0139 -0.3373
   31MOL   C35732817   0.978   5.375   7.336 -0.5414 -0.8888 -1.0154
   31MOL   H35832818   1.029   5.060   7.446 -2.3764  0.1312  0.1771
   31MOL   H35932819   1.181   5.194   7.609  1.1991  1.5949  0.8231
   31MOL   H36032820   1.367   5.447   7.331  1.8244 -1.3037 -3.9403
   31MOL   H36132821   1.583   5.352   7.244  1.9812 -0.2206  0.0915
   31MOL   H36232822   1.813   5.066   7.539  1.1651  0.9727 -0.3100
   31MOL   H36332823   1.808   4.844   7.444  0.3139 -0.2455 -0.8507
   31MOL   H36432824   1.968   4.677   7.362 -1.3483 -2.2615 -0.9475
   31MOL   H36532825   2.057   4.725   7.226  0.6924  0.4526  1.1950
   31MOL   H36632826   1.969   4.573   7.214 -0.6697 -0.0917 -1.5015
   31MOL   H36732827   1.728   4.633   7.363 -0.1164  2.4167  0.0955
   31MOL   H36832828   1.626   4.709   7.246  0.2178 -0.2727 -0.5574
   31MOL   H36932829   1.721   4.570   7.197  0.0922  1.0142 -1.6315
   31MOL   H37032830   2.056   4.720   7.016  0.3574 -0.4026 -0.7688
   31MOL   H37132831   2.055   4.666   6.775 -0.3479  2.2662  0.2969
   31MOL   H37232832   1.631   4.675   6.769  0.5746 -3.4131 -0.4708
   31MOL   H37332833   1.620   4.721   7.005  0.2326  0.8312  0.0152
   31MOL   H37432834   1.829   5.000   7.050  2.0796  3.4803 -0.3903
   31MOL   H37532835   1.802   5.226   7.136 -1.7998 -1.9915 -1.0122
   31MOL   H37632836   1.737   5.347   7.649  2.0583  0.3900 -2.4190
   31MOL   H37732837   1.511   5.390   7.738  2.6551  3.2350 -0.3572
   31MOL   H37832838   1.088   5.557   7.397 -1.4124  0.5183  0.7848
   31MOL   H37932839   0.929   5.432   7.258  1.6306  0.7654 -1.2052
   31MOL   C38032840   1.757   4.546   6.580 -0.3581 -0.0701  0.2619
   31MOL   C38132841   1.688   4.591   6.459 -0.6834  0.9427  0.3609
   31MOL   C38232842   1.586   4.511   6.404 -0.6926 -0.4267 -0.2366
   31MOL   C38332843   1.549   4.393   6.478 -0.8610  0.4962 -0.4198
   31MOL   S38432844   1.418   4.294   6.417 -0.0818  0.5697 -0.4096
   31MOL   O38532845   1.371   4.210   6.528 -0.6043 -0.0083 -0.1323
   31MOL   O38632846   1.457   4.229   6.293  0.2457  0.5083 -0.3455
   31MOL   C38732847   1.288   4.410   6.383 -0.1608 -0.1305 -0.2034
   31MOL   C38832848   1.263   4.523   6.469 -0.8518  0.1050  0.1814
   31MOL   C38932849   1.177   4.631   6.438  0.2206  0.2845  0.8272
   31MOL   C39032850   1.097   4.613   6.321  0.0831  0.2065  0.1745
   31MOL   O39132851   1.000   4.702   6.292  0.0060 -0.0336  0.2783
   31MOL   C39232852   0.873   4.689   6.337  0.5480  0.4893  0.3425
   31MOL   C39332853   0.803   4.804   6.362 -0.5906  0.4941  0.4114
   31MOL   C39432854   0.674   4.802   6.411 -0.3740 -0.4884  0.0782
   31MOL   C39532855   0.619   4.683   6.460 -0.3208  0.0644 -0.5196
   31MOL   C39632856   0.483   4.677   6.534  0.2144 -0.1437 -0.6214
   31MOL   C39732857   0.513   4.666   6.688 -0.0724 -0.7181 -0.3042
   31MOL   C39832858   0.384   4.797   6.507  0.2113 -0.2033 -0.2053
   31MOL   C39932859   0.404   4.554   6.490  0.0244  0.6738 -0.6704
   31MOL   C40032860   0.383   4.535   6.350 -0.0397 -0.1221 -0.0657
   31MOL   C40132861   0.310   4.423   6.306  0.6928 -0.3173 -0.3899
   31MOL   C40232862   0.268   4.321   6.389 -0.3479 -0.4222  0.2296
   31MOL   O40332863   0.197   4.217   6.341 -0.2152  0.1391 -0.1854
   31MOL   C40432864   0.298   4.338   6.528  0.0131  0.4938  0.1063
   31MOL   C40532865   0.352   4.455   6.578 -0.1167 -0.2165 -0.1148
   31MOL   C40632866   0.691   4.567   6.435  0.5031 -0.6253  0.1566
   31MOL   C40732867   0.813   4.564   6.375  0.2507  0.2646  0.5254
   31MOL   C40832868   1.110   4.503   6.235 -0.2960 -0.0513  0.1796
   31MOL   C40932869   1.212   4.408   6.263  1.0977  0.4488 -0.5177
   31MOL   C41032870   1.621   4.349   6.595  0.1877  0.7871  0.3587
   31MOL   C41132871   1.727   4.425   6.646 -0.6491 -0.4937 -0.2564
   31MOL   H41232872   1.717   4.683   6.409 -0.1026  0.1861 -0.7117
   31MOL   H41332873   1.539   4.539   6.311 -1.0722 -1.5403 -0.3748
   31MOL   H41432874   1.327   4.532   6.556  0.5082  2.7524 -1.0390
   31MOL   H41532875   1.168   4.718   6.501 -1.4703  0.1086  0.8482
   31MOL   H41632876   0.850   4.899   6.341  0.1314 -0.1846 -1.1583
   31MOL   H41732877   0.614   4.889   6.432 -0.5027 -0.3467 -0.8588
   31MOL   H41832878   0.570   4.754   6.720 -0.7970 -0.9075  1.5764
   31MOL   H41932879   0.557   4.571   6.720 -0.6350 -0.0868  2.4234
   31MOL   H42032880   0.423   4.676   6.749  1.3251  0.0824  1.6711
   31MOL   H42132881   0.359   4.799   6.401  0.3165  1.7784 -0.2192
   31MOL   H42232882   0.302   4.790   6.578  1.3591 -2.1221  0.9696
   31MOL   H42332883   0.435   4.892   6.524 -1.0097  0.6572 -1.2635
   31MOL   H42432884   0.404   4.614   6.279  1.9352  0.3115  0.9714
   31MOL   H42532885   0.293   4.404   6.201 -3.8219 -1.7147  0.4983
   31MOL   H42632886   0.267   4.265   6.602  3.0846 -1.1229 -0.1007
   31MOL   H42732887   0.365   4.469   6.685 -2.0497 -1.0293  0.2475
   31MOL   H42832888   0.641   4.479   6.473  0.2889 -0.8149 -0.5635
   31MOL   H42932889   0.873   4.477   6.355 -1.8872 -0.7593 -1.7925
   31MOL   H43032890   1.049   4.496   6.146  1.3780  0.2231 -1.0265
   31MOL   H43132891   1.228   4.321   6.202 -1.8570  0.4805 -1.4263
   31MOL   H43232892   1.597   4.259   6.651  0.5383 -0.5723 -1.6275
   31MOL   H43332893   1.791   4.395   6.727 -1.7099  0.9943  1.1577
   31MOL   C43432894   0.079   4.185   6.385 -0.1383 -0.1373  0.4451
   31MOL   C43532895   8.251   4.276   6.458 -0.2310  0.2213  0.3258
   31MOL   C43632896   8.129   4.241   6.508  0.1648 -0.3796 -0.2305
   31MOL   C43732897   8.079   4.113   6.497  0.2640 -0.3596 -0.7044
   31MOL   S43832898   7.919   4.057   6.564  0.0168 -0.1427 -0.3849
   31MOL   O43932899   7.900   4.126   6.694 -0.2801  0.0784  0.2178
   31MOL   O44032900   7.903   3.909   6.557  0.1120 -0.2575  0.0843
   31MOL   C44132901   7.799   4.128   6.448  0.9526 -0.2034 -0.0203
   31MOL   C44232902   7.719   4.232   6.480  1.0065 -0.3286  0.7869
   31MOL   C44332903   7.638   4.297   6.393 -0.7067 -0.2313  0.4966
   31MOL   C44432904   7.624   4.243   6.259  0.2751 -0.6961 -0.7840
   31MOL   O44532905   7.541   4.298   6.168  0.4758  0.3954 -0.1045
   31MOL   C44632906   7.409   4.264   6.175  0.1262  0.3124  0.7311
   31MOL   C44732907   7.321   4.336   6.083  0.0010 -0.9522  0.4797
   31MOL   C44832908   7.185   4.298   6.069  0.7934  0.1561  0.2228
   31MOL   C44932909   7.137   4.184   6.135 -0.0102 -0.0595 -0.5687
   31MOL   C45032910   6.997   4.118   6.113  0.1440 -0.0534 -0.0139
   31MOL   C45132911   6.921   4.194   5.999 -0.8496 -0.0541 -0.1790
   31MOL   C45232912   7.018   3.972   6.069 -0.3695  0.2478 -0.0849
   31MOL   C45332913   6.918   4.132   6.251  0.2159  0.0292  0.2121
   31MOL   C45432914   6.923   4.256   6.313 -0.3633 -0.2150 -0.3998
   31MOL   C45532915   6.845   4.290   6.430 -0.1319  0.0790 -0.1266
   31MOL   C45632916   6.776   4.186   6.494 -0.4198 -0.3244 -0.4713
   31MOL   O45732917   6.707   4.211   6.612  0.1701  0.2703 -0.2544
   31MOL   C45832918   6.783   4.054   6.442  0.2159  0.2892  0.5980
   31MOL   C45932919   6.856   4.028   6.323 -0.1108  0.1299  0.2155
   31MOL   C46032920   7.218   4.123   6.229 -0.1749 -0.6066  0.6573
   31MOL   C46132921   7.352   4.166   6.258  0.4220  0.2661  0.3336
   31MOL   C46232922   7.706   4.133   6.223 -0.8633  0.0413 -0.7486
   31MOL   C46332923   7.787   4.073   6.320  0.3454 -0.1332  0.0418
   31MOL   C46432924   8.164   4.018   6.428  0.3293 -0.1126  0.1805
   31MOL   C46532925   0.036   4.054   6.378  0.5195  0.3924 -0.4043
   31MOL   H46632926   0.038   4.376   6.459 -0.2176  0.2617 -1.6272
   31MOL   H46732927   8.072   4.315   6.563 -2.6291 -3.6975  1.5360
   31MOL   H46832928   7.729   4.278   6.578  1.0786  1.3235  0.0320
   31MOL   H46932929   7.589   4.390   6.417 -0.8282  0.0456 -0.7718
   31MOL   H47032930   7.355   4.411   6.013  1.6974 -0.7828  1.4656
   31MOL   H47132931   7.137   4.359   5.993 -0.2594  0.5581  1.1938
   31MOL   H47232932   6.817   4.160   5.998 -0.3769 -1.5560  0.2949
   31MOL   H47332933   6.954   4.166   5.899 -1.1929 -1.1139  0.0006
   31MOL   H47432934   6.916   4.302   6.016 -2.5834 -0.1650  0.1621
   31MOL   H47532935   6.918   3.939   6.041 -1.8418  3.0836  1.6128
   31MOL   H47632936   7.084   3.958   5.983 -1.4654  0.8541 -1.0339
   31MOL   H47732937   7.073   3.904   6.135  1.7097  2.7942  0.9266
   31MOL   H47832938   6.970   4.342   6.268 -3.2764  1.5599 -0.2318
   31MOL   H47932939   6.841   4.395   6.456 -1.6304 -0.4920  2.1201
   31MOL   H48032940   6.733   3.968   6.485  0.5199 -0.6335 -0.8469
   31MOL   H48132941   6.868   3.930   6.280  2.4029  1.0949 -1.3866
   31MOL   H48232942   7.185   4.044   6.295  0.8668  0.7358  2.8292
   31MOL   H48332943   7.401   4.114   6.340  1.0200  0.8417  0.3492
   31MOL   H48432944   7.696   4.090   6.125  3.0588 -1.5167 -0.5627
   31MOL   H48532945   7.845   3.984   6.298 -0.3899 -0.6628  0.2375
   31MOL   H48632946   8.121   3.920   6.414  0.7557 -0.2181 -0.4205
   31MOL   H48732947   0.081   3.975   6.321  0.1329 -1.4752  1.7965
   31MOL   C48832948   6.572   4.201   6.611 -0.3852  0.0249 -0.2789
   31MOL   C48932949   6.503   4.316   6.592 -0.1035  0.5939  0.2161
   31MOL   C49032950   6.363   4.317   6.601  0.6205  0.2028  0.0542
   31MOL   C49132951   6.298   4.193   6.620 -0.6993 -0.3188 -0.0807
   31MOL   S49232952   6.116   4.182   6.620 -0.4683  0.1277 -0.2427
   31MOL   O49332953   6.046   4.297   6.674  0.8695 -0.4210  0.0233
   31MOL   O49432954   6.082   4.050   6.676 -0.1194  0.3658 -0.3956
   31MOL   C49532955   6.072   4.187   6.446  0.8004  0.0235 -0.0511
   31MOL   C49632956   6.046   4.061   6.381  0.5746  0.2685  0.6945
   31MOL   C49732957   5.989   4.063   6.252  0.3734 -0.1431  0.3169
   31MOL   C49832958   5.975   4.186   6.179 -0.2191  0.0284 -0.3870
   31MOL   O49932959   5.915   4.201   6.060 -0.1005 -0.0237 -0.0797
   31MOL   C50032960   5.990   4.173   5.951 -0.5417 -0.2908 -0.4365
   31MOL   C50132961   6.109   4.247   5.920  0.1423 -0.2523 -0.8136
   31MOL   C50232962   6.199   4.198   5.830 -0.4752  0.1648 -0.2997
   31MOL   C50332963   6.170   4.077   5.754  0.2877 -1.1343 -0.3645
   31MOL   C50432964   6.283   4.014   5.664  0.1470 -0.0108 -0.6687
   31MOL   C50532965   6.368   3.927   5.761  0.3616  0.4819  0.6342
   31MOL   C50632966   6.219   3.912   5.572 -0.3188  0.3144 -0.8872
   31MOL   C50732967   6.363   4.123   5.595 -1.0034 -0.5823  0.0071
   31MOL   C50832968   6.501   4.140   5.623 -0.7699 -0.1448  0.4586
   31MOL   C50932969   6.576   4.247   5.565 -0.4360 -0.1271 -0.0489
   31MOL   C51032970   6.517   4.326   5.466  0.4902 -0.8577  0.0637
   31MOL   O51132971   6.592   4.428   5.408 -0.4012  0.1632 -0.1699
   31MOL   C51232972   6.383   4.312   5.434  0.9285 -0.1985 -0.3684
   31MOL   C51332973   6.305   4.212   5.498  0.0107  0.4135  1.0315
   31MOL   C51432974   6.050   4.014   5.783  0.0153 -0.4800  0.6467
   31MOL   C51532975   5.954   4.058   5.877 -0.7815  0.1763 -0.4044
   31MOL   C51632976   6.009   4.305   6.235 -0.1500  0.6097  0.5456
   31MOL   C51732977   6.049   4.309   6.371  0.4723  1.0930 -0.2258
   31MOL   C51832978   6.368   4.077   6.644  0.4841  0.0343  0.1208
   31MOL   C51932979   6.508   4.080   6.642  0.1505  0.2991  0.3298
   31MOL   H52032980   6.560   4.408   6.585 -0.4564  1.2806  4.9399
   31MOL   H52132981   6.318   4.414   6.585 -1.6459 -0.9136 -0.5188
   31MOL   H52232982   6.065   3.970   6.437  1.7635 -0.0422 -0.2021
   31MOL   H52332983   5.980   3.979   6.185  0.0328 -0.6604  1.0143
   31MOL   H52432984   6.125   4.337   5.977 -3.1192  0.4470 -0.9510
   31MOL   H52532985   6.294   4.249   5.817  0.1314 -0.5919  1.0484
   31MOL   H52632986   6.407   3.981   5.847  3.0148 -0.7651  0.2720
   31MOL   H52732987   6.451   3.872   5.716 -0.4183 -1.3656  1.3700
   31MOL   H52832988   6.302   3.850   5.803  0.6590  0.9365  1.9535
   31MOL   H52932989   6.287   3.882   5.493  0.2808 -0.1831 -0.1949
   31MOL   H53032990   6.192   3.821   5.626  1.6845  0.3791  0.2817
   31MOL   H53132991   6.128   3.948   5.524 -1.5969  2.2175  2.7412
   31MOL   H53232992   6.551   4.071   5.689 -0.9847  0.7469  1.5781
   31MOL   H53332993   6.679   4.264   5.591 -0.7694  0.4470  0.9325
   31MOL   H53432994   6.326   4.371   5.364  0.0548 -1.3868 -0.6926
   31MOL   H53532995   6.199   4.204   5.483  0.2515 -1.4411  0.1753
   31MOL   H53632996   6.021   3.931   5.721 -0.7710  0.3901 -0.1634
   31MOL   H53732997   5.864   4.003   5.900 -1.5871  0.7237 -2.0882
   31MOL   H53832998   5.991   4.393   6.176  0.7750 -0.2884 -1.1365
   31MOL   H53932999   6.066   4.402   6.423  0.4425  1.0008 -0.0507
   31MOL   H54033000   6.317   3.982   6.656  2.7781 -1.0719  1.4626
   31MOL   H54133001   6.561   3.987   6.658 -1.3315 -0.6264 -0.0034
   31MOL   C54233002   6.559   4.563   5.434  0.9242 -0.2076 -0.2559
   31MOL   C54333003   6.642   4.666   5.369 -0.6882 -0.0220 -0.6151
   31MOL   C54433004   6.610   4.800   5.399 -0.0048 -0.2358 -0.4637
   31MOL   C54533005   6.503   4.839   5.487 -0.0409  0.6830  0.4265
   31MOL   S54633006   6.469   5.012   5.518  0.2172  0.1321  0.1141
   31MOL   O54733007   6.338   5.020   5.580 -0.2694 -0.4362  0.0405
   31MOL   O54833008   6.498   5.084   5.391  0.2161 -0.3286  0.1207
   31MOL   C54933009   6.584   5.071   5.639 -0.9031  0.4702  0.6994
   31MOL   C55033010   6.562   5.204   5.676  0.3553 -0.3555  0.4960
   31MOL   C55133011   6.647   5.262   5.782  0.6588  0.0000  0.4681
   31MOL   C55233012   6.748   5.181   5.841  0.1131 -0.4936  0.0854
   31MOL   O55333013   6.826   5.234   5.948  0.1237  0.1327  0.1858
   31MOL   C55433014   6.780   5.197   6.072 -0.6882 -0.0629 -0.4129
   31MOL   C55533015   6.842   5.079   6.125 -0.0036  0.6114 -0.0712
   31MOL   C55633016   6.790   5.029   6.250 -0.7861  0.4999  0.1722
   31MOL   C55733017   6.687   5.100   6.319 -0.4818  0.8161  0.0781
   31MOL   C55833018   6.620   5.047   6.446  0.2162  0.4387 -0.3230
   31MOL   C55933019   6.469   5.016   6.424 -0.2842  1.5770  0.3770
   31MOL   C56033020   6.681   4.911   6.495 -0.0408 -0.0900 -0.1460
   31MOL   C56133021   6.637   5.150   6.565  0.2656 -0.6116  0.5540
   31MOL   C56233022   6.765   5.189   6.602  0.0973 -0.0983 -0.1776
   31MOL   C56333023   6.786   5.293   6.695 -0.0266 -0.2881  0.2494
   31MOL   C56433024   6.680   5.372   6.742  0.3178 -0.2772  0.1017
   31MOL   O56533025   6.701   5.490   6.815 -0.1813  0.2958  0.2169
   31MOL   C56633026   6.553   5.333   6.702 -0.0479  0.3383  0.6333
   31MOL   C56733027   6.529   5.222   6.621 -0.0034 -0.3435 -0.2089
   31MOL   C56833028   6.635   5.220   6.267  0.0057 -0.3752 -0.5740
   31MOL   C56933029   6.680   5.268   6.140  0.2049 -0.0895 -0.5783
   31MOL   C57033030   6.754   5.040   5.812  1.0893  0.0105  0.2656
   31MOL   C57133031   6.679   4.988   5.709  0.4235  0.6974 -0.7288
   31MOL   C57233032   6.447   4.735   5.564  0.3515 -0.1802 -0.0805
   31MOL   C57333033   6.474   4.603   5.540  0.1025 -0.0970  0.0971
   31MOL   H57433034   6.720   4.639   5.300  0.0427  0.9773 -0.1907
   31MOL   H57533035   6.676   4.878   5.364  0.1107 -0.1547 -0.0597
   31MOL   H57633036   6.491   5.270   5.628  2.0592  1.6823  0.7098
   31MOL   H57733037   6.619   5.358   5.822  0.2156 -0.8954  2.3617
   31MOL   H57833038   6.930   5.030   6.086 -0.3510  1.4638 -1.9738
   31MOL   H57933039   6.831   4.935   6.284 -0.4040  0.3058 -0.8143
   31MOL   H58033040   6.429   4.964   6.511  1.3456 -0.1447  0.1391
   31MOL   H58133041   6.460   4.956   6.334  0.2437  1.5048  0.3718
   31MOL   H58233042   6.412   5.108   6.415  0.2166  1.8827  0.3327
   31MOL   H58333043   6.636   4.876   6.587 -0.7575 -0.0971 -0.4986
   31MOL   H58433044   6.660   4.835   6.420  0.9097 -1.1100  0.6115
   31MOL   H58533045   6.786   4.909   6.524 -0.6501 -2.7387  2.0115
   31MOL   H58633046   6.848   5.147   6.548  0.2118  0.2165 -0.2501
   31MOL   H58733047   6.887   5.314   6.726  0.1932 -0.3367 -0.4244
   31MOL   H58833048   6.471   5.391   6.740 -0.6771 -0.5072  0.5798
   31MOL   H58933049   6.424   5.210   6.598 -0.5945 -0.8591  2.5434
   31MOL   H59033050   6.563   5.281   6.320 -1.0203 -0.7354 -1.5225
   31MOL   H59133051   6.630   5.357   6.104  0.6679 -0.1256 -1.3063
   31MOL   H59233052   6.830   4.983   5.863  0.0961 -0.2414  1.5155
   31MOL   H59333053   6.679   4.883   5.684 -0.3156  0.5833 -0.2634
   31MOL   H59433054   6.382   4.762   5.646  0.9282  0.2048  0.2575
   31MOL   H59533055   6.414   4.541   5.606 -1.4740  1.1915 -0.0895
   31MOL   C59633056   6.712   5.604   6.743 -0.0350 -0.4663  0.1070
   31MOL   C59733057   6.613   5.700   6.754  0.1781 -0.1614  0.6172
   31MOL   C59833058   6.617   5.821   6.691 -0.2397  1.0148  0.2644
   31MOL   C59933059   6.714   5.849   6.594 -0.6699  0.2810 -0.2009
   31MOL   S60033060   6.704   5.993   6.495 -0.0963 -0.7066 -0.4196
   31MOL   O60133061   6.582   6.001   6.416 -0.0573 -0.7517 -0.7633
   31MOL   O60233062   6.833   6.011   6.426 -0.2549 -0.0258  0.1250
   31MOL   C60333063   6.688   6.125   6.622 -0.4807 -0.5615 -0.1828
   31MOL   C60433064   6.562   6.182   6.655 -0.0437 -0.0337  0.0805
   31MOL   C60533065   6.562   6.287   6.750 -0.2543 -0.3170  0.4690
   31MOL   C60633066   6.680   6.330   6.814  0.1313  0.0182  0.0715
   31MOL   O60733067   6.683   6.413   6.921  0.5023 -0.4981  0.5195
   31MOL   C60833068   6.617   6.533   6.921 -0.4593 -0.3168  0.0128
   31MOL   C60933069   6.580   6.587   7.046  0.9397 -0.0123 -0.7542
   31MOL   C61033070   6.524   6.713   7.058 -0.5719  0.0310  0.0492
   31MOL   C61133071   6.487   6.793   6.949 -0.3909 -0.5784 -0.4577
   31MOL   C61233072   6.426   6.931   6.972 -0.2643 -0.2352 -0.5700
   31MOL   C61333073   6.452   7.032   6.855 -0.0881 -0.2587  0.1420
   31MOL   C61433074   6.271   6.918   6.976  0.8709  0.3900  0.6083
   31MOL   C61533075   6.472   6.997   7.106  0.9673  0.4814 -0.2826
   31MOL   C61633076   6.397   6.986   7.224 -0.5409  0.7143 -0.1783
   31MOL   C61733077   6.449   7.031   7.346 -0.5896  0.4458  0.4778
   31MOL   C61833078   6.582   7.083   7.354  0.5137  0.0535  0.8623
   31MOL   O61933079   6.630   7.146   7.465 -0.1607  0.0826  0.0897
   31MOL   C62033080   6.657   7.090   7.239  0.4204 -0.6846 -0.0854
   31MOL   C62133081   6.605   7.045   7.117  0.3288  0.0212  0.0913
   31MOL   C62233082   6.520   6.737   6.825  0.1198 -0.2675  0.5089
   31MOL   C62333083   6.587   6.612   6.810  0.2142  0.5289  0.7144
   31MOL   C62433084   6.803   6.277   6.775 -0.0772 -0.2803  0.1705
   31MOL   C62533085   6.808   6.165   6.683 -0.0302 -0.1286 -0.0848
   31MOL   C62633086   6.816   5.751   6.571 -0.3073  0.4840 -0.3270
   31MOL   C62733087   6.811   5.632   6.647  0.1588  0.3501 -0.4969
   31MOL   H62833088   6.532   5.676   6.821  0.3826 -0.2200  0.8427
   31MOL   H62933089   6.543   5.894   6.723 -1.1439 -0.0889  0.7234
   31MOL   H63033090   6.470   6.156   6.604  0.0378  0.6068 -0.4033
   31MOL   H63133091   6.465   6.319   6.786  1.4463  2.5199  2.6892
   31MOL   H63233092   6.605   6.530   7.134 -0.6705 -0.2079 -0.4219
   31MOL   H63333093   6.497   6.746   7.157  2.6630  0.7642  0.7476
   31MOL   H63433094   6.422   7.136   6.872  0.4233 -0.3404  1.5677
   31MOL   H63533095   6.404   6.990   6.767  1.5158  0.6674 -1.2014
   31MOL   H63633096   6.560   7.037   6.840 -0.3673  1.3406 -1.6088
   31MOL   H63733097   6.218   7.010   7.005  1.7006  0.9601  0.3198
   31MOL   H63833098   6.224   6.913   6.877 -3.0259  2.9855  2.1865
   31MOL   H63933099   6.243   6.829   7.032  0.2573 -0.4889 -1.0516
   31MOL   H64033100   6.297   6.943   7.228  1.2186 -3.5369  2.5448
   31MOL   H64133101   6.395   7.025   7.439 -0.3924  0.4553  0.5925
   31MOL   H64233102   6.752   7.141   7.237  0.1055 -0.0894  0.0180
   31MOL   H64333103   6.669   7.049   7.030 -1.9569  0.8122 -1.6184
   31MOL   H64433104   6.501   6.799   6.739 -0.4026 -0.7298  0.2846
   31MOL   H64533105   6.617   6.576   6.712  1.1720  1.9023  0.4800
   31MOL   H64633106   6.888   6.318   6.826 -0.8035  0.6542  0.6436
   31MOL   H64733107   6.900   6.116   6.656  0.4769  0.9662 -0.3686
   31MOL   H64833108   6.888   5.755   6.491  0.2923 -0.3122  0.1740
   31MOL   H64933109   6.879   5.549   6.637  1.0122  1.1662 -1.5580
   31MOL   C65033110   6.590   7.124   7.599 -0.3225  0.2640  0.0238
   31MOL   C65133111   6.622   7.003   7.666 -0.2700  0.6011 -0.0938
   31MOL   C65233112   6.584   6.984   7.803  0.3188 -0.2889  0.0251
   31MOL   C65333113   6.524   7.087   7.872  0.1932  0.4682 -0.6674
   31MOL   S65433114   6.487   7.064   8.052 -0.0928  0.0077 -0.1342
   31MOL   O65533115   6.530   7.187   8.118 -0.7717  0.5398 -0.4651
   31MOL   O65633116   6.543   6.939   8.110  0.0147 -0.0350 -1.1945
   31MOL   C65733117   6.308   7.055   8.067 -0.3654  0.3867  0.5040
   31MOL   C65833118   6.239   6.987   8.173  0.1541 -0.8405 -0.9214
   31MOL   C65933119   6.101   6.969   8.173  0.1120  0.2629 -0.1021
   31MOL   C66033120   6.025   7.022   8.066  0.9285  1.2036  0.9464
   31MOL   O66133121   5.888   6.996   8.060 -0.2283  0.8990 -0.2010
   31MOL   C66233122   5.809   7.073   8.144  0.4510 -0.2178  0.8199
   31MOL   C66333123   5.775   7.025   0.018 -0.7472 -0.0926 -0.7022
   31MOL   C66433124   5.702   7.100   0.107 -0.6195 -0.1012 -0.7944
   31MOL   C66533125   5.653   7.231   0.071 -0.0344  0.2478  0.1707
   31MOL   C66633126   5.571   7.315   0.165 -0.0853  0.0742 -0.7522
   31MOL   C66733127   5.492   7.228   0.267  0.2026 -0.3268  0.0414
   31MOL   C66833128   5.677   7.389   0.243 -0.1568  0.5623 -0.1206
   31MOL   C66933129   5.469   7.403   0.091 -0.2617  0.6674 -0.2687
   31MOL   C67033130   5.443   7.535   0.136  0.1348  0.3867  0.1787
   31MOL   C67133131   5.339   7.610   0.078  0.7078  0.3672  0.0891
   31MOL   C67233132   5.256   7.555   8.231 -0.5326 -0.2112 -0.1777
   31MOL   O67333133   5.140   7.618   8.198 -0.5035  0.5295  0.4034
   31MOL   C67433134   5.289   7.426   8.186  0.4006  0.1728 -0.4284
   31MOL   C67533135   5.403   7.356   8.231  0.0493 -0.4189  0.3103
   31MOL   C67633136   5.704   7.288   8.202  0.1292  0.4191  0.2077
   31MOL   C67733137   5.770   7.205   8.112 -0.2701  0.0007 -0.4612
   31MOL   C67833138   6.086   7.087   7.962  0.6794 -0.1046  0.4478
   31MOL   C67933139   6.226   7.112   7.965  1.1096 -0.2806  0.9430
   31MOL   C68033140   6.498   7.212   7.804 -0.3080  0.2384  0.2254
   31MOL   C68133141   6.522   7.223   7.666  0.0821  0.1323  0.7096
   31MOL   H68233142   6.679   6.930   7.609 -0.0072  0.5431  0.2388
   31MOL   H68333143   6.608   6.888   7.846  0.8255 -0.5146 -0.7508
   31MOL   H68433144   6.293   6.937   8.252  1.0986  0.6934 -0.5846
   31MOL   H68533145   6.048   6.912   8.248 -1.4309  0.7044 -0.8305
   31MOL   H68633146   5.800   6.924   0.050  2.4994  0.6214 -0.8305
   31MOL   H68733147   5.673   7.051   0.199  0.0220 -2.2640 -1.6928
   31MOL   H68833148   5.424   7.289   0.327 -0.0349 -0.2663 -0.2857
   31MOL   H68933149   5.562   7.176   0.333  0.2388 -1.2334 -0.7022
   31MOL   H69033150   5.419   7.161   0.221  0.2712 -0.3897  0.0256
   31MOL   H69133151   5.740   7.446   0.175  0.9037  1.8599  1.9214
   31MOL   H69233152   5.653   7.457   0.324  0.3856 -0.5485  0.9733
   31MOL   H69333153   5.751   7.319   0.280 -0.4718  0.4351  0.2681
   31MOL   H69433154   5.505   7.567   0.218  0.4066  1.2972 -0.3735
   31MOL   H69533155   5.310   7.705   0.122 -1.9767 -1.0914  1.6046
   31MOL   H69633156   5.222   7.381   8.114 -1.9063  1.7713  0.6439
   31MOL   H69733157   5.444   7.266   8.186 -0.1242 -1.0096  1.3222
   31MOL   H69833158   5.686   7.390   8.172  0.0652  0.4119  0.2228
   31MOL   H69933159   5.794   7.249   8.016  1.0375 -2.0972 -1.1457
   31MOL   H70033160   6.022   7.128   7.885  0.1824  2.2826  2.0989
   31MOL   H70133161   6.265   7.176   7.887  0.2402 -0.3102  0.4727
   31MOL   H70233162   6.441   7.286   7.858  1.2032  1.9639 -0.4453
   31MOL   H70333163   6.493   7.310   7.610 -1.4308  0.0317  1.3199
   31MOL   C70433164   5.144   7.756   8.199  0.1771  0.3868 -0.3971
   31MOL   C70533165   5.082   7.822   0.053  0.5348  0.3835 -0.0103
   31MOL   C70633166   5.096   7.964   0.066 -0.1443  0.2359  0.0745
   31MOL   C70733167   5.148   8.039   8.214 -0.0547 -0.0191  0.0319
   31MOL   S70833168   5.163   8.220   8.229 -0.0270  0.0292  0.4345
   31MOL   O70933169   5.229   0.003   8.104  0.0496 -0.0670 -0.1297
   31MOL   O71033170   5.233   8.244   0.106  0.4761  0.5609 -0.2750
   31MOL   C71133171   5.001   0.037   8.234 -0.0088 -0.7305 -0.2686
   31MOL   C71233172   4.879   8.217   8.216 -0.0503 -0.0917 -0.0631
   31MOL   C71333173   4.753   0.022   8.223 -0.0278 -0.4034 -0.8531
   31MOL   C71433174   4.741   0.156   0.009 -0.1955 -0.2444  0.3358
   31MOL   O71533175   4.627   0.233   0.011  0.0237 -0.4508  0.0379
   31MOL   C71633176   4.502   0.179   8.222 -0.2729 -0.1827 -0.7694
   31MOL   C71733177   4.425   0.097   0.057 -0.4510 -0.7534  0.4393
   31MOL   C71833178   4.303   0.035   0.016 -0.3894  0.3246  0.2690
   31MOL   C71933179   4.248   0.054   8.142  0.0925 -0.1255  0.0346
   31MOL   C72033180   4.103   8.250   8.115 -0.2996 -1.0904  0.1154
   31MOL   C72133181   4.006   0.055   8.222 -0.4664 -0.1357 -0.4960
   31MOL   C72233182   4.037   0.052   7.994  0.2393 -0.0249  0.3446
   31MOL   C72333183   4.109   8.098   8.104 -0.3449  0.9626  0.1012
   31MOL   C72433184   3.993   8.021   8.116 -0.4097 -0.3421  0.0564
   31MOL   C72533185   3.989   7.880   8.123  0.4526  0.2485 -0.4821
   31MOL   C72633186   4.118   7.818   8.105 -0.1666  0.1218 -0.8143
   31MOL   O72733187   4.137   7.687   8.101 -0.1161  0.6623  0.1790
   31MOL   C72833188   4.235   7.884   8.087  0.8440 -0.2528 -0.1269
   31MOL   C72933189   4.230   8.025   8.089  0.2939  0.4709  0.4017
   31MOL   C73033190   4.323   0.128   8.047  0.3046 -0.8474 -0.7144
   31MOL   C73133191   4.446   0.184   8.086  0.0504 -0.2114 -0.1845
   31MOL   C73233192   4.856   0.229   0.046 -0.2816  1.0861  0.0025
   31MOL   C73333193   4.987   0.171   0.035 -0.2856 -0.3241  0.2356
   31MOL   C73433194   5.192   7.970   8.095 -0.4052  0.9792  0.0074
   31MOL   C73533195   5.198   7.828   8.089  0.5706 -0.0468  0.3211
   31MOL   H73633196   5.027   7.779   0.135  1.0282 -0.0830  0.0820
   31MOL   H73733197   5.051   8.001   0.157 -1.8302  0.5693 -0.8738
   31MOL   H73833198   4.875   8.112   8.189 -0.3967 -0.3032  0.7988
   31MOL   H73933199   4.672   8.213   8.190 -1.3561 -0.0012  1.5829
   31MOL   H74033200   4.455   0.072   0.158  2.1610  1.0690  0.1788
   31MOL   H74133201   4.248   8.222   0.081 -1.1188 -0.4053 -1.0591
   31MOL   H74233202   3.904   0.038   8.190 -0.3573 -0.4466 -0.6739
   31MOL   H74333203   4.026   0.162   8.226  1.2822 -0.4810  0.4574
   31MOL   H74433204   4.026   0.002   0.062 -1.3932  2.4815  1.2654
   31MOL   H74533205   4.015   0.158   7.994 -1.1370 -0.2997 -1.6477
   31MOL   H74633206   4.080   0.018   7.900 -0.7465  0.0867 -0.1481
   31MOL   H74733207   3.941   0.005   7.973 -0.3286  0.4245  1.8627
   31MOL   H74833208   3.899   8.074   8.114  0.4070  1.1881  1.1349
   31MOL   H74933209   3.903   7.815   8.134 -0.7004  1.8124 -0.1728
   31MOL   H75033210   4.327   7.830   8.072 -0.9183 -2.8905 -1.7315
   31MOL   H75133211   4.327   8.073   8.089  1.4742 -1.8153  0.6403
   31MOL   H75233212   4.286   0.142   7.946  1.0298  2.9288 -0.5386
   31MOL   H75333213   4.506   0.238   8.015  1.7664  1.4361  2.4301
   31MOL   H75433214   4.849   0.327   0.090 -0.0846  1.0178  0.1872
   31MOL   H75533215   5.083   0.221   0.044  0.5271 -1.7573 -0.2674
   31MOL   H75633216   5.231   8.017   8.007 -1.9015  1.3924 -0.4584
   31MOL   H75733217   5.249   7.789   8.003 -1.3405 -1.5513 -0.1932
   31MOL   C75833218   4.110   7.607   8.214 -0.5542 -0.3757  0.3624
   31MOL   C75933219   4.221   7.540   0.026 -0.7999 -0.3624 -0.0253
   31MOL   C76033220   4.197   7.451   0.138 -0.3582 -0.2599  0.3723
   31MOL   C76133221   4.060   7.435   0.183 -0.2928 -0.1600  0.2036
   31MOL   S76233222   4.031   7.331   0.320 -0.2510  0.2336 -0.2203
   31MOL   O76333223   3.959   7.407   0.428  0.1161 -0.7960  0.1201
   31MOL   O76433224   4.155   7.264   0.346 -0.0341 -0.1217  0.3860
   31MOL   C76533225   3.918   7.208   0.268  0.9388 -0.4253 -0.0003
   31MOL   C76633226   3.836   7.146   0.359  0.2808 -0.2263  0.2751
   31MOL   C76733227   3.743   7.050   0.319  0.1441  0.2438 -0.6897
   31MOL   C76833228   3.739   6.996   0.188  0.2340 -0.0261 -0.9153
   31MOL   O76933229   3.663   6.883   0.159 -0.6027 -0.5424 -0.4468
   31MOL   C77033230   3.528   6.893   0.136  0.4220  1.0053  0.5578
   31MOL   C77133231   3.451   7.011   0.163 -0.1482  0.3961 -0.4272
   31MOL   C77233232   3.314   7.002   0.131 -0.0353  0.4868  0.1519
   31MOL   C77333233   3.255   6.892   0.071  0.4220  0.0892  1.2353
   31MOL   C77433234   3.108   6.898   0.016  0.2312  0.0829  0.4356
   31MOL   C77533235   3.023   6.800   0.089  0.6411 -0.2023 -0.2635
   31MOL   C77633236   3.036   7.034   0.020 -0.2924 -0.1329 -0.0687
   31MOL   C77733237   3.118   6.858   8.118  0.3815  0.9646  0.2240
   31MOL   C77833238   3.043   6.750   8.061 -0.0463  0.3092 -0.0793
   31MOL   C77933239   3.060   6.709   7.924  0.7371  0.7112  0.2708
   31MOL   C78033240   3.146   6.784   7.838 -0.1222 -0.0649 -0.1931
   31MOL   O78133241   3.167   6.758   7.702 -0.8079 -0.6285  0.1223
   31MOL   C78233242   3.218   6.890   7.895 -0.4352 -0.7770 -0.7632
   31MOL   C78333243   3.203   6.932   8.032  0.2686  0.3167  0.5253
   31MOL   C78433244   3.332   6.777   0.050  0.5197 -0.4183 -0.2024
   31MOL   C78533245   3.469   6.778   0.080  0.3520  0.8305  0.6236
   31MOL   C78633246   3.821   7.059   0.096 -0.4608  0.1647 -0.7058
   31MOL   C78733247   3.910   7.160   0.135  0.4779  0.4499  0.1147
   31MOL   C78833248   3.954   7.506   0.121 -0.0297  0.0409  0.3075
   31MOL   C78933249   3.979   7.591   0.013  0.7640  0.2061  0.0948
   31MOL   H79033250   4.320   7.563   8.241 -1.1070 -0.2399 -0.7563
   31MOL   H79133251   4.280   7.395   0.180  0.5499  0.1716 -0.8154
   31MOL   H79233252   3.842   7.182   0.461  3.5774  1.0876 -0.3103
   31MOL   H79333253   3.690   7.006   0.402 -1.4177  2.8355 -0.2606
   31MOL   H79433254   3.492   7.097   0.214  1.4765 -0.9920  0.6799
   31MOL   H79533255   3.248   7.086   0.142  0.2883  0.6017  1.2396
   31MOL   H79633256   2.916   6.800   0.070  0.7395 -1.3205 -0.8334
   31MOL   H79733257   3.031   6.835   0.192  1.5341 -1.3239  0.0571
   31MOL   H79833258   3.056   6.697   0.080  0.5556 -0.1441 -1.2842
   31MOL   H79933259   3.012   7.058   0.124  1.3144 -1.9508  0.7480
   31MOL   H80033260   3.112   7.105   8.239  0.1418 -0.2144  0.7229
   31MOL   H80133261   2.952   7.034   8.203  0.1554  0.2857 -0.6094
   31MOL   H80233262   2.986   6.683   8.123  0.4841  1.1784  1.3692
   31MOL   H80333263   3.015   6.615   7.894 -0.1501  2.4876 -4.3116
   31MOL   H80433264   3.299   6.928   7.834 -1.8870  3.5484 -0.2200
   31MOL   H80533265   3.276   7.004   8.067  0.1909 -0.2116  1.8109
   31MOL   H80633266   3.287   6.690   0.006  1.0364 -1.3621  1.0993
   31MOL   H80733267   3.528   6.689   0.063 -0.0498  0.7327 -0.2561
   31MOL   H80833268   3.817   7.021   8.248 -2.8965 -1.6438  0.0519
   31MOL   H80933269   3.978   7.202   0.062 -1.8760  1.4860 -1.5450
   31MOL   H81033270   3.851   7.497   0.152 -0.4570  1.1645 -0.7706
   31MOL   H81133271   3.888   7.628   8.222  1.6629  1.0693 -1.0841
   31MOL   C81233272   3.163   6.629   7.657 -0.1679  0.1648 -0.4653
   31MOL   C81333273   3.047   6.584   7.601  0.1786  0.5550 -0.3276
   31MOL   C81433274   3.031   6.443   7.577 -0.2947 -0.7457 -0.1445
   31MOL   C81533275   3.139   6.356   7.601  0.4496  0.3242 -0.5316
   31MOL   S81633276   3.124   6.171   7.583 -0.1135  0.1433 -0.1735
   31MOL   O81733277   3.153   6.105   7.708  0.6898  1.4004 -0.9041
   31MOL   O81833278   3.208   6.139   7.468  0.6316  0.0158  0.4200
   31MOL   C81933279   2.953   6.133   7.529 -0.4139 -0.6109  0.0267
   31MOL   C82033280   2.844   6.166   7.610 -1.1066 -0.6549  0.2605
   31MOL   C82133281   2.715   6.145   7.563 -0.7359  0.5755  0.7122
   31MOL   C82233282   2.693   6.080   7.434  0.3015 -0.3609 -0.7592
   31MOL   O82333283   2.572   6.067   7.380  0.0326  0.1779  0.5889
   31MOL   C82433284   2.470   6.012   7.445  0.0711  1.1818  0.2671
   31MOL   C82533285   2.477   5.936   7.564 -0.4080  0.1356 -0.1239
   31MOL   C82633286   2.373   5.868   7.613  0.1054 -0.7546 -1.0347
   31MOL   C82733287   2.240   5.890   7.560 -0.3609 -0.2187  0.6401
   31MOL   C82833288   2.127   5.802   7.606  0.3340 -0.1091 -0.4048
   31MOL   C82933289   2.160   5.709   7.725 -0.0596 -0.2347 -0.3024
   31MOL   C83033290   2.017   5.893   7.644 -0.6067 -0.2698  0.2163
   31MOL   C83133291   2.089   5.707   7.488  0.8303  0.3347 -0.6650
   31MOL   C83233292   1.964   5.653   7.474  0.2602  0.5829 -0.0181
   31MOL   C83333293   1.919   5.588   7.359  0.4452 -0.2063  0.3622
   31MOL   C83433294   2.014   5.559   7.257  0.4792  0.5830 -0.3287
   31MOL   O83533295   1.967   5.517   7.133  0.1220  0.3765 -0.0064
   31MOL   C83633296   2.150   5.597   7.275 -0.0014  0.8335  0.1863
   31MOL   C83733297   2.188   5.669   7.394 -0.0756  0.4681  0.2954
   31MOL   C83833298   2.229   5.963   7.446  0.6047 -0.1404  0.0756
   31MOL   C83933299   2.338   6.021   7.386  0.8807  0.5402 -0.0565
   31MOL   C84033300   2.806   6.048   7.361 -1.0733  0.3135  0.6541
   31MOL   C84133301   2.932   6.073   7.403 -0.3896 -0.1438 -0.0720
   31MOL   C84233302   3.248   6.408   7.671 -0.0637 -0.2663  0.0190
   31MOL   C84333303   3.268   6.545   7.684  0.4809 -0.3050  0.1508
   31MOL   H84433304   2.954   6.636   7.591 -2.1743 -3.1108  1.3314
   31MOL   H84533305   2.937   6.401   7.542 -0.4638  0.3420 -1.0326
   31MOL   H84633306   2.862   6.231   7.694 -0.3319 -0.8108  0.2188
   31MOL   H84733307   2.630   6.179   7.621 -1.4012  0.8319 -0.4027
   31MOL   H84833308   2.570   5.906   7.611 -0.9123  0.5500  1.1515
   31MOL   H84933309   2.390   5.805   7.699 -1.7474  1.5531  1.1384
   31MOL   H85033310   2.232   5.630   7.705 -2.1520 -2.2292 -0.2641
   31MOL   H85133311   2.070   5.649   7.742  0.2487 -0.5000  0.4225
   31MOL   H85233312   2.185   5.771   7.811  0.8240 -2.4465  1.0962
   31MOL   H85333313   2.064   5.969   7.707 -0.5537 -2.4545  2.9161
   31MOL   H85433314   1.978   5.946   7.558 -1.9238  0.1125  1.0462
   31MOL   H85533315   1.947   5.835   7.704 -0.7165  0.6075  0.9407
   31MOL   H85633316   1.896   5.676   7.554 -1.1581 -1.7992 -0.5004
   31MOL   H85733317   1.816   5.562   7.340  1.1358 -2.9718  0.1212
   31MOL   H85833318   2.232   5.587   7.206  0.9922  0.0202  1.4619
   31MOL   H85933319   2.291   5.701   7.389 -0.0457  0.2396 -0.8373
   31MOL   H86033320   2.139   5.958   7.385  2.3533  0.0668 -2.5950
   31MOL   H86133321   2.331   6.070   7.289 -0.1006 -0.0734 -0.3056
   31MOL   H86233322   2.804   6.005   7.262  1.2405  0.9317  0.3021
   31MOL   H86333323   3.010   6.057   7.330 -1.0801  0.1248 -0.8799
   31MOL   H86433324   3.331   6.342   7.692  0.2854  0.5589  1.2883
   31MOL   H86533325   3.363   6.581   7.719  1.1939  0.1662 -2.1436
   31MOL   C86633326   2.054   5.465   7.040 -0.1955  0.1894  0.3595
   31MOL   C86733327   2.107   5.550   6.935 -0.5476 -0.6122 -0.6476
   31MOL   C86833328   2.192   5.495   6.840  0.2054  0.5868 -0.1711
   31MOL   C86933329   2.224   5.359   6.846 -0.9733 -0.6518 -0.1258
   31MOL   S87033330   2.320   5.281   6.717 -0.0789  0.2718  0.2891
   31MOL   O87133331   2.274   5.325   6.587  0.0667  0.4404 -0.1706
   31MOL   O87233332   2.332   5.140   6.744 -0.2411 -0.2099  0.2376
   31MOL   C87333333   2.485   5.361   6.734 -0.6118  0.7687 -0.8214
   31MOL   C87433334   2.540   5.436   6.625  0.4548  0.0439 -0.0356
   31MOL   C87533335   2.668   5.497   6.637  0.0156  0.0497 -0.1421
   31MOL   C87633336   2.739   5.477   6.756  0.2757  0.2718 -0.2244
   31MOL   O87733337   2.862   5.529   6.761 -0.7947  0.1797  1.0995
   31MOL   C87833338   2.970   5.445   6.783  0.7644  0.2443  0.5676
   31MOL   C87933339   2.981   5.311   6.741  0.3001 -0.2276 -0.9406
   31MOL   C88033340   3.101   5.239   6.770 -0.7896  0.5006 -0.2010
   31MOL   C88133341   3.206   5.292   6.838  0.2908 -0.1428  0.0611
   31MOL   C88233342   3.333   5.207   6.864 -0.0588 -0.3393 -0.0278
   31MOL   C88333343   3.324   5.071   6.800  0.8090  0.1031 -0.2877
   31MOL   C88433344   3.462   5.272   6.819 -0.7571  0.1335  0.2154
   31MOL   C88533345   3.340   5.188   7.014 -0.8953 -0.4095  0.9080
   31MOL   C88633346   3.457   5.192   7.089 -0.1494  0.1620  0.3906
   31MOL   C88733347   3.457   5.170   7.229 -0.6148 -0.0858 -0.2335
   31MOL   C88833348   3.339   5.136   7.293  0.1673  0.2257  0.2055
   31MOL   O88933349   3.327   5.111   7.430 -0.2418  0.2027  0.5777
   31MOL   C89033350   3.224   5.121   7.217 -0.2453 -0.5514  0.4470
   31MOL   C89133351   3.221   5.137   7.076  0.1046  0.4428 -0.3325
   31MOL   C89233352   3.197   5.427   6.872  0.1729  0.5950  0.0100
   31MOL   C89333353   3.082   5.502   6.842  0.3315  0.2151 -0.3536
   31MOL   C89433354   2.678   5.404   6.865  0.0129 -0.3915  0.0905
   31MOL   C89533355   2.556   5.353   6.852 -0.7577  0.0442  0.1764
   31MOL   C89633356   2.178   5.278   6.951 -0.7416 -0.1947 -0.2091
   31MOL   C89733357   2.100   5.336   7.048  0.0884 -0.9502 -0.4450
   31MOL   H89833358   2.073   5.652   6.932 -0.6349 -0.5116  2.4307
   31MOL   H89933359   2.224   5.550   6.753  2.5561  0.9475  0.8987
   31MOL   H90033360   2.474   5.452   6.542 -1.6933 -0.5630  1.4942
   31MOL   H90133361   2.717   5.554   6.559 -0.2962  1.3962  0.6253
   31MOL   H90233362   2.901   5.255   6.695 -0.9247  0.5930  0.1428
   31MOL   H90333363   3.116   5.141   6.727  2.1415  1.6976 -2.1235
   31MOL   H90433364   3.407   5.014   6.841  0.1914  0.1828  1.1107
   31MOL   H90533365   3.327   5.074   6.691 -1.7494 -2.7237 -0.5119
   31MOL   H90633366   3.237   5.011   6.829  1.7999 -0.9457  0.5768
   31MOL   H90733367   3.472   5.282   6.711 -1.4987  0.9362  0.2165
   31MOL   H90833368   3.481   5.368   6.868  0.2684 -0.2465  0.5700
   31MOL   H90933369   3.546   5.203   6.832  0.2879  1.5543  1.1753
   31MOL   H91033370   3.553   5.216   7.045 -0.4437 -0.5385 -0.6524
   31MOL   H91133371   3.543   5.192   7.290 -1.9904 -0.5063  1.8981
   31MOL   H91233372   3.129   5.106   7.266 -0.3243 -0.3848  0.3480
   31MOL   H91333373   3.128   5.130   7.022 -1.0136 -2.1375  1.8430
   31MOL   H91433374   3.284   5.475   6.914  0.2813 -0.1218  0.6085
   31MOL   H91533375   3.091   5.609   6.855  2.2495 -0.2337  2.5323
   31MOL   H91633376   2.721   5.395   6.964 -1.4266  1.3516  0.9050
   31MOL   H91733377   2.513   5.294   6.932  1.2018  0.6441  1.7008
   31MOL   H91833378   2.212   5.176   6.949 -0.3543 -0.1648  2.5764
   31MOL   H91933379   2.068   5.279   7.134  0.1537  0.0121  0.2153
   31MOL   C92033380   3.286   5.222   7.495 -0.4568  0.3309  0.5839
   31MOL   C92133381   3.150   5.254   7.499  1.2139 -0.4101  0.3767
   31MOL   C92233382   3.102   5.377   7.551  0.5307 -0.3820 -0.3976
   31MOL   C92333383   3.202   5.469   7.582  0.2318 -0.3855 -0.5181
   31MOL   S92433384   3.156   5.629   7.648 -0.4058  0.5872  0.4093
   31MOL   O92533385   3.093   5.604   7.778  0.1141  0.1228  0.7735
   31MOL   O92633386   3.073   5.687   7.544  0.0196 -0.3329 -0.5240
   31MOL   C92733387   3.304   5.724   7.666  0.0385 -0.2226 -0.1255
   31MOL   C92833388   3.396   5.707   7.772 -0.0369 -0.1997 -0.6845
   31MOL   C92933389   3.521   5.780   7.771  0.4946  0.4460  0.3532
   31MOL   C93033390   3.543   5.878   7.674  0.1272  0.0051  0.0649
   31MOL   O93133391   3.660   5.949   7.683 -0.1606 -0.2512 -0.2384
   31MOL   C93233392   3.655   6.064   7.758  0.3315 -0.5708 -0.2918
   31MOL   C93333393   3.539   6.144   7.784 -0.0017  0.5609 -0.5029
   31MOL   C93433394   3.540   6.243   7.883 -0.8711  0.0116  0.3398
   31MOL   C93533395   3.660   6.279   7.950 -0.1697  0.2233  0.0315
   31MOL   C93633396   3.672   6.397   8.046 -0.6176  0.5231  0.1350
   31MOL   C93733397   3.540   6.491   8.039 -0.7695  0.2709  0.5573
   31MOL   C93833398   3.688   6.356   8.196  0.3264 -0.1503  0.1166
   31MOL   C93933399   3.793   6.479   8.001  0.3236 -0.3188  0.1510
   31MOL   C94033400   3.894   6.517   8.091  0.2472 -0.3476 -0.4040
   31MOL   C94133401   4.007   6.588   8.039  0.2732 -0.2992 -1.2211
   31MOL   C94233402   4.001   6.634   7.907 -0.2829 -0.0476 -0.0150
   31MOL   O94333403   4.091   6.721   7.864 -0.3449 -0.2156  0.2197
   31MOL   C94433404   3.891   6.609   7.824 -0.0745 -0.5569 -0.1397
   31MOL   C94533405   3.786   6.527   7.870  0.4955  0.4656 -1.0881
   31MOL   C94633406   3.774   6.199   7.920 -0.6404 -0.0869 -0.3795
   31MOL   C94733407   3.773   6.096   7.824 -0.7847  0.4494 -0.2312
   31MOL   C94833408   3.446   5.899   7.581  0.1798 -0.3373 -0.0319
   31MOL   C94933409   3.319   5.832   7.579  0.0024 -0.2361 -0.2899
   31MOL   C95033410   3.341   5.437   7.571 -0.1676  0.2464 -0.6404
   31MOL   C95133411   3.382   5.312   7.537  0.2120  0.0980 -0.4596
   31MOL   H95233412   3.079   5.179   7.467  0.8605 -0.9493  2.3875
   31MOL   H95333413   3.002   5.413   7.568  0.6492 -0.0595 -0.3830
   31MOL   H95433414   3.385   5.620   7.835 -0.1535 -1.0466 -1.8526
   31MOL   H95533415   3.605   5.758   7.836 -0.2448 -0.2453  1.0828
   31MOL   H95633416   3.450   6.130   7.723  0.6542  0.5589 -1.4704
   31MOL   H95733417   3.447   6.297   7.894 -0.9102  0.1521 -0.6774
   31MOL   H95833418   3.559   6.584   8.093 -0.6269  1.6886 -1.8319
   31MOL   H95933419   3.449   6.444   8.076 -1.2048  0.5473 -0.1501
   31MOL   H96033420   3.526   6.528   7.937  1.1694  1.4984  0.6917
   31MOL   H96133421   3.774   6.298   8.228 -0.3149 -0.7847  0.6960
   31MOL   H96233422   3.688   6.442   0.010  2.0408  0.6063 -0.8079
   31MOL   H96333423   3.601   6.299   8.227  0.9165 -1.6303 -0.9103
   31MOL   H96433424   3.889   6.490   8.196 -2.9004  0.8192 -0.1937
   31MOL   H96533425   4.091   6.609   8.104 -0.0778  1.0093 -1.1588
   31MOL   H96633426   3.884   6.669   7.734  0.6131  0.4153  0.4432
   31MOL   H96733427   3.701   6.497   7.810 -1.2757  1.0663  1.0893
   31MOL   H96833428   3.865   6.219   7.976 -0.7345 -0.0408 -0.2413
   31MOL   H96933429   3.861   6.035   7.811 -1.3447 -0.0154 -1.9499
   31MOL   H97033430   3.464   5.975   7.507  1.5479 -0.7787 -0.1672
   31MOL   H97133431   3.245   5.855   7.504 -1.8558  0.0170  1.5619
   31MOL   H97233432   3.418   5.510   7.592  1.1578 -0.9752 -1.1720
   31MOL   H97333433   3.484   5.277   7.540 -0.0470 -0.6299 -0.1872
   31MOL   C97433434   4.071   6.854   7.890  0.4761 -0.3523  0.3291
   31MOL   C97533435   4.013   6.904   8.006  0.3340  0.0797 -0.2514
   31MOL   C97633436   3.993   7.040   8.030  0.4256 -0.1676 -0.0674
   31MOL   C97733437   4.036   7.133   7.930 -0.0776  0.2039 -0.2980
   31MOL   S97833438   4.037   7.302   7.975 -0.8075  0.6412  0.2460
   31MOL   O97933439   3.964   7.320   8.104  0.0604 -0.1061  0.0031
   31MOL   O98033440   3.999   7.372   7.854 -0.2620 -0.8621 -0.1880
   31MOL   C98133441   4.215   7.331   8.009 -0.6259  0.7582  0.7350
   31MOL   C98233442   4.282   7.453   7.964  0.7715 -0.5489  0.0597
   31MOL   C98333443   4.415   7.475   7.994  0.8161 -0.0313 -0.4725
   31MOL   C98433444   4.479   7.385   8.078  0.2378  0.0573  0.8122
   31MOL   O98533445   4.605   7.414   8.126  0.3540  0.1267 -1.1651
   31MOL   C98633446   4.608   7.523   8.212  0.8450 -0.3110  0.3921
   31MOL   C98733447   4.654   7.647   8.171  1.1159  0.3811 -0.7734
   31MOL   C98833448   4.641   7.761   8.248  0.3417  0.1733 -0.2765
   31MOL   C98933449   4.592   7.742   0.128 -0.5929  0.0839 -0.2888
   31MOL   C99033450   4.568   7.861   0.223 -0.3239 -0.3242 -0.0017
   31MOL   C99133451   4.510   7.978   0.141  0.2755 -0.6573  0.2422
   31MOL   C99233452   4.468   7.831   0.333  0.7910  0.2474 -0.0535
   31MOL   C99333453   4.699   7.899   0.298 -0.9750 -0.0562  0.5886
   31MOL   C99433454   4.777   7.796   0.367  0.2901 -0.0448  0.0763
   31MOL   C99533455   4.898   7.837   0.433  0.9107  0.0095 -0.1157
   31MOL   C99633456   4.939   7.977   0.434  0.1004  1.1651  0.2917
   31MOL   O99733457   5.050   8.012   0.497  0.2373  0.0578 -0.2293
   31MOL   C99833458   4.863   8.065   0.362  0.1659  0.2851 -0.8055
   31MOL   C99933459   4.744   8.032   0.293  0.1409  0.2968 -0.4614
   31MOL     C133460   4.564   7.611   0.181 -0.6460  0.2115  0.1860
   31MOL     C233461   4.574   7.498   0.094  0.5487 -0.1263  0.2230
   31MOL     C333462   4.415   7.271   8.127  0.0628 -0.2253 -0.2852
   31MOL     C433463   4.281   7.245   8.099 -0.0539 -0.2923 -0.4496
   31MOL     C533464   4.092   7.083   7.814  0.2307  0.4281 -0.5554
   31MOL     C633465   4.113   6.947   7.791 -0.3155  0.2168 -0.5615
   31MOL     H733466   3.986   6.833   8.084  0.5844 -1.1813 -1.3038
   31MOL     H833467   3.951   7.073   8.123 -0.3835  1.5405 -1.0149
   31MOL     H933468   4.228   7.520   7.899 -1.9897 -0.7587  2.0831
   31MOL    H1033469   4.474   7.554   7.949  1.2706 -0.2464 -0.2485
   31MOL    H1133470   4.678   7.649   8.066  1.0459  0.4052 -0.7888
   31MOL    H1233471   4.673   7.854   8.204  0.6176 -0.3184 -1.1471
   31MOL    H1333472   4.483   8.064   0.202  0.6195 -0.1388 -0.3365
   31MOL    H1433473   4.411   7.954   0.103  0.3128 -0.6294  0.1265
   31MOL    H1533474   4.566   8.015   0.056  2.1705 -0.4003  1.5678
   31MOL    H1633475   4.372   7.804   0.290  0.4039  1.8261 -0.2100
   31MOL    H1733476   4.500   7.747   0.395  1.0722  0.4503  0.0738
   31MOL    H1833477   4.465   7.923   0.390  0.3360 -0.0025  0.3258
   31MOL    H1933478   4.732   7.699   0.377  0.3618 -0.0842  0.0181
   31MOL    H2033479   4.958   7.760   0.480 -0.6932 -0.6454  0.8928
   31MOL    H2133480   4.906   8.163   0.345  0.5639  0.2625  0.0241
   31MOL    H2233481   4.685   8.115   0.255 -1.9982 -1.1646 -0.3652
   31MOL    H2333482   4.528   7.598   0.282 -1.9296  3.2580  0.1853
   31MOL    H2433483   4.541   7.401   0.129  0.4159 -0.4936 -0.8830
   31MOL    H2533484   4.467   7.197   8.187 -0.8635 -0.5048  0.1825
   31MOL    H2633485   4.229   7.161   8.141  0.3427 -0.7703 -0.8917
   31MOL    H2733486   4.147   7.144   7.745  1.0828  3.3187  2.5387
   31MOL    H2833487   4.157   6.916   7.697 -1.9735 -0.7078 -1.0439
   31MOL    C2933488   5.174   7.980   0.445 -0.0450 -0.6966 -0.4283
   31MOL    C3033489   5.227   7.856   0.465  0.2472  1.1373  0.4980
   31MOL    C3133490   5.357   7.826   0.422 -0.3595  0.1051 -0.4362
   31MOL    C3233491   5.429   7.919   0.349  0.1752 -0.1889 -0.3354
   31MOL    S3333492   5.597   7.876   0.294  0.1231  0.3098 -0.1659
   31MOL    O3433493   5.630   7.748   0.354  0.1991  0.7734 -0.5918
   31MOL    O3533494   5.678   7.994   0.314  0.2443  0.7940  0.1214
   31MOL    C3633495   5.590   7.855   0.118  0.3042 -0.4264 -0.4204
   31MOL    C3733496   5.517   7.943   0.038  0.0026  0.2268  0.4013
   31MOL    C3833497   5.525   7.921   8.153  0.3037  0.7590 -0.3884
   31MOL    C3933498   5.591   7.809   8.093 -0.5205 -0.2241  0.0459
   31MOL    O4033499   5.604   7.793   7.956  0.5982 -0.1131 -0.1248
   31MOL    C4133500   5.508   7.709   7.899  0.0499  0.4057  0.5189
   31MOL    C4233501   5.433   7.761   7.794  0.2329 -0.2410 -1.1213
   31MOL    C4333502   5.341   7.674   7.728 -0.6753 -1.0427 -0.2940
   31MOL    C4433503   5.332   7.539   7.764 -0.1922  0.2365 -0.3011
   31MOL    C4533504   5.237   7.441   7.687  0.0111  0.1405 -0.0510
   31MOL    C4633505   5.175   7.499   7.560  0.1493 -0.7257 -0.5005
   31MOL    C4733506   5.329   7.323   7.635 -0.1359  0.0412  0.4216
   31MOL    C4833507   5.126   7.382   7.772 -0.0972  0.5063 -0.6428
   31MOL    C4933508   5.121   7.247   7.808 -0.6635  0.0748 -0.3410
   31MOL    C5033509   5.025   7.202   7.899  0.0399 -0.5540  0.3444
   31MOL    C5133510   4.921   7.291   7.940 -0.0007 -0.4528  0.4513
   31MOL    O5233511   4.817   7.241   8.009  0.2070 -0.1611  0.2871
   31MOL    C5333512   4.924   7.427   7.902 -0.0957  0.4383 -0.0901
   31MOL    C5433513   5.035   7.473   7.826  0.3977 -0.5219  0.0780
   31MOL    C5533514   5.415   7.484   7.865 -0.3056  0.0485 -0.3188
   31MOL    C5633515   5.496   7.569   7.940  0.1329 -0.3044  0.0303
   31MOL    C5733516   5.652   7.717   8.179 -0.2200  0.0061 -0.5815
   31MOL    C5833517   5.655   7.739   0.063 -0.5558 -0.2119  0.2755
   31MOL    C5933518   5.378   8.050   0.331 -0.3839 -0.1573 -0.5524
   31MOL    C6033519   5.248   8.078   0.378  0.2248  0.2499 -0.4879
   31MOL    H6133520   5.180   7.779   0.525 -0.3372 -0.4229 -1.8904
   31MOL    H6233521   5.403   7.734   0.454 -0.6729 -0.2923 -1.1096
   31MOL    H6333522   5.451   8.015   0.083  1.2506  1.1580  0.7721
   31MOL    H6433523   5.485   8.004   8.097 -2.3875 -0.3681 -0.2245
   31MOL    H6533524   5.434   7.863   7.761  1.1515 -0.1820 -0.9337
   31MOL    H6633525   5.285   7.711   7.643 -0.5932  1.1752  0.5771
   31MOL    H6733526   5.102   7.578   7.576  2.9146  1.4487  2.0053
   31MOL    H6833527   5.116   7.422   7.510  1.3423 -2.3520  0.5599
   31MOL    H6933528   5.256   7.544   7.502  0.9198 -2.2629 -0.6383
   31MOL    H7033529   5.374   7.265   7.715  1.7153  2.3830  1.1628
   31MOL    H7133530   5.271   7.248   7.581  1.3555 -0.1896 -0.9171
   31MOL    H7233531   5.414   7.342   7.569 -0.0956  0.5827  0.6213
   31MOL    H7333532   5.195   7.174   7.779 -1.0736 -0.8870  0.9956
   31MOL    H7433533   5.032   7.099   7.928 -0.4629 -0.2455  1.5735
   31MOL    H7533534   4.856   7.505   7.934 -0.4821  0.2074 -0.3420
   31MOL    H7633535   5.026   7.578   7.803  1.2931 -0.6943 -1.1037
   31MOL    H7733536   5.408   7.378   7.889  1.0083  0.2043  0.8144
   31MOL    H7833537   5.549   7.519   8.020  0.2982 -0.3032 -0.0783
   31MOL    H7933538   5.713   7.637   8.139 -1.3520  0.1344 -2.5939
   31MOL    H8033539   5.712   7.676   0.129  1.8697  2.2776  0.6284
   31MOL    H8133540   5.429   8.130   0.280  0.4187  0.1351  0.7039
   31MOL    H8233541   5.208   8.177   0.359 -0.9797  0.5254  3.0820
   31MOL    H8333542   4.781   7.305   8.068  1.5558 -0.0570  1.0202
   32MOL     C133543   4.177   0.114   4.123  0.1330  0.4745  0.3794
   32MOL     C233544   4.183   8.237   4.064 -0.1169  0.2110 -0.5734
   32MOL     C333545   4.106   8.129   4.115  0.2484  0.5937  0.3573
   32MOL     C433546   4.024   8.150   4.225 -0.5877 -0.1140  0.6092
   32MOL     S533547   3.934   8.008   4.290 -0.4013 -0.0641  0.0427
   32MOL     O633548   3.865   7.956   4.171 -0.0320 -0.5001 -0.1185
   32MOL     O733549   3.850   8.040   4.407  0.7541  0.2011 -0.4259
   32MOL     C833550   4.050   7.877   4.338  0.0405  0.9714 -1.0117
   32MOL     C933551   4.032   7.746   4.286 -0.0536 -0.9551 -0.2058
   32MOL    C1033552   4.136   7.655   4.305 -0.2964 -0.2794  0.2004
   32MOL    C1133553   4.245   7.689   4.380 -0.2662  0.0905 -0.6276
   32MOL    O1233554   4.347   7.598   4.392  0.3283 -0.0025  0.0443
   32MOL    C1333555   4.324   7.478   4.457 -0.4306  0.1656  0.0890
   32MOL    C1433556   4.247   7.460   4.576 -0.2329  0.5809 -0.3381
   32MOL    C1533557   4.244   7.333   4.634 -0.2069 -0.9356 -0.0489
   32MOL    C1633558   4.292   7.218   4.566  0.0988 -0.7815 -0.0950
   32MOL    C1733559   4.286   7.079   4.631  0.0903  0.1227  0.7530
   32MOL    C1833560   4.301   6.965   4.522  0.5379 -0.0270 -0.0617
   32MOL    C1933561   4.417   7.060   4.719 -0.3443 -0.0761  0.2549
   32MOL    C2033562   4.156   7.060   4.712  0.2578  0.2466 -0.2238
   32MOL    C2133563   4.033   7.052   4.644 -0.1546 -0.0381 -0.0979
   32MOL    C2233564   3.911   7.045   4.714 -0.3184 -0.4590 -0.5162
   32MOL    C2333565   3.916   7.049   4.853 -1.3999  0.5375  0.3711
   32MOL    O2433566   3.793   7.063   4.919 -0.4191  0.1485  0.0967
   32MOL    C2533567   4.035   7.066   4.923 -0.0606 -0.2288 -0.3013
   32MOL    C2633568   4.157   7.073   4.850  0.7582 -0.2312 -0.9168
   32MOL    C2733569   4.383   7.242   4.457 -0.8367  0.0070  0.5159
   32MOL    C2833570   4.397   7.373   4.406  0.6777  0.2370 -0.0446
   32MOL    C2933571   4.255   7.813   4.451 -0.0397  0.0453 -0.6741
   32MOL    C3033572   4.156   7.915   4.424 -0.0749  0.1973  0.3366
   32MOL    C3133573   4.007   0.023   4.282 -0.0577  0.0162 -0.6420
   32MOL    C3233574   4.088   0.128   4.233 -0.0822 -0.7094 -0.2407
   32MOL    H3333575   4.240   8.223   3.973  1.9217 -1.6133  0.9619
   32MOL    H3433576   4.103   8.036   4.060  2.0428  0.0224  1.1785
   32MOL    H3533577   3.948   7.721   4.223 -0.3484  1.8694 -1.0050
   32MOL    H3633578   4.130   7.564   4.248 -0.1397 -0.6659  0.8000
   32MOL    H3733579   4.199   7.549   4.614 -1.5593 -0.6437  0.9424
   32MOL    H3833580   4.178   7.316   4.717  2.2848 -1.1690  1.9407
   32MOL    H3933581   4.392   6.964   4.463  0.4992 -0.2073 -0.1180
   32MOL    H4033582   4.217   6.963   4.453 -0.5607  0.8645  1.2215
   32MOL    H4133583   4.287   6.871   4.575 -0.4208 -0.1250 -0.4798
   32MOL    H4233584   4.409   7.139   4.794  0.3435  0.3964 -0.1663
   32MOL    H4333585   4.426   6.963   4.767  0.9260  0.4061  1.0382
   32MOL    H4433586   4.504   7.077   4.656  0.1553  0.2518  1.0301
   32MOL    H4533587   4.040   7.038   4.537  0.1155  1.5980 -0.3119
   32MOL    H4633588   3.819   7.041   4.659  0.1910  1.7154 -1.5848
   32MOL    H4733589   4.030   7.082   5.030 -2.3591  2.4875 -0.7309
   32MOL    H4833590   4.248   7.079   4.908  0.5572 -0.8065 -0.5262
   32MOL    H4933591   4.443   7.161   4.419 -0.2419  0.8284 -0.3253
   32MOL    H5033592   4.462   7.378   4.320  0.9195 -0.4183  0.0922
   32MOL    H5133593   4.341   7.826   4.515  0.2149  0.1918 -1.0442
   32MOL    H5233594   4.167   8.012   4.469  2.3304  1.2854 -2.4159
   32MOL    H5333595   3.927   0.058   4.346  1.3731  0.1392  1.0831
   32MOL    H5433596   4.073   0.220   4.287  0.0307  0.1414 -1.6376
   32MOL    H5533597   4.244   0.196   4.098 -0.4330  1.4236  1.8955
   32MOL    C5633598   3.739   7.184   4.933  0.0444  0.1704  0.0544
   32MOL    C5733599   3.742   7.253   5.054  0.4345  1.2495  0.1510
   32MOL    C5833600   3.682   7.377   5.065 -0.2035 -0.2754 -0.0241
   32MOL    C5933601   3.612   7.438   4.959  0.5035  0.7348 -0.3586
   32MOL    S6033602   3.541   7.610   4.979 -0.0264  0.3116  0.0622
   32MOL    O6133603   3.408   7.607   4.920 -0.6846 -0.6105  0.4818
   32MOL    O6233604   3.641   7.705   4.935  0.3524 -0.1029 -0.3130
   32MOL    C6333605   3.525   7.620   5.156 -0.3611  0.2148  0.3929
   32MOL    C6433606   3.604   7.712   5.225  0.2465 -0.5159 -0.0137
   32MOL    C6533607   3.606   7.712   5.364 -0.2712 -0.2597 -1.5289
   32MOL    C6633608   3.513   7.631   5.431  0.0702 -0.8645  0.1798
   32MOL    O6733609   3.518   7.638   5.570  0.5005 -0.1715  0.0270
   32MOL    C6833610   3.607   7.559   5.635  0.2093  0.7330 -0.1733
   32MOL    C6933611   3.614   7.416   5.622 -0.2474 -0.3842 -0.3171
   32MOL    C7033612   3.694   7.331   5.704  0.1549  0.7221  0.3031
   32MOL    C7133613   3.781   7.388   5.794 -1.0203  0.0241  0.0700
   32MOL    C7233614   3.865   7.304   5.888  0.2008  0.2598 -0.4260
   32MOL    C7333615   3.803   7.320   6.030  0.2771  0.4332  0.2455
   32MOL    C7433616   3.860   7.148   5.861  0.5940  0.2591  0.0273
   32MOL    C7533617   4.013   7.339   5.878  0.4503  0.0021  0.2606
   32MOL    C7633618   4.078   7.317   5.753  0.9246 -0.4688  0.0457
   32MOL    C7733619   4.215   7.330   5.733  0.2862  0.3239  0.2617
   32MOL    C7833620   4.295   7.349   5.843  0.0052  0.1842  0.6987
   32MOL    O7933621   4.430   7.357   5.820 -0.0442  0.2909  0.3388
   32MOL    C8033622   4.237   7.369   5.968  0.4503  0.5252  0.9377
   32MOL    C8133623   4.097   7.366   5.994 -0.3019  0.3813  0.4092
   32MOL    C8233624   3.790   7.528   5.800 -0.5948 -0.0521  0.4407
   32MOL    C8333625   3.698   7.614   5.732  0.3292  0.5305 -0.2116
   32MOL    C8433626   3.418   7.551   5.366 -0.4834 -0.0379 -0.1212
   32MOL    C8533627   3.433   7.535   5.222  0.1231 -0.1380 -0.4979
   32MOL    C8633628   3.603   7.366   4.839 -0.4499 -0.5553 -0.5282
   32MOL    C8733629   3.673   7.242   4.818  0.1072  0.1738 -0.0556
   32MOL    H8833630   3.797   7.213   5.138  0.5133 -1.7846 -1.2854
   32MOL    H8933631   3.685   7.414   5.167 -2.7052  0.7953 -0.3036
   32MOL    H9033632   3.676   7.772   5.172  0.5750 -0.4034  0.5579
   32MOL    H9133633   3.680   7.776   5.411 -2.4697  1.1747  0.0825
   32MOL    H9233634   3.551   7.378   5.543  0.8059 -2.9215  0.0169
   32MOL    H9333635   3.683   7.224   5.694 -1.1382  1.0330 -1.9720
   32MOL    H9433636   3.698   7.292   6.038 -0.0956  2.2855  2.5108
   32MOL    H9533637   3.809   7.424   6.063  1.5649  0.6962 -0.7855
   32MOL    H9633638   3.858   7.259   6.102  1.3919  0.5123 -0.5370
   32MOL    H9733639   3.888   7.132   5.757  0.9955 -1.9370  0.4590
   32MOL    H9833640   3.929   7.092   5.924 -0.4439 -0.8139  0.2176
   32MOL    H9933641   3.757   7.113   5.865  0.2795  1.2752  1.1825
   32MOL   H10033642   4.009   7.299   5.672 -1.2569 -0.4337  1.8247
   32MOL   H10133643   4.254   7.321   5.632 -0.0357 -3.1539  0.3894
   32MOL   H10233644   4.298   7.374   6.057  1.0146 -1.0193  0.6556
   32MOL   H10333645   4.050   7.377   6.091 -3.7422  2.7667 -1.4473
   32MOL   H10433646   3.870   7.562   5.865  1.2561 -2.7878 -0.3340
   32MOL   H10533647   3.700   7.722   5.730 -0.7834  0.5371 -1.1041
   32MOL   H10633648   3.344   7.480   5.398 -1.5727  1.1311 -0.0106
   32MOL   H10733649   3.376   7.466   5.162 -1.2718  0.5071  0.0633
   32MOL   H10833650   3.541   7.399   4.757 -0.4663  0.1107 -0.2507
   32MOL   H10933651   3.663   7.188   4.725 -0.5199  0.0576  0.0785
   32MOL   C11033652   4.518   7.255   5.858  0.6052 -0.2972  0.3775
   32MOL   C11133653   4.468   7.126   5.884  0.1279  0.3712  0.3078
   32MOL   C11233654   4.552   7.017   5.915  0.0451 -0.7781  0.1871
   32MOL   C11333655   4.688   7.037   5.903 -0.0452  0.3287 -0.1635
   32MOL   S11433656   4.791   6.888   5.924  0.3361  0.0549 -0.1911
   32MOL   O11533657   4.702   6.776   5.884 -0.3109  0.6605 -0.1063
   32MOL   O11633658   4.853   6.893   6.060  0.5272 -0.7068  0.1394
   32MOL   C11733659   4.924   6.913   5.803  0.6751 -0.3317 -0.4883
   32MOL   C11833660   5.061   6.909   5.836  0.4184 -0.2264 -0.4156
   32MOL   C11933661   5.163   6.932   5.738  0.1750 -0.5121  0.5085
   32MOL   C12033662   5.124   6.962   5.610  0.3950  0.3190  0.2096
   32MOL   O12133663   5.211   6.979   5.506 -0.1419  0.0076 -0.8062
   32MOL   C12233664   5.272   7.102   5.502 -0.0902 -0.4503  0.1175
   32MOL   C12333665   5.201   7.220   5.478 -0.2349 -0.2284 -0.4417
   32MOL   C12433666   5.264   7.335   5.444 -0.7897 -0.5808 -0.4435
   32MOL   C12533667   5.405   7.338   5.437 -0.2083 -0.0372  0.4608
   32MOL   C12633668   5.473   7.462   5.370  0.2183 -0.0135 -1.0833
   32MOL   C12733669   5.511   7.415   5.229 -0.3839 -0.1686 -0.1787
   32MOL   C12833670   5.377   7.591   5.361  0.1371 -0.2373  0.2268
   32MOL   C12933671   5.607   7.502   5.441  0.4344  0.7300  0.6575
   32MOL   C13033672   5.735   7.483   5.385 -0.5808 -0.1331 -0.0773
   32MOL   C13133673   5.849   7.525   5.457  0.5296  0.5366  0.2405
   32MOL   C13233674   5.845   7.570   5.589 -0.5752  0.1015 -0.1318
   32MOL   O13333675   5.960   7.585   5.668 -0.3157  0.3244  0.6426
   32MOL   C13433676   5.717   7.581   5.649 -0.4468  0.4219 -0.2217
   32MOL   C13533677   5.597   7.559   5.572 -0.6101  0.3398 -0.0278
   32MOL   C13633678   5.481   7.224   5.480 -0.0667 -0.3428  0.0045
   32MOL   C13733679   5.411   7.103   5.513  0.4530 -0.2795  0.6390
   32MOL   C13833680   4.985   6.962   5.573 -1.0982 -0.0178  0.6387
   32MOL   C13933681   4.887   6.951   5.673  0.1361 -0.4219  0.3255
   32MOL   C14033682   4.743   7.161   5.868 -0.2826 -0.7960 -0.7926
   32MOL   C14133683   4.659   7.268   5.848  0.3550  0.2019 -0.0708
   32MOL   H14233684   4.363   7.111   5.906  0.0960 -2.2379 -1.3923
   32MOL   H14333685   4.521   6.921   5.954 -1.0356 -1.5002 -2.3863
   32MOL   H14433686   5.089   6.899   5.939 -1.0681  1.1777  0.1494
   32MOL   H14533687   5.270   6.929   5.744  0.4262 -0.8969 -2.9293
   32MOL   H14633688   5.093   7.222   5.474 -0.3757  0.3142  2.6241
   32MOL   H14733689   5.205   7.421   5.418 -1.1937 -1.3596 -2.2275
   32MOL   H14833690   5.543   7.498   5.167 -1.1895 -0.3698 -0.8710
   32MOL   H14933691   5.419   7.386   5.177  0.3437 -0.1222 -1.5324
   32MOL   H15033692   5.581   7.331   5.233  1.4636  1.3010 -0.9663
   32MOL   H15133693   5.432   7.682   5.338 -1.5842  1.0531  1.0657
   32MOL   H15233694   5.289   7.578   5.299  0.7561  1.3806 -1.0129
   32MOL   H15333695   5.342   7.612   5.463 -0.3882  0.7927 -0.1542
   32MOL   H15433696   5.748   7.439   5.287  0.2164  1.7435 -0.8399
   32MOL   H15533697   5.937   7.510   5.394 -0.3395 -1.3904 -0.5712
   32MOL   H15633698   5.716   7.611   5.753  2.5727  0.8845 -0.2801
   32MOL   H15733699   5.498   7.572   5.613 -0.7481  0.0597 -0.2639
   32MOL   H15833700   5.588   7.215   5.471 -0.1953 -2.1822  0.1873
   32MOL   H15933701   5.465   7.009   5.509  0.1920 -0.3546 -3.0696
   32MOL   H16033702   4.949   6.980   5.473  0.0437 -0.8603  0.0620
   32MOL   H16133703   4.785   6.956   5.638 -0.6603  1.9380  2.8399
   32MOL   H16233704   4.848   7.168   5.845  0.1155 -1.3271  0.8012
   32MOL   H16333705   4.695   7.361   5.807 -1.0158  1.3485  1.2333
   32MOL   C16433706   6.073   7.648   5.626 -0.2808 -0.3893 -0.5131
   32MOL   C16533707   6.182   7.623   5.709 -0.6637 -0.3265 -0.1990
   32MOL   C16633708   6.296   7.707   5.693  0.3964 -0.4255  0.2897
   32MOL   C16733709   6.307   7.809   5.597  0.5630 -0.1146 -0.7843
   32MOL   S16833710   6.447   7.924   5.574  0.3002 -0.3416  0.0096
   32MOL   O16933711   6.471   7.976   5.709  0.1164  0.2501 -0.0157
   32MOL   O17033712   6.416   8.023   5.466  0.0697 -0.0099  0.1304
   32MOL   C17133713   6.581   7.819   5.516  0.5449 -0.5908  0.0883
   32MOL   C17233714   6.709   7.848   5.569  0.5095  0.4214 -0.5990
   32MOL   C17333715   6.819   7.777   5.521 -0.2582  0.2871 -0.8564
   32MOL   C17433716   6.798   7.676   5.428 -0.9109 -0.6044  0.4671
   32MOL   O17533717   6.911   7.608   5.383  0.1652 -0.2903  0.3796
   32MOL   C17633718   6.970   7.517   5.467  0.4650  0.7256  0.7040
   32MOL   C17733719   7.111   7.507   5.472 -0.8780 -0.1795  0.7009
   32MOL   C17833720   7.175   7.408   5.551 -0.5815  0.1109  0.4361
   32MOL   C17933721   7.098   7.312   5.627  0.4159 -0.1662 -0.5370
   32MOL   C18033722   7.165   7.205   5.717  0.6814  0.7728  0.2760
   32MOL   C18133723   7.071   7.099   5.777 -0.4094 -0.0978 -0.1760
   32MOL   C18233724   7.265   7.137   5.621 -0.5189 -0.0285 -0.3191
   32MOL   C18333725   7.241   7.283   5.825 -0.4593  0.3848 -0.1877
   32MOL   C18433726   7.375   7.263   5.859  0.8123 -0.4709  0.3124
   32MOL   C18533727   7.432   7.329   5.966 -0.3564 -0.1232 -0.0306
   32MOL   C18633728   7.358   7.419   6.045  0.6449  0.3408 -0.6129
   32MOL   O18733729   7.421   7.478   6.146 -0.1316 -0.8667 -0.3369
   32MOL   C18833730   7.220   7.435   6.013  0.1715  0.0126 -0.3302
   32MOL   C18933731   7.160   7.369   5.903  0.5290  0.4253 -0.4766
   32MOL   C19033732   6.960   7.328   5.620  0.3412 -0.0415  0.1003
   32MOL   C19133733   6.894   7.423   5.539 -0.2595 -0.0010  0.2326
   32MOL   C19233734   6.671   7.651   5.369  0.3351 -0.0069 -0.9554
   32MOL   C19333735   6.564   7.729   5.416 -0.0370  0.2065  0.2474
   32MOL   C19433736   6.198   7.824   5.512 -0.5704  0.7539 -0.2553
   32MOL   C19533737   6.077   7.753   5.532  0.0619 -0.0375  0.4036
   32MOL   H19633738   6.182   7.549   5.788  0.2814 -0.3880 -0.2445
   32MOL   H19733739   6.381   7.695   5.759 -1.2242 -2.5889  2.0735
   32MOL   H19833740   6.718   7.927   5.642  3.0157 -0.8933  0.5822
   32MOL   H19933741   6.918   7.805   5.552 -0.6458  0.6476  0.0705
   32MOL   H20033742   7.184   7.567   5.421 -3.4135  2.0586 -0.4303
   32MOL   H20133743   7.282   7.420   5.545 -0.9937  2.9407 -3.0453
   32MOL   H20233744   6.995   7.148   5.838  0.3649 -0.2187  0.9001
   32MOL   H20333745   7.126   7.028   5.839 -2.9009 -1.1874  0.8724
   32MOL   H20433746   7.021   7.049   5.694  0.6019  0.6644 -1.2488
   32MOL   H20533747   7.216   7.087   5.537  1.6983 -0.2704 -1.5169
   32MOL   H20633748   7.337   7.207   5.579 -1.3968  1.1779  0.1623
   32MOL   H20733749   7.326   7.061   5.670  1.5693  0.3595 -2.2308
   32MOL   H20833750   7.440   7.226   5.781 -3.0310 -3.1130 -1.8458
   32MOL   H20933751   7.536   7.322   5.994 -1.0452 -2.7327  2.1402
   32MOL   H21033752   7.154   7.502   6.066  2.1743 -0.7858  3.2547
   32MOL   H21133753   7.057   7.390   5.876  0.8391  1.4242 -0.9161
   32MOL   H21233754   6.900   7.262   5.682  0.9233 -0.6505  0.0163
   32MOL   H21333755   6.787   7.428   5.525 -0.0784 -1.1907 -1.8504
   32MOL   H21433756   6.645   7.585   5.288  0.4544 -0.8738 -0.2885
   32MOL   H21533757   6.468   7.721   5.366  0.1176 -2.8659  0.3076
   32MOL   H21633758   6.202   7.906   5.442 -2.6880  0.1348 -1.1404
   32MOL   H21733759   5.992   7.796   5.480  1.7307 -0.2036 -2.5819
   32MOL   C21833760   7.468   7.604   6.117  0.0686  0.0013 -0.2325
   32MOL   C21933761   7.572   7.619   6.022  0.0122 -0.3502 -0.2889
   32MOL   C22033762   7.621   7.754   5.996 -0.0830  0.2579 -0.3456
   32MOL   C22133763   7.555   7.857   6.053  0.6601 -0.2394 -0.1600
   32MOL   S22233764   7.609   8.024   6.015 -0.1914 -0.5667  0.4656
   32MOL   O22333765   7.536   8.117   6.104 -0.1613 -0.4140  0.3826
   32MOL   O22433766   7.598   8.035   5.869  0.0146  0.6513 -0.8895
   32MOL   C22533767   7.776   8.046   6.053 -0.8066  0.7602  0.0543
   32MOL   C22633768   7.848   8.150   5.998  0.1615 -0.3089 -0.1526
   32MOL   C22733769   7.980   8.175   6.032  0.0206 -0.6136  0.0061
   32MOL   C22833770   8.052   8.077   6.103  0.0408 -0.4483  0.2655
   32MOL   O22933771   8.180   8.109   6.148 -0.6553  0.1316  0.3188
   32MOL   C23033772   0.026   8.050   6.078 -0.4124  0.7514 -0.1261
   32MOL   C23133773   0.104   8.135   5.996 -0.1034  0.6598  0.1239
   32MOL   C23233774   0.203   8.074   5.913 -0.0377 -0.2649  0.5005
   32MOL   C23333775   0.224   7.936   5.912 -0.0056 -0.7262 -0.2869
   32MOL   C23433776   0.340   7.867   5.830  0.1154  0.5056  0.5996
   32MOL   C23533777   0.273   7.771   5.730 -0.7132  0.7107 -0.4245
   32MOL   C23633778   0.415   7.969   5.746 -0.3823 -0.1186 -0.6677
   32MOL   C23733779   0.448   7.807   5.920  0.1142 -0.4728  0.2229
   32MOL   C23833780   0.554   7.725   5.867 -0.3817 -0.6022  0.6220
   32MOL   C23933781   0.656   7.676   5.953 -0.2082  0.8804  0.1633
   32MOL   C24033782   0.656   7.709   6.087 -0.3339  0.4521  0.3638
   32MOL   O24133783   0.739   7.651   6.175  0.0273 -0.3182 -0.6938
   32MOL   C24233784   0.567   7.804   6.141  0.2915  0.6584  0.0566
   32MOL   C24333785   0.465   7.848   6.058  0.3938 -0.4151  0.4628
   32MOL   C24433786   0.147   7.853   5.999 -0.0934  0.3034 -0.5504
   32MOL   C24533787   0.053   7.911   6.084  0.3610 -0.1140 -0.3934
   32MOL   C24633788   7.978   7.970   6.158 -0.1162  0.9973 -0.2789
   32MOL   C24733789   7.841   7.953   6.132  0.7677 -0.1062 -0.2022
   32MOL   C24833790   7.448   7.847   6.141  0.1847 -0.5160 -0.5169
   32MOL   C24933791   7.404   7.718   6.173 -0.6063 -0.1989  0.2816
   32MOL   H25033792   7.622   7.535   5.976 -1.4753 -0.4407 -1.7789
   32MOL   H25133793   7.714   7.774   5.944  0.8572 -0.5791  0.9829
   32MOL   H25233794   7.805   8.221   5.929  1.9427 -0.2618 -1.2473
   32MOL   H25333795   8.031   0.009   5.992  3.1434 -2.3452  0.0482
   32MOL   H25433796   0.084   8.241   5.992 -2.0041  0.3124 -0.1012
   32MOL   H25533797   0.252   8.138   5.841  1.5488 -1.9656  0.0363
   32MOL   H25633798   0.195   7.824   5.677 -2.6533  0.6053  2.1820
   32MOL   H25733799   0.251   7.680   5.788 -0.0798  0.3281 -0.7774
   32MOL   H25833800   0.342   7.751   5.648 -0.0536  1.2720 -0.0045
   32MOL   H25933801   0.463   8.047   5.804 -2.0910  1.6121 -1.5524
   32MOL   H26033802   0.497   7.919   5.694 -0.1720  1.4628 -1.8817
   32MOL   H26133803   0.354   8.015   5.669  1.4280 -0.2111 -2.1959
   32MOL   H26233804   0.553   7.699   5.763  2.0971 -0.9179  0.6514
   32MOL   H26333805   0.724   7.604   5.911  0.4843  0.0611  2.5640
   32MOL   H26433806   0.564   7.836   6.244 -0.7995  0.8684 -0.0312
   32MOL   H26533807   0.396   7.913   6.111  1.1879  0.2155  0.7319
   32MOL   H26633808   0.164   7.746   6.008  0.3422  0.2596 -1.8002
   32MOL   H26733809   8.252   7.846   6.151  0.6166 -0.0501 -0.1225
   32MOL   H26833810   8.026   7.893   6.216 -1.2843  0.1687 -0.3931
   32MOL   H26933811   7.791   7.870   6.181 -0.8680  2.2719  2.2795
   32MOL   H27033812   7.406   7.938   6.181  2.7625 -0.2125  1.6578
   32MOL   H27133813   7.309   7.708   6.222 -1.5162  0.3855 -1.3185
   32MOL   C27233814   0.699   7.526   6.220 -0.0735 -0.3405 -0.6344
   32MOL   C27333815   0.763   7.412   6.169  0.1295  0.3878  0.2039
   32MOL   C27433816   0.725   7.288   6.220 -0.0341  0.5587 -0.0471
   32MOL   C27533817   0.625   7.278   6.323  0.0408  0.0087  0.0276
   32MOL   S27633818   0.576   7.122   6.397  0.2538  0.6284  0.4924
   32MOL   O27733819   0.596   7.132   6.540  0.5311  0.3691  0.3233
   32MOL   O27833820   0.638   7.005   6.322 -0.0796 -0.1996 -0.0281
   32MOL   C27933821   0.405   7.103   6.357  0.6899 -0.2463  0.9665
   32MOL   C28033822   0.326   7.029   6.450 -0.1337 -0.2270  0.4496
   32MOL   C28133823   0.191   7.011   6.430 -0.0835  0.4375 -0.6738
   32MOL   C28233824   0.125   7.065   6.321 -0.2805  0.7736  0.0070
   32MOL   O28333825   8.252   7.044   6.284  0.4998 -0.1726 -0.2233
   32MOL   C28433826   8.161   7.147   6.304 -0.0803  0.1530  0.3031
   32MOL   C28533827   8.087   7.156   6.419 -0.6762 -0.3067 -0.5076
   32MOL   C28633828   7.997   7.259   6.439  0.2485 -0.3818 -0.3271
   32MOL   C28733829   7.967   7.351   6.333 -0.2144  0.1835  0.0713
   32MOL   C28833830   7.856   7.455   6.360  0.6274 -0.2333  0.6354
   32MOL   C28933831   7.883   7.532   6.494 -0.2104  0.4676  0.5367
   32MOL   C29033832   7.865   7.565   6.254 -1.1348 -0.5701  1.0211
   32MOL   C29133833   7.711   7.398   6.359 -0.0374  0.6916  0.1698
   32MOL   C29233834   7.680   7.279   6.291 -0.7743 -0.1311 -0.1774
   32MOL   C29333835   7.560   7.217   6.324  0.2157 -0.0856 -0.4693
   32MOL   C29433836   7.465   7.280   6.409 -0.6869  0.5099  0.0630
   32MOL   O29533837   7.356   7.213   6.459 -0.1596 -0.1690  0.3678
   32MOL   C29633838   7.476   7.410   6.444 -0.2301 -0.4158  0.1938
   32MOL   C29733839   7.602   7.468   6.414  0.5894 -0.9026  0.2570
   32MOL   C29833840   8.048   7.346   6.220 -0.1174  0.5292 -0.3625
   32MOL   C29933841   8.149   7.249   6.204 -0.5566 -1.0929 -0.5043
   32MOL   C30033842   0.204   7.142   6.236 -0.4998 -0.7973  0.0358
   32MOL   C30133843   0.346   7.164   6.245  0.2144 -0.1139 -0.0924
   32MOL   C30233844   0.562   7.394   6.365 -0.1293  0.5224 -0.7042
   32MOL   C30333845   0.599   7.522   6.310 -0.2482 -0.0246 -0.1209
   32MOL   H30433846   0.836   7.420   6.090  1.7103 -2.7463  1.2490
   32MOL   H30533847   0.771   7.197   6.183 -1.1447 -0.9655  2.1836
   32MOL   H30633848   0.374   6.985   6.536  0.2848 -3.8881 -1.5396
   32MOL   H30733849   0.135   6.959   6.507  1.7187  0.5368  0.7332
   32MOL   H30833850   8.102   7.089   6.502 -0.7203 -1.0383 -1.0946
   32MOL   H30933851   7.935   7.265   6.527 -0.8171  0.0993 -1.0977
   32MOL   H31033852   7.859   7.465   6.577 -0.8183  0.2648  0.1981
   32MOL   H31133853   7.827   7.625   6.493  0.9778  1.2010 -1.5013
   32MOL   H31233854   7.984   7.572   6.501 -0.1260  0.1641  1.0601
   32MOL   H31333855   7.780   7.633   6.258 -2.4331 -2.1703  1.0997
   32MOL   H31433856   7.956   7.625   6.267 -0.2645 -1.3943 -1.0600
   32MOL   H31533857   7.851   7.532   6.151  0.0050 -1.3650  1.1110
   32MOL   H31633858   7.756   7.224   6.237 -0.8321 -0.1117 -0.2792
   32MOL   H31733859   7.537   7.116   6.294 -1.6854 -0.3015  1.5392
   32MOL   H31833860   7.403   7.474   6.492  0.9238  0.5751  0.6437
   32MOL   H31933861   7.626   7.564   6.457 -1.0628 -0.5579  0.4402
   32MOL   H32033862   8.043   7.417   6.140  2.4459  0.6529 -0.4721
   32MOL   H32133863   8.210   7.253   6.115 -0.2466  0.7161 -0.2324
   32MOL   H32233864   0.167   7.185   6.144  0.3937  0.7656  0.3854
   32MOL   H32333865   0.402   7.230   6.180  0.6571 -1.7915 -1.4384
   32MOL   H32433866   0.491   7.386   6.446 -1.2247 -3.2542 -1.9044
   32MOL   H32533867   0.543   7.601   6.357  1.0724  1.7358 -1.4454
   32MOL   C32633868   7.251   7.197   6.379 -1.0533 -0.4350  0.2659
   32MOL   C32733869   7.123   7.222   6.437  0.4888 -0.3656  0.9276
   32MOL   C32833870   7.003   7.204   6.360  0.0203  0.3494  0.2357
   32MOL   C32933871   7.016   7.155   6.231  0.0067 -0.5549  0.5213
   32MOL   S33033872   6.868   7.127   6.137 -0.2717 -0.5599 -0.2398
   32MOL   O33133873   6.762   7.090   6.233  0.0856 -0.0279  0.0349
   32MOL   O33233874   6.899   7.042   6.017  0.5024  0.3559  0.0819
   32MOL   C33333875   6.829   7.287   6.069 -0.4063 -0.4573 -0.1967
   32MOL   C33433876   6.783   7.293   5.937  0.1295  0.1232 -0.0924
   32MOL   C33533877   6.743   7.411   5.882  0.1494  0.1452 -0.3139
   32MOL   C33633878   6.749   7.534   5.963 -0.0272 -0.8146  0.2520
   32MOL   O33733879   6.713   7.654   5.909  0.1079 -0.3497  0.5181
   32MOL   C33833880   6.600   7.705   5.966  0.5102  0.0546 -0.1506
   32MOL   C33933881   6.583   7.843   5.971 -0.2897  0.3808 -0.2716
   32MOL   C34033882   6.467   7.901   6.024  0.9483 -0.1704 -0.0749
   32MOL   C34133883   6.362   7.819   6.067  0.4774 -0.5352 -0.0331
   32MOL   C34233884   6.230   7.880   6.125  0.2571 -0.5470 -0.1792
   32MOL   C34333885   6.254   7.944   6.265  0.1305 -0.5042 -0.1309
   32MOL   C34433886   6.182   8.000   6.043 -0.0133  0.7023  0.0505
   32MOL   C34533887   6.123   7.767   6.139  0.0542 -0.0179  0.2237
   32MOL   C34633888   6.098   7.696   6.258  0.3177 -0.3044 -0.2664
   32MOL   C34733889   6.006   7.595   6.265  0.2130  0.2504  0.8018
   32MOL   C34833890   5.935   7.561   6.150 -0.4481 -0.5376  0.1702
   32MOL   O34933891   5.829   7.474   6.164 -0.5810  0.0612  0.0875
   32MOL   C35033892   5.951   7.631   6.029 -0.3138 -0.2399  0.1632
   32MOL   C35133893   6.053   7.724   6.027 -0.0294  0.2502  0.4678
   32MOL   C35233894   6.379   7.678   6.057  0.5930 -0.4567 -0.6058
   32MOL   C35333895   6.494   7.624   6.010  0.7281  0.1354  0.3203
   32MOL   C35433896   6.796   7.526   6.096  0.0459 -0.0881 -0.5252
   32MOL   C35533897   6.833   7.402   6.156 -0.3027  0.5127  0.4672
   32MOL   C35633898   7.143   7.142   6.167 -0.4279  0.4552  0.0831
   32MOL   C35733899   7.264   7.160   6.243 -0.0784  0.2985  0.4935
   32MOL   H35833900   7.110   7.265   6.535 -1.4349 -0.8429  0.9117
   32MOL   H35933901   6.909   7.220   6.411  0.4933  2.3152  0.5357
   32MOL   H36033902   6.775   7.201   5.880 -3.2651  0.7081 -0.6331
   32MOL   H36133903   6.704   7.410   5.781 -0.8313 -2.0195  0.0583
   32MOL   H36233904   6.661   7.905   5.929  1.5182 -2.1574 -0.7728
   32MOL   H36333905   6.456   8.007   6.040 -0.4477 -0.3658  0.2684
   32MOL   H36433906   6.326   8.026   6.259  1.4135 -1.7031 -1.9307
   32MOL   H36533907   6.303   7.864   6.321  2.0562  1.0466  0.4595
   32MOL   H36633908   6.167   7.980   6.319  1.6792  1.3791  1.1655
   32MOL   H36733909   6.253   8.083   6.050 -1.1733  1.9559 -2.3701
   32MOL   H36833910   6.167   7.977   5.938  0.4393 -2.6396  0.6817
   32MOL   H36933911   6.087   8.035   6.084 -0.2681  1.1408 -0.8922
   32MOL   H37033912   6.156   7.717   6.347  0.9135  0.6624 -0.8609
   32MOL   H37133913   5.986   7.538   6.354 -0.5746  2.2710  1.9625
   32MOL   H37233914   5.889   7.610   5.943 -0.0835 -0.2131 -0.0108
   32MOL   H37333915   6.078   7.776   5.936  2.1189  0.0978  0.9442
   32MOL   H37433916   6.303   7.612   6.098 -0.3782  0.9294 -0.1245
   32MOL   H37533917   6.507   7.517   6.002  2.4318  0.3513 -0.1725
   32MOL   H37633918   6.792   7.620   6.150  2.5609 -0.7174  0.8523
   32MOL   H37733919   6.871   7.392   6.256  0.0666  1.6442  0.4445
   32MOL   H37833920   7.155   7.111   6.064 -0.8423 -0.9605  0.4408
   32MOL   H37933921   7.354   7.144   6.186 -0.6521 -1.8673  0.1193
   32MOL   C38033922   5.863   7.340   6.187 -0.4721  0.8019 -0.3792
   32MOL   C38133923   5.766   7.272   6.265  0.8826  0.2318 -0.1317
   32MOL   C38233924   5.788   7.143   6.307 -0.3579 -0.2877 -0.7231
   32MOL   C38333925   5.898   7.073   6.255 -0.3590  0.0993  0.3093
   32MOL   S38433926   5.912   6.902   6.288  0.5170  0.1598 -0.1105
   32MOL   O38533927   5.828   6.869   6.405  0.1445 -0.1590 -0.3284
   32MOL   O38633928   6.058   6.869   6.290 -0.1384  0.3498 -0.3537
   32MOL   C38733929   5.849   6.822   6.142 -0.1347  0.6023 -0.4807
   32MOL   C38833930   5.899   6.697   6.092  0.1738 -0.5306  0.2290
   32MOL   C38933931   5.846   6.636   5.983  0.1543 -0.6467 -0.0552
   32MOL   C39033932   5.736   6.696   5.917  0.1385  0.4477 -0.3125
   32MOL   O39133933   5.678   6.644   5.808 -0.2529  0.4693 -0.2338
   32MOL   C39233934   5.706   6.698   5.688  0.0711 -0.1333 -0.3086
   32MOL   C39333935   5.839   6.735   5.654  0.3863  0.2972  0.3659
   32MOL   C39433936   5.871   6.802   5.537 -0.1696  0.3445  0.7508
   32MOL   C39533937   5.775   6.820   5.435  0.1390 -0.2991 -0.4446
   32MOL   C39633938   5.810   6.900   5.300 -0.2708 -0.4460  0.4452
   32MOL   C39733939   5.848   7.043   5.347 -0.2290 -0.2012  0.3920
   32MOL   C39833940   5.931   6.844   5.230 -0.5060 -0.0156  0.2301
   32MOL   C39933941   5.691   6.907   5.202 -0.7786 -0.4484  0.4729
   32MOL   C40033942   5.608   7.021   5.200  0.3205  0.2583 -0.4445
   32MOL   C40133943   5.495   7.026   5.112  0.1558 -1.1935 -0.0839
   32MOL   C40233944   5.452   6.912   5.041 -0.4090  0.7090 -0.7951
   32MOL   O40333945   5.338   6.919   4.971 -0.1181 -1.0223  0.0287
   32MOL   C40433946   5.535   6.802   5.036  0.2526 -0.2267  0.0325
   32MOL   C40533947   5.652   6.797   5.117 -0.7017  0.0194 -0.3943
   32MOL   C40633948   5.638   6.779   5.466 -0.5931  0.1662 -0.1208
   32MOL   C40733949   5.607   6.725   5.592  0.1700 -0.1090 -0.2513
   32MOL   C40833950   5.686   6.825   5.954  0.2230  0.3071  0.5453
   32MOL   C40933951   5.748   6.887   6.066  0.1274 -0.8139 -0.2121
   32MOL   C41033952   5.986   7.134   6.160  0.1910  0.6962 -0.9786
   32MOL   C41133953   5.972   7.267   6.136  0.5166 -0.3987 -0.1881
   32MOL   H41233954   5.678   7.324   6.301  1.1245  0.4744  0.1168
   32MOL   H41333955   5.726   7.097   6.382 -0.2557  0.3372 -0.2541
   32MOL   H41433956   5.987   6.660   6.143  2.0786  1.5933 -1.4028
   32MOL   H41533957   5.891   6.545   5.945  3.2088 -0.5659  3.1355
   32MOL   H41633958   5.910   6.707   5.730  2.1238  1.1771 -0.8876
   32MOL   H41733959   5.968   6.847   5.527  0.7412 -1.3868  1.6639
   32MOL   H41833960   5.853   7.122   5.271 -1.2666  1.0425  1.5877
   32MOL   H41933961   5.942   7.042   5.402 -0.2727 -1.4121  0.4618
   32MOL   H42033962   5.783   7.084   5.424 -1.8392 -0.7757 -0.6348
   32MOL   H42133963   5.970   6.907   5.150  0.9786 -1.5325 -0.2702
   32MOL   H42233964   6.013   6.820   5.298 -0.2761  0.0445 -0.0210
   32MOL   H42333965   5.910   6.741   5.200 -1.1365  0.0345  0.4937
   32MOL   H42433966   5.641   7.107   5.257  1.2840 -0.5018  0.1673
   32MOL   H42533967   5.435   7.116   5.113 -1.1251 -2.0337  1.5692
   32MOL   H42633968   5.508   6.716   4.977  0.5626  0.3768 -0.9967
   32MOL   H42733969   5.713   6.708   5.128  0.6490  0.9885  0.0603
   32MOL   H42833970   5.560   6.796   5.394  1.3819 -0.1878 -2.4426
   32MOL   H42933971   5.502   6.719   5.617 -0.0885 -0.3599 -1.3689
   32MOL   H43033972   5.608   6.868   5.894  1.2402 -0.7159 -1.5480
   32MOL   H43133973   5.705   6.980   6.100 -1.2692 -1.1194 -1.1360
   32MOL   H43233974   6.068   7.076   6.118  0.2556  2.0100 -2.7336
   32MOL   H43333975   6.042   7.318   6.073 -1.0732  1.1106 -0.7990
   32MOL   C43433976   5.224   6.874   5.034  0.3675 -0.6503 -0.4673
   32MOL   C43533977   5.149   6.969   5.108 -1.0353  0.4455  0.3162
   32MOL   C43633978   5.048   6.920   5.195 -0.1195  0.3311 -0.4053
   32MOL   C43733979   5.020   6.784   5.199 -0.1305 -0.0842 -0.1198
   32MOL   S43833980   4.878   6.717   5.302 -0.5974  0.2707  0.0984
   32MOL   O43933981   4.825   6.594   5.234 -0.3923 -0.6844 -0.6529
   32MOL   O44033982   4.782   6.819   5.341 -0.1204  0.2126 -0.5367
   32MOL   C44133983   4.964   6.648   5.453 -0.0976  0.8051  0.3613
   32MOL   C44233984   4.883   6.602   5.552  0.0129  0.7145 -0.3178
   32MOL   C44333985   4.940   6.549   5.666 -0.2809  0.3888 -0.3522
   32MOL   C44433986   5.079   6.551   5.699  0.0455 -0.2540 -0.2220
   32MOL   O44533987   5.139   6.500   5.810  0.1531  0.0110  0.2472
   32MOL   C44633988   5.066   6.506   5.925 -0.8947  0.2725 -0.9578
   32MOL   C44733989   5.086   6.621   6.005  0.8422  0.2600  0.2403
   32MOL   C44833990   5.017   6.634   6.128  0.1275 -0.1543 -0.2969
   32MOL   C44933991   4.916   6.534   6.161 -0.2208 -0.2262  0.4440
   32MOL   C45033992   4.834   6.545   6.300  0.0025 -0.0205 -0.0824
   32MOL   C45133993   4.875   6.664   6.389 -0.0178 -0.2722  0.2120
   32MOL   C45233994   4.688   6.567   6.264  0.2100 -1.4126  0.2934
   32MOL   C45333995   4.852   6.418   6.379  0.2483  0.4807 -0.5093
   32MOL   C45433996   4.962   6.332   6.366  0.2251 -0.1487 -0.3762
   32MOL   C45533997   4.984   6.218   6.441  0.7219 -0.6084  0.1982
   32MOL   C45633998   4.887   6.189   6.544  0.2945 -0.5836 -0.4848
   32MOL   O45733999   4.884   6.070   6.616  0.1261 -0.1324 -0.3783
   32MOL   C45834000   4.782   6.282   6.563  0.1205  0.8031 -0.0639
   32MOL   C45934001   4.762   6.396   6.482  0.3984 -0.2281 -0.5501
   32MOL   C46034002   4.892   6.431   6.070 -0.5248 -0.5515 -0.2560
   32MOL   C46134003   4.969   6.412   5.952 -0.3176  0.2796  0.5095
   32MOL   C46234004   5.162   6.621   5.607  0.8945 -0.3889  0.1187
   32MOL   C46334005   5.104   6.666   5.484  0.0505 -0.0179  0.3343
   32MOL   C46434006   5.100   6.694   5.129 -0.5459 -0.0668  0.4984
   32MOL   C46534007   5.195   6.738   5.037 -0.4792 -0.1186  0.1763
   32MOL   H46634008   5.187   7.069   5.097  0.9859 -0.1162  1.8602
   32MOL   H46734009   4.986   6.994   5.244 -1.9270 -1.0609 -0.5080
   32MOL   H46834010   4.780   6.578   5.530 -0.4185  2.3640 -0.1192
   32MOL   H46934011   4.874   6.491   5.728 -1.7785  2.0488 -0.3348
   32MOL   H47034012   5.154   6.702   5.986  0.0571  1.2576  1.6628
   32MOL   H47134013   5.031   6.721   6.190  1.8308  1.1205 -2.3790
   32MOL   H47234014   4.982   6.671   6.412  0.2306  0.6906 -1.1962
   32MOL   H47334015   4.816   6.665   6.481 -1.5095 -1.6945 -0.7153
   32MOL   H47434016   4.855   6.754   6.332  0.7188 -0.0229  0.3360
   32MOL   H47534017   4.687   6.651   6.194 -2.5249 -0.8540  0.9549
   32MOL   H47634018   4.650   6.490   6.196 -0.0208  0.5669 -1.8612
   32MOL   H47734019   4.619   6.588   6.345  2.2335 -0.2298  1.7774
   32MOL   H47834020   5.032   6.350   6.285  0.1250 -0.3974 -0.5187
   32MOL   H47934021   5.069   6.153   6.426  1.2079  0.6445 -2.7305
   32MOL   H48034022   4.716   6.259   6.646 -1.1080  0.7337 -1.0432
   32MOL   H48134023   4.698   6.480   6.506  1.9426  0.3750  1.5459
   32MOL   H48234024   4.819   6.357   6.100 -0.1966 -0.7766 -0.0063
   32MOL   H48334025   4.968   6.322   5.893  0.2036 -0.4860  1.6641
   32MOL   H48434026   5.268   6.632   5.623  0.9187 -0.8771  0.2967
   32MOL   H48534027   5.169   6.719   5.416 -2.0217  0.6601 -1.1805
   32MOL   H48634028   5.082   6.587   5.134 -0.9309 -0.0945 -1.1036
   32MOL   H48734029   5.254   6.666   4.981  0.3249  0.5640  0.1405
   32MOL   C48834030   4.922   5.953   6.559 -0.6805  0.5786  0.8166
   32MOL   C48934031   4.847   5.881   6.464 -0.2244  0.0015  0.9749
   32MOL   C49034032   4.882   5.751   6.422  0.3475  0.2310  0.0405
   32MOL   C49134033   4.997   5.696   6.479 -0.4215  0.3210  0.0681
   32MOL   S49234034   5.051   5.545   6.404  0.1029 -0.5883  0.1736
   32MOL   O49334035   4.950   5.509   6.298 -0.0744  0.2708 -0.5290
   32MOL   O49434036   5.076   5.451   6.512  0.1362  0.2058 -0.0384
   32MOL   C49534037   5.203   5.594   6.322  0.5603  0.7375  0.0294
   32MOL   C49634038   5.314   5.504   6.341  0.3542  0.0208 -0.3007
   32MOL   C49734039   5.436   5.541   6.279 -0.6424 -0.4648  0.0293
   32MOL   C49834040   5.445   5.655   6.191 -0.1670 -0.1455 -0.6041
   32MOL   O49934041   5.563   5.692   6.131 -0.1594  0.3624  0.3497
   32MOL   C50034042   5.616   5.603   6.042  0.9245 -0.0872  0.1112
   32MOL   C50134043   5.544   5.549   5.935  0.4501  0.0858  0.5152
   32MOL   C50234044   5.605   5.463   5.843  0.1711 -0.2116  0.2600
   32MOL   C50334045   5.730   5.407   5.872 -0.3956 -1.0678  0.5140
   32MOL   C50434046   5.795   5.292   5.784  0.3325 -0.0478 -0.1258
   32MOL   C50534047   5.815   5.170   5.875 -0.6350  0.1263 -0.0816
   32MOL   C50634048   5.705   5.252   5.672  0.3540  0.0248  0.1542
   32MOL   C50734049   5.920   5.356   5.726 -0.3503 -0.7999 -0.1706
   32MOL   C50834050   5.943   5.495   5.711  0.6460  0.3139 -0.5132
   32MOL   C50934051   6.064   5.540   5.656 -0.1075 -0.3941  0.2530
   32MOL   C51034052   6.176   5.457   5.624  0.0792  0.1307  0.4696
   32MOL   O51134053   6.292   5.509   5.566 -0.6272 -0.3971  1.0151
   32MOL   C51234054   6.151   5.320   5.645 -0.7934  0.0371 -0.5380
   32MOL   C51334055   6.027   5.269   5.693 -0.3350  0.5296  0.3480
   32MOL   C51434056   5.800   5.458   5.983 -0.1083  0.8159  0.0822
   32MOL   C51534057   5.746   5.559   6.061  0.5220  0.5081 -0.4699
   32MOL   C51634058   5.335   5.744   6.187 -0.0858 -0.1704 -0.2986
   32MOL   C51734059   5.217   5.712   6.249  0.7129  0.1701 -0.8754
   32MOL   C51834060   5.087   5.771   6.559  0.0239 -0.9486 -0.1431
   32MOL   C51934061   5.050   5.899   6.603 -0.2466 -0.1225  0.2150
   32MOL   H52034062   4.758   5.924   6.420 -1.2083 -1.0642  1.8851
   32MOL   H52134063   4.821   5.694   6.353 -0.8099  2.3640 -0.7432
   32MOL   H52234064   5.310   5.412   6.396  0.1836  0.4913  0.4790
   32MOL   H52334065   5.522   5.477   6.288 -0.4198  0.0679  2.0390
   32MOL   H52434066   5.442   5.580   5.916  0.1500 -0.7627  0.7125
   32MOL   H52534067   5.544   5.443   5.756  0.4839  0.1765 -0.0527
   32MOL   H52634068   5.882   5.199   5.956 -1.5751  1.3388  0.2835
   32MOL   H52734069   5.860   5.082   5.828 -1.1248  0.4132 -1.1125
   32MOL   H52834070   5.718   5.144   5.917  0.0532  0.2494  1.6391
   32MOL   H52934071   5.754   5.181   5.605  0.4994 -1.0168  1.3553
   32MOL   H53034072   5.626   5.194   5.720 -0.5199  1.7435  0.8420
   32MOL   H53134073   5.658   5.325   5.606  0.9633  1.9554  1.8185
   32MOL   H53234074   5.861   5.561   5.733  1.8493  1.1749  1.5861
   32MOL   H53334075   6.082   5.646   5.644  0.3991 -0.5271 -0.2060
   32MOL   H53434076   6.224   5.243   5.625  0.8911  1.0355  1.4908
   32MOL   H53534077   6.033   5.162   5.701 -0.6849  0.3579 -1.4775
   32MOL   H53634078   5.899   5.422   6.006 -1.4695 -3.2687 -0.1243
   32MOL   H53734079   5.801   5.595   6.146 -0.1553  0.5804 -0.0603
   32MOL   H53834080   5.342   5.842   6.143 -4.0638 -0.3411 -1.5273
   32MOL   H53934081   5.142   5.791   6.252  2.0944  1.5454 -1.8725
   32MOL   H54034082   5.171   5.714   6.594  0.3405 -0.9808 -0.9340
   32MOL   H54134083   5.110   5.948   6.679 -0.0359  0.1448 -0.1261
   32MOL   C54234084   6.312   5.637   5.526  0.0713 -0.1949 -0.0831
   32MOL   C54334085   6.255   5.683   5.404 -0.1651  0.2687 -0.6333
   32MOL   C54434086   6.287   5.807   5.353  0.5164 -0.6026  0.0317
   32MOL   C54534087   6.374   5.891   5.423 -0.6995  0.3155 -0.4002
   32MOL   S54634088   6.439   6.040   5.351  0.2558 -0.2406 -0.2661
   32MOL   O54734089   6.456   6.148   5.451 -0.1010  0.8295 -0.1988
   32MOL   O54834090   6.365   6.066   5.228 -0.2913  0.2503  0.1552
   32MOL   C54934091   6.598   5.983   5.308  0.4510  0.4975  0.6302
   32MOL   C55034092   6.600   5.889   5.200  0.0665 -0.4622 -0.8080
   32MOL   C55134093   6.719   5.831   5.167  0.2326  0.2774 -0.2622
   32MOL   C55234094   6.841   5.857   5.233  0.2442  0.0185 -0.4876
   32MOL   O55334095   6.952   5.789   5.187 -0.5187  0.0717 -0.3141
   32MOL   C55434096   6.972   5.678   5.255  0.9022 -0.2966  0.2704
   32MOL   C55534097   6.972   5.560   5.176  0.0562 -0.7726  0.0116
   32MOL   C55634098   6.987   5.435   5.244 -0.3973  0.1896 -0.3032
   32MOL   C55734099   6.990   5.425   5.388 -0.3955 -0.1550 -0.8028
   32MOL   C55834100   7.000   5.287   5.468 -0.1886 -0.1650  0.4267
   32MOL   C55934101   6.866   5.254   5.534  0.2206 -0.3228  0.6442
   32MOL   C56034102   7.018   5.171   5.375 -0.1616  0.0106  0.2405
   32MOL   C56134103   7.115   5.299   5.573 -0.2826  0.0813 -0.0792
   32MOL   C56234104   7.092   5.329   5.709 -0.0166  0.4198  0.1414
   32MOL   C56334105   7.194   5.317   5.806  0.1366 -0.1889 -0.8428
   32MOL   C56434106   7.323   5.282   5.766  0.2858 -0.2688  0.2932
   32MOL   O56534107   7.413   5.254   5.867  0.4625 -0.0061 -0.0359
   32MOL   C56634108   7.354   5.264   5.628  0.0440 -0.2322 -0.0539
   32MOL   C56734109   7.249   5.274   5.538 -0.0123 -0.3534 -0.9313
   32MOL   C56834110   6.986   5.544   5.465  0.6289  0.0227 -0.6949
   32MOL   C56934111   6.977   5.667   5.398 -0.1130 -0.0080 -0.3084
   32MOL   C57034112   6.838   5.942   5.341  0.1882  0.4477 -0.0749
   32MOL   C57134113   6.715   6.009   5.379  0.6793 -0.2004  0.7463
   32MOL   C57234114   6.430   5.843   5.542 -0.5729 -0.1538 -0.8091
   32MOL   C57334115   6.406   5.717   5.598  0.4163  0.5043  0.0354
   32MOL   H57434116   6.182   5.621   5.354 -0.5290  1.7246 -1.9657
   32MOL   H57534117   6.249   5.849   5.260  0.9874 -0.8411 -0.2685
   32MOL   H57634118   6.510   5.859   5.149 -0.7474  0.2224  0.2210
   32MOL   H57734119   6.734   5.769   5.080  3.5199 -1.4979  1.4306
   32MOL   H57834120   6.967   5.560   5.068  1.3520  2.1905 -0.0892
   32MOL   H57934121   6.991   5.342   5.190 -1.7731 -0.4901  0.7112
   32MOL   H58034122   6.838   5.342   5.593 -0.4812  0.7202 -1.2071
   32MOL   H58134123   6.877   5.169   5.601  1.7347 -1.5415 -1.0853
   32MOL   H58234124   6.787   5.224   5.465  2.4390 -0.6842 -1.8316
   32MOL   H58334125   7.048   5.078   5.424  2.6143  0.3473 -0.7898
   32MOL   H58434126   6.939   5.161   5.301  0.4918 -0.0241 -0.4566
   32MOL   H58534127   7.105   5.194   5.314  0.5614  2.5972  2.1753
   32MOL   H58634128   6.993   5.357   5.740 -0.8485  1.1241 -2.9693
   32MOL   H58734129   7.181   5.330   5.912 -0.3790 -1.6291 -0.7221
   32MOL   H58834130   7.448   5.220   5.600  0.1271 -0.6661  0.8856
   32MOL   H58934131   7.265   5.262   5.432 -1.0286 -0.1292 -1.1174
   32MOL   H59034132   6.989   5.544   5.573  1.1759  1.6586 -0.6996
   32MOL   H59134133   6.982   5.753   5.463  0.4026 -1.7110  1.9922
   32MOL   H59234134   6.928   5.962   5.398 -1.0720  0.7759  1.8766
   32MOL   H59334135   6.726   6.076   5.464 -0.1236 -0.2368  0.8838
   32MOL   H59434136   6.509   5.908   5.578 -1.6433  0.5834  0.2487
   32MOL   H59534137   6.459   5.676   5.683  2.0971  0.8607 -0.8230
   32MOL   C59634138   7.533   5.317   5.875  0.2621 -0.4046  0.2427
   32MOL   C59734139   7.640   5.302   5.782 -0.3155  0.1204  0.1272
   32MOL   C59834140   7.765   5.367   5.811 -0.7165 -0.4743  0.3837
   32MOL   C59934141   7.781   5.452   5.923 -0.1232 -0.4457  0.3632
   32MOL   S60034142   7.937   5.544   5.944  0.4178 -0.2663 -0.0149
   32MOL   O60134143   8.044   5.466   5.889  0.1002 -0.1353  0.7611
   32MOL   O60234144   7.940   5.604   6.077  0.4829 -0.2167  0.3817
   32MOL   C60334145   7.925   5.685   5.844 -0.5695  0.1929 -0.0724
   32MOL   C60434146   7.805   5.756   5.827  0.4670  0.1045  0.2272
   32MOL   C60534147   7.796   5.878   5.760 -0.2073 -0.5897  0.3190
   32MOL   C60634148   7.910   5.928   5.694  0.0905  0.3141  0.7500
   32MOL   O60734149   7.903   6.047   5.626 -0.8307  0.6057  0.5192
   32MOL   C60834150   7.985   6.147   5.671 -0.3387  0.6468 -0.0143
   32MOL   C60934151   7.943   6.199   5.796 -0.4059 -0.0993 -0.3703
   32MOL   C61034152   8.031   6.293   5.854 -0.2198 -0.0373 -0.5830
   32MOL   C61134153   8.145   6.335   5.792  0.0672 -0.0819  0.7312
   32MOL   C61234154   8.231   6.445   5.852  0.9980 -0.1930  0.3733
   32MOL   C61334155   8.225   6.567   5.759 -0.0981 -0.4038 -0.4505
   32MOL   C61434156   8.177   6.485   5.984  0.2016  0.3557 -0.6494
   32MOL   C61534157   0.122   6.397   5.876  0.2543  0.8080 -0.4671
   32MOL   C61634158   0.147   6.300   5.973 -0.6153 -0.2158 -0.0446
   32MOL   C61734159   0.271   6.269   6.023 -0.0323  0.0522  0.4821
   32MOL   C61834160   0.388   6.331   5.974 -0.0441  0.8704 -0.6405
   32MOL   O61934161   0.510   6.284   6.009 -0.0736  0.4386 -0.8389
   32MOL   C62034162   0.373   6.438   5.885 -0.0357  0.0075 -0.1556
   32MOL   C62134163   0.244   6.466   5.833  0.6343 -0.4956  0.2761
   32MOL   C62234164   8.182   6.280   5.668  0.4018 -0.0345 -0.1665
   32MOL   C62334165   8.110   6.177   5.608 -0.0118 -0.0147  0.1278
   32MOL   C62434166   8.034   5.856   5.707  0.4045  0.1611 -1.0488
   32MOL   C62534167   8.038   5.738   5.779  0.4225 -0.5147 -0.1419
   32MOL   C62634168   7.670   5.471   6.010  0.2108  0.0112  0.7199
   32MOL   C62734169   7.549   5.400   5.989 -0.4275  0.2805 -0.6319
   32MOL   H62834170   7.637   5.238   5.695  1.5969 -1.5749  1.2693
   32MOL   H62934171   7.855   5.344   5.756  0.8919  1.2524  2.2200
   32MOL   H63034172   7.710   5.718   5.863 -0.8289  1.7994 -1.2865
   32MOL   H63134173   7.700   5.924   5.741  0.5292  1.1197  0.6142
   32MOL   H63234174   7.854   6.160   5.842  0.9428 -2.0022  0.6920
   32MOL   H63334175   8.005   6.319   5.956  1.7889 -1.8106  0.4157
   32MOL   H63434176   8.122   6.595   5.740  0.2455  0.3789 -1.2292
   32MOL   H63534177   0.013   6.537   5.663 -0.6667 -1.6700 -0.3024
   32MOL   H63634178   0.028   6.654   5.795  0.0257 -0.0784 -1.4223
   32MOL   H63734179   8.244   6.561   6.022  1.1706 -1.1352  0.7273
   32MOL   H63834180   8.080   6.532   5.967 -0.5693 -1.1718 -0.6316
   32MOL   H63934181   8.166   6.399   6.051 -0.1861  0.5100 -0.5175
   32MOL   H64034182   0.061   6.245   6.011 -1.4103 -0.9334 -2.7962
   32MOL   H64134183   0.271   6.181   6.086  0.1757  0.0447  0.4715
   32MOL   H64234184   0.463   6.489   5.852 -0.3978  0.0924 -1.0397
   32MOL   H64334185   0.240   6.551   5.767  1.7253 -0.3352  0.4162
   32MOL   H64434186   0.022   6.309   5.622 -0.3503  2.8028  0.0216
   32MOL   H64534187   8.146   6.119   5.524 -1.5743  1.2361 -1.4202
   32MOL   H64634188   8.128   5.897   5.673 -0.3680  1.8349 -1.2083
   32MOL   H64734189   8.129   5.686   5.802  0.7403 -0.6856 -1.7552
   32MOL   H64834190   7.686   5.531   6.098  0.2882  1.6524 -0.3995
   32MOL   H64934191   7.464   5.414   6.055 -1.2993  0.0382 -1.6797
   32MOL   C65034192   0.577   6.180   5.941 -0.9940 -0.2978 -0.3165
   32MOL   C65134193   0.718   6.166   5.953  0.0572 -0.1124  0.2448
   32MOL   C65234194   0.794   6.075   5.878  0.5310 -0.2258  0.2874
   32MOL   C65334195   0.726   5.984   5.793 -0.0363 -0.4979  0.1724
   32MOL   S65434196   0.808   5.861   5.692 -0.1702 -0.2508 -0.1089
   32MOL   O65534197   0.952   5.871   5.721 -0.5594  0.3009 -0.1693
   32MOL   O65634198   0.764   5.886   5.557  0.1075 -0.3933  0.4628
   32MOL   C65734199   0.754   5.697   5.741 -0.6011 -0.3136 -0.3634
   32MOL   C65834200   0.626   5.649   5.712 -0.1610 -0.8901  0.2642
   32MOL   C65934201   0.590   5.526   5.760 -0.0850  0.1420  0.3321
   32MOL   C66034202   0.672   5.448   5.842 -0.0213 -0.7475 -0.1193
   32MOL   O66134203   0.636   5.323   5.881  0.7245 -0.4673 -0.1206
   32MOL   C66234204   0.589   5.307   6.011 -0.6380  0.0366 -0.4714
   32MOL   C66334205   0.543   5.419   6.084 -0.3548  0.4226  0.2846
   32MOL   C66434206   0.500   5.402   6.217 -0.0118  0.1966 -1.1851
   32MOL   C66534207   0.505   5.277   6.292 -0.1968 -0.3122 -0.2908
   32MOL   C66634208   0.450   5.259   6.439 -0.4665 -0.2893  0.1111
   32MOL   C66734209   0.327   5.167   6.428  0.0064 -0.0200  0.5893
   32MOL   C66834210   0.552   5.191   6.526 -0.0277 -0.6908  0.4699
   32MOL   C66934211   0.422   5.399   6.505  0.2082  0.0369 -0.2934
   32MOL   C67034212   0.293   5.446   6.533  0.1282 -0.2484 -0.3928
   32MOL   C67134213   0.270   5.559   6.619 -0.0542 -0.4106  0.6074
   32MOL   C67234214   0.382   5.635   6.671  0.0381 -0.2977 -0.0137
   32MOL   O67334215   0.362   5.731   6.763  0.2139 -0.0540  0.4199
   32MOL   C67434216   0.507   5.597   6.623  0.0508  0.0916 -0.2796
   32MOL   C67534217   0.529   5.480   6.543 -0.4002 -0.2344  0.0929
   32MOL   C67634218   0.557   5.166   6.214  0.5866 -0.8411 -1.2446
   32MOL   C67734219   0.588   5.181   6.077  0.6067  0.0721  0.3026
   32MOL   C67834220   0.804   5.494   5.867 -0.4131 -0.6270 -0.0474
   32MOL   C67934221   0.840   5.627   5.829 -0.2026 -0.0540  0.8771
   32MOL   C68034222   0.584   5.996   5.774  0.0071 -0.4604  0.5875
   32MOL   C68134223   0.513   6.094   5.850  0.2583  0.2572 -0.1087
   32MOL   H68234224   0.774   6.236   6.013 -0.2768 -0.6402  1.1768
   32MOL   H68334225   0.901   6.070   5.894  0.7733 -3.5137 -1.8301
   32MOL   H68434226   0.550   5.705   5.659  0.0744  0.7691  1.6110
   32MOL   H68534227   0.496   5.479   5.739  0.3526 -1.2287  1.3678
   32MOL   H68634228   0.538   5.520   6.046 -1.1410  0.1157 -0.4512
   32MOL   H68734229   0.486   5.492   6.275  0.5847  0.6657 -1.7710
   32MOL   H68834230   0.260   5.212   6.355  0.6313  1.0758  0.6789
   32MOL   H68934231   0.271   5.146   6.519  2.1109  1.3682  2.2714
   32MOL   H69034232   0.343   5.072   6.378 -0.9412 -0.2140  0.6367
   32MOL   H69134233   0.646   5.246   6.530  0.1096 -0.9991  2.3893
   32MOL   H69234234   0.518   5.180   6.629 -1.5804 -1.0011 -0.0626
   32MOL   H69334235   0.581   5.098   6.477 -0.5602 -0.0783 -1.0275
   32MOL   H69434236   0.208   5.391   6.497 -0.8368  1.2941 -0.5168
   32MOL   H69534237   0.167   5.584   6.642 -1.5708 -2.8987 -3.0702
   32MOL   H69634238   0.590   5.654   6.664  0.6168 -0.3056 -0.8810
   32MOL   H69734239   0.630   5.455   6.515 -0.5530 -1.0775  0.2635
   32MOL   H69834240   0.555   5.066   6.255  1.5495 -0.9792 -1.5377
   32MOL   H69934241   0.629   5.095   6.026  0.0374 -0.3373  0.5318
   32MOL   H70034242   0.875   5.434   5.922  1.0064  1.2588  0.1982
   32MOL   H70134243   0.938   5.667   5.850  0.5166 -0.3111 -1.7703
   32MOL   H70234244   0.531   5.935   5.703 -0.1101 -0.5185  0.7238
   32MOL   H70334245   0.405   6.090   5.843  0.1264  0.6693  1.4938
   32MOL   C70434246   0.303   5.852   6.725 -0.0561  0.0183  0.3364
   32MOL   C70534247   0.186   5.899   6.790  0.9717 -0.7144 -0.1230
   32MOL   C70634248   0.133   6.026   6.755  1.1441  0.0522  0.5621
   32MOL   C70734249   0.200   6.103   6.656  0.8704 -0.3525 -0.6040
   32MOL   S70834250   0.138   6.264   6.607  0.1678 -0.2353 -0.0044
   32MOL   O70934251   8.246   6.261   6.636  0.0838 -0.2050 -0.4291
   32MOL   O71034252   0.184   6.290   6.468  0.2560  0.1457 -0.1181
   32MOL   C71134253   0.221   6.380   6.723 -0.2854 -0.0741  0.2336
   32MOL   C71234254   0.352   6.362   6.768  0.3771  0.4684  0.1940
   32MOL   C71334255   0.421   6.460   6.845 -0.5291  0.3364  0.2513
   32MOL   C71434256   0.366   6.585   6.871  0.7253  0.5182 -0.2292
   32MOL   O71534257   0.418   6.674   6.962  0.1908  0.0224  0.3019
   32MOL   C71634258   0.550   6.670   6.996  0.3292 -0.4299  0.2092
   32MOL   C71734259   0.579   6.660   7.133 -0.2526  0.4935  0.3679
   32MOL   C71834260   0.714   6.651   7.181  0.4707  0.4713 -0.1587
   32MOL   C71934261   0.825   6.645   7.088  0.5673  0.6895  0.3693
   32MOL   C72034262   0.968   6.624   7.135  0.4988  0.4911 -0.2479
   32MOL   C72134263   1.072   6.625   7.017 -0.0299 -0.1860 -0.0760
   32MOL   C72234264   1.001   6.722   7.246 -0.1339  0.0868 -0.2854
   32MOL   C72334265   0.993   6.483   7.192  0.6397  0.5216 -0.4550
   32MOL   C72434266   1.093   6.463   7.295  0.0920  0.2680 -0.4085
   32MOL   C72534267   1.126   6.339   7.350 -0.1215 -0.1061 -0.1690
   32MOL   C72634268   1.054   6.227   7.304  0.3302  0.8026  0.3263
   32MOL   O72734269   1.080   6.107   7.363  0.8939  0.0724 -0.3105
   32MOL   C72834270   0.955   6.245   7.209 -0.3796  0.8986  0.0640
   32MOL   C72934271   0.923   6.367   7.147 -0.4371 -0.4404 -0.5896
   32MOL   C73034272   0.797   6.673   6.953  0.4076 -0.0872  0.4780
   32MOL   C73134273   0.660   6.682   6.910  0.4190 -0.1529  0.9523
   32MOL   C73234274   0.234   6.601   6.824  0.0313  0.1722  0.1020
   32MOL   C73334275   0.165   6.504   6.749 -0.1454 -0.2307  0.5112
   32MOL   C73434276   0.314   6.051   6.594  0.0846  0.0214 -0.3851
   32MOL   C73534277   0.368   5.931   6.627 -0.1449 -0.1828 -0.5927
   32MOL   H73634278   0.147   5.847   6.876  2.8055 -1.8706  0.0456
   32MOL   H73734279   0.045   6.067   6.803 -0.5514 -0.5249 -1.9070
   32MOL   H73834280   0.402   6.269   6.745  0.9123  0.5519  0.9884
   32MOL   H73934281   0.522   6.442   6.878 -1.5161 -0.3889  3.0347
   32MOL   H74034282   0.498   6.659   7.204 -0.4934 -1.4921  0.1064
   32MOL   H74134283   0.730   6.637   7.287 -3.3929  2.8009  0.8359
   32MOL   H74234284   1.175   6.611   7.049 -0.2310  2.6362  1.9651
   32MOL   H74334285   1.076   6.717   6.959  0.4802 -0.2721 -0.1791
   32MOL   H74434286   1.044   6.545   6.948  0.3196 -0.2392 -0.1578
   32MOL   H74534287   0.948   6.708   7.340  1.9586  0.1636  0.9308
   32MOL   H74634288   1.108   6.722   7.265 -0.2673 -1.6398  0.6396
   32MOL   H74734289   0.989   6.820   7.200  1.3486  0.3380 -0.1426
   32MOL   H74834290   1.159   6.544   7.323  1.8491 -1.5767  0.8791
   32MOL   H74934291   1.197   6.319   7.428 -0.0012  1.3948  0.1219
   32MOL   H75034292   0.881   6.171   7.184  1.0884  0.1605 -2.2921
   32MOL   H75134293   0.850   6.368   7.067 -1.8821 -0.5636  0.7081
   32MOL   H75234294   0.871   6.676   6.874  0.2552 -3.5825  0.0985
   32MOL   H75334295   0.642   6.713   6.808 -1.1889  2.2716  1.9293
   32MOL   H75434296   0.174   6.689   6.840 -0.6937 -0.0888 -1.1080
   32MOL   H75534297   0.071   6.531   6.703 -0.4846 -3.2954 -0.7040
   32MOL   H75634298   0.369   6.118   6.529 -0.7843  2.1411  1.0094
   32MOL   H75734299   0.462   5.895   6.589 -0.2597 -0.2458 -0.8170
   32MOL   C75834300   1.172   6.027   7.304 -0.4915  0.0097 -0.5397
   32MOL   C75934301   1.164   5.889   7.332  0.1174 -0.5278  0.2788
   32MOL   C76034302   1.268   5.804   7.292  0.5971  0.0610  0.0300
   32MOL   C76134303   1.380   5.856   7.222 -0.1826  0.3500 -0.3882
   32MOL   S76234304   1.515   5.746   7.207 -0.3617  0.3473  0.4585
   32MOL   O76334305   1.483   5.659   7.093  0.2045  0.2252 -0.0693
   32MOL   O76434306   1.531   5.677   7.342  0.1881 -0.2567 -0.2435
   32MOL   C76534307   1.654   5.850   7.176 -0.2660 -0.8197 -0.1850
   32MOL   C76634308   1.744   5.869   7.282  0.1455 -0.7389  0.3181
   32MOL   C76734309   1.863   5.942   7.258  0.2494 -0.1115 -0.6701
   32MOL   C76834310   1.889   6.005   7.131  0.7091  0.1653 -0.7394
   32MOL   O76934311   1.995   6.095   7.118  0.9059  0.0376  0.2773
   32MOL   C77034312   2.102   6.031   7.052 -0.3391 -0.3136 -0.3246
   32MOL   C77134313   2.157   6.106   6.945  0.4029  0.1129  0.1628
   32MOL   C77234314   2.264   6.057   6.872 -0.2344  0.2659  0.3020
   32MOL   C77334315   2.329   5.938   6.916 -0.5394 -0.0843  0.5176
   32MOL   C77434316   2.458   5.892   6.842 -0.5609  0.8272 -0.2309
   32MOL   C77534317   2.562   6.006   6.855 -0.1294  0.1040  0.2164
   32MOL   C77634318   2.517   5.760   6.899 -0.1025  0.3830  0.1346
   32MOL   C77734319   2.437   5.862   6.687 -0.3082 -0.4242  0.2978
   32MOL   C77834320   2.310   5.846   6.631 -0.5150 -0.7948  0.5204
   32MOL   C77934321   2.303   5.824   6.499 -0.6223  0.1101 -0.5709
   32MOL   C78034322   2.412   5.809   6.413 -0.5814  0.2782 -0.1056
   32MOL   O78134323   2.399   5.780   6.283  0.3253 -0.1523  0.4832
   32MOL   C78234324   2.539   5.818   6.468 -0.1021  0.7351 -0.2795
   32MOL   C78334325   2.551   5.849   6.602  0.5208  0.3476 -0.4896
   32MOL   C78434326   2.278   5.869   7.027 -0.0645 -0.1597  0.4895
   32MOL   C78534327   2.165   5.911   7.095 -0.1061 -0.5264  0.1182
   32MOL   C78634328   1.792   5.986   7.026  0.3815  0.7051 -0.0833
   32MOL   C78734329   1.676   5.907   7.048 -0.8196  0.2237 -0.0564
   32MOL   C78834330   1.382   5.990   7.186 -0.0292 -0.1063 -0.4661
   32MOL   C78934331   1.280   6.075   7.227 -0.0713 -0.0430  0.6257
   32MOL   H79034332   1.073   5.849   7.375 -0.9011 -0.7002 -1.9854
   32MOL   H79134333   1.271   5.698   7.312 -0.1799 -0.2378 -1.4156
   32MOL   H79234334   1.736   5.825   7.380 -0.8352 -0.7248  0.2530
   32MOL   H79334335   1.930   5.960   7.340  1.7368 -0.3763 -1.8101
   32MOL   H79434336   2.114   6.200   6.913  0.5649  0.3750  0.6975
   32MOL   H79534337   2.305   6.115   6.790 -1.8428  0.7630 -0.1502
   32MOL   H79634338   2.538   6.091   6.790  0.2732  0.2190  0.2151
   32MOL   H79734339   2.663   5.980   6.823 -0.1993  2.0769 -1.7616
   32MOL   H79834340   2.573   6.042   6.957 -0.7821 -0.1052  0.3624
   32MOL   H79934341   2.605   5.728   6.843 -0.6181 -0.5354 -0.1715
   32MOL   H80034342   2.523   5.760   7.008  0.5958 -1.1959  0.1055
   32MOL   H80134343   2.449   5.675   6.889  2.0558 -1.2976 -0.4720
   32MOL   H80234344   2.220   5.860   6.689 -2.3644  0.6226 -2.5953
   32MOL   H80334345   2.205   5.810   6.456 -0.2940 -1.3005 -0.8762
   32MOL   H80434346   2.621   5.786   6.405  0.3072 -1.0623  1.1079
   32MOL   H80534347   2.648   5.846   6.650 -0.5242  1.5452  1.7759
   32MOL   H80634348   2.325   5.783   7.072 -1.2105 -1.1673 -0.2044
   32MOL   H80734349   2.128   5.847   7.174  1.7177 -2.9804 -0.9363
   32MOL   H80834350   1.812   6.040   6.934  0.4705  0.2900 -0.3111
   32MOL   H80934351   1.617   5.881   6.961  1.7033 -1.4062 -1.3368
   32MOL   H81034352   1.470   6.041   7.151 -0.8113  3.2058  2.1737
   32MOL   H81134353   1.298   6.182   7.223  1.4886 -0.2740  1.1685
   32MOL   C81234354   2.387   5.650   6.238  0.3439  0.4959 -0.8645
   32MOL   C81334355   2.326   5.546   6.318  0.0453 -0.0227  1.1779
   32MOL   C81434356   2.319   5.419   6.261  0.5693 -0.2717 -0.9674
   32MOL   C81534357   2.375   5.391   6.137  0.0113 -0.1228 -0.3899
   32MOL   S81634358   2.349   5.230   6.063  0.0088 -0.4097  0.3202
   32MOL   O81734359   2.479   5.165   6.039  0.0840 -0.0388 -0.1207
   32MOL   O81834360   2.248   5.242   5.957  0.4747 -0.1809 -0.1098
   32MOL   C81934361   2.276   5.123   6.194  0.4517  0.5930  0.4612
   32MOL   C82034362   2.140   5.086   6.185  0.2326  0.3774 -0.7750
   32MOL   C82134363   2.080   5.019   6.293  0.1996  0.0661  0.0434
   32MOL   C82234364   2.157   4.979   6.406  0.3331  0.6221  0.7587
   32MOL   O82334365   2.105   4.903   6.504  0.2647 -0.0608  0.0878
   32MOL   C82434366   2.181   4.807   6.570  0.0386  0.0998  0.1151
   32MOL   C82534367   2.237   4.835   6.698 -0.2719  0.3965 -0.6006
   32MOL   C82634368   2.314   4.734   6.756 -0.4122 -0.6079 -0.2310
   32MOL   C82734369   2.334   4.610   6.691  0.0911 -0.1838  0.7036
   32MOL   C82834370   2.414   4.492   6.748 -0.4423 -0.5228  0.6357
   32MOL   C82934371   2.499   4.413   6.644  0.2692  0.5703  0.3335
   32MOL   C83034372   2.521   4.537   6.849 -1.1275  0.1205 -0.3607
   32MOL   C83134373   2.309   4.396   6.823  0.7662  0.1506 -0.0615
   32MOL   C83234374   2.222   4.465   6.912 -0.3149 -0.3686  0.7177
   32MOL   C83334375   2.113   4.399   6.963 -0.1282 -0.2170 -0.0005
   32MOL   C83434376   2.088   4.264   6.935 -0.7518 -0.2000  0.1015
   32MOL   O83534377   1.976   4.211   6.990 -0.2132 -0.4274  0.4399
   32MOL   C83634378   2.177   4.188   6.860  0.1137 -0.2305 -0.6751
   32MOL   C83734379   2.282   4.258   6.792 -0.2823  0.4678 -0.7892
   32MOL   C83834380   2.271   4.583   6.566 -0.1824 -0.3925 -0.5061
   32MOL   C83934381   2.193   4.685   6.506 -0.4806  0.5111 -0.1055
   32MOL   C84034382   2.294   5.016   6.407  0.3658 -0.1313  0.1336
   32MOL   C84134383   2.353   5.091   6.307 -0.5532 -0.2774 -0.2234
   32MOL   C84234384   2.436   5.491   6.060 -0.5687 -0.1048  0.3374
   32MOL   C84334385   2.444   5.623   6.117 -0.1005 -0.2921 -0.4589
   32MOL   H84434386   2.297   5.564   6.421 -0.2641 -1.6368  1.3858
   32MOL   H84534387   2.273   5.347   6.327 -0.8711  1.2858 -0.2313
   32MOL   H84634388   2.072   5.107   6.103 -1.2432 -0.7782  0.1138
   32MOL   H84734389   1.977   4.989   6.288 -0.3005  1.9692 -1.4335
   32MOL   H84834390   2.230   4.928   6.751  2.0051 -0.0050  0.4398
   32MOL   H84934391   2.355   4.747   6.855 -1.5115 -1.2831  0.3245
   32MOL   H85034392   2.549   4.332   6.698 -0.1776 -0.0215 -0.1373
   32MOL   H85134393   2.574   4.471   6.590  1.9567 -2.8531 -1.1868
   32MOL   H85234394   2.434   4.364   6.572  1.4164  2.3956 -1.9884
   32MOL   H85334395   2.600   4.598   6.805 -1.1875  0.4378 -0.0285
   32MOL   H85434396   2.479   4.588   6.935  1.1895  0.9216  0.3160
   32MOL   H85534397   2.561   4.455   6.909 -3.2861 -2.2554 -2.0273
   32MOL   H85634398   2.229   4.570   6.938 -1.1313 -0.0196 -0.4282
   32MOL   H85734399   2.052   4.447   7.038  1.8445  2.7816 -0.2077
   32MOL   H85834400   2.154   4.088   6.827 -3.3550  0.5827 -0.8589
   32MOL   H85934401   2.343   4.201   6.724 -0.4899  0.5766 -1.0696
   32MOL   H86034402   2.267   4.488   6.514  1.3260 -0.8821  0.2434
   32MOL   H86134403   2.160   4.663   6.405 -0.0234 -1.0810  0.0672
   32MOL   H86234404   2.357   4.986   6.490  2.1728  0.9363 -0.8193
   32MOL   H86334405   2.459   5.108   6.308 -0.5450 -0.0817 -2.1651
   32MOL   H86434406   2.470   5.461   5.962 -0.6184 -0.2569  0.3667
   32MOL   H86534407   2.488   5.701   6.058  0.1489  1.2354  1.7074
   32MOL   C86634408   1.992   4.078   7.022 -0.1702  0.1746  0.6592
   32MOL   C86734409   1.932   3.980   6.942 -0.5022  0.3545 -0.1554
   32MOL   C86834410   1.928   3.849   6.989 -0.7178 -0.8699  0.4034
   32MOL   C86934411   1.990   3.812   7.114 -0.7914  0.0042  0.0413
   32MOL   S87034412   1.968   3.649   7.177  0.5486  0.1441  0.0765
   32MOL   O87134413   2.102   3.594   7.208  0.2523 -0.1400 -0.4913
   32MOL   O87234414   1.883   3.570   7.083 -0.2200 -0.3948 -0.4150
   32MOL   C87334415   1.889   3.663   7.339  0.4411 -0.2887 -0.0681
   32MOL   C87434416   1.799   3.771   7.364 -0.1532 -0.0997 -0.2543
   32MOL   C87534417   1.738   3.778   7.488 -0.1571  0.4052  0.8493
   32MOL   C87634418   1.765   3.692   7.595 -0.0434  0.1591  0.3759
   32MOL   O87734419   1.685   3.690   7.706 -0.0713  0.3087 -0.3126
   32MOL   C87834420   1.611   3.576   7.724  0.2315 -0.0513  0.0663
   32MOL   C87934421   1.490   3.550   7.656 -0.2657  0.4023 -0.0880
   32MOL   C88034422   1.426   3.422   7.654  0.3647  0.1153  0.0550
   32MOL   C88134423   1.491   3.322   7.734  0.5638  0.3178  0.1280
   32MOL   C88234424   1.438   3.171   7.732 -0.2396  1.3937  0.2002
   32MOL   C88334425   1.558   3.072   7.732  0.1971  0.1228 -0.2531
   32MOL   C88434426   1.359   3.142   7.860  0.0310  0.3521 -0.0085
   32MOL   C88534427   1.356   3.146   7.601  0.0479  0.9031  0.4832
   32MOL   C88634428   1.221   3.113   7.606 -0.6545  0.1191 -0.2824
   32MOL   C88734429   1.138   3.091   7.497 -0.1531 -0.4436  0.4409
   32MOL   C88834430   1.186   3.102   7.367 -0.5260 -0.4629 -0.5862
   32MOL   O88934431   1.111   3.085   7.256  0.0603 -0.2566  0.2319
   32MOL   C89034432   1.322   3.130   7.352  0.1502  0.0462  0.3548
   32MOL   C89134433   1.412   3.143   7.466 -0.2305 -0.5123  0.0787
   32MOL   C89234434   1.607   3.349   7.814 -0.8387  0.5372  0.2889
   32MOL   C89334435   1.667   3.472   7.808  0.2335  0.5055  0.6508
   32MOL   C89434436   1.870   3.600   7.575 -0.5424 -0.2470 -0.3818
   32MOL   C89534437   1.930   3.586   7.448 -0.4119  0.2411 -0.1341
   32MOL   C89634438   2.053   3.910   7.194  0.2062  0.2751  0.3344
   32MOL   C89734439   2.059   4.041   7.142  0.2624 -0.9658  1.1383
   32MOL   H89834440   1.878   4.012   6.855 -0.8822  1.5692  0.5132
   32MOL   H89934441   1.878   3.768   6.939  0.7447 -2.0128  0.7292
   32MOL   H90034442   1.763   3.834   7.284 -1.4880  1.8003  1.7606
   32MOL   H90134443   1.665   3.856   7.500 -0.0902  0.2856  2.1141
   32MOL   H90234444   1.447   3.632   7.600  0.4539  0.3585 -0.7168
   32MOL   H90334445   1.344   3.396   7.589 -0.1344 -0.5958  0.9601
   32MOL   H90434446   1.609   3.081   7.828  0.3864 -0.2034 -0.3194
   32MOL   H90534447   1.638   3.093   7.661 -1.7051  2.2829 -1.8445
   32MOL   H90634448   1.525   2.969   7.721  0.5489 -0.0672  0.4899
   32MOL   H90734449   1.420   3.140   7.950  1.4672 -0.9333 -0.9776
   32MOL   H90834450   1.279   3.214   7.872 -0.3377  0.2825 -1.9054
   32MOL   H90934451   1.310   3.045   7.853 -0.8012  0.7919 -0.3180
   32MOL   H91034452   1.167   3.120   7.699 -2.7998 -1.4769 -1.3781
   32MOL   H91134453   1.032   3.074   7.510 -0.0689 -2.6172 -1.4488
   32MOL   H91234454   1.361   3.121   7.252  0.0196  1.3679  0.1728
   32MOL   H91334455   1.517   3.139   7.439  0.1157 -0.3402  1.3712
   32MOL   H91434456   1.647   3.274   7.880 -0.3732 -0.7571 -1.4263
   32MOL   H91534457   1.756   3.492   7.865  0.5474 -0.8800  0.6765
   32MOL   H91634458   1.890   3.527   7.652 -1.1032 -2.9914 -2.7520
   32MOL   H91734459   1.994   3.500   7.434 -1.3702 -0.5548  0.2838
   32MOL   H91834460   2.092   3.894   7.293  0.9718 -0.1058 -0.0228
   32MOL   H91934461   2.114   4.105   7.209  1.0062 -3.0910  2.6358
   32MOL   C92034462   0.987   3.144   7.246  0.4112 -0.4938 -0.6921
   32MOL   C92134463   0.956   3.266   7.310  0.3025  0.2238  0.6851
   32MOL   C92234464   0.826   3.318   7.303 -0.1516 -0.1243  0.1440
   32MOL   C92334465   0.717   3.248   7.249  0.7612 -0.6486  0.0755
   32MOL   S92434466   0.559   3.318   7.247  0.0145 -0.1985 -0.1779
   32MOL   O92534467   0.511   3.351   7.381 -0.3670 -0.2420  0.1780
   32MOL   O92634468   0.478   3.245   7.146 -0.3075  0.4126 -0.6412
   32MOL   C92734469   0.594   3.477   7.178  0.4550  0.6180 -0.5618
   32MOL   C92834470   0.583   3.593   7.259 -0.1380  0.2494 -0.6234
   32MOL   C92934471   0.612   3.722   7.206  0.0365  1.0475 -0.7190
   32MOL   C93034472   0.642   3.731   7.065  0.1127 -0.0252  0.2847
   32MOL   O93134473   0.662   3.855   7.011 -0.1387 -0.0354 -0.4418
   32MOL   C93234474   0.756   3.940   7.066  0.0933  0.3260  0.7928
   32MOL   C93334475   0.739   4.083   7.054 -0.1675 -0.4746  0.4444
   32MOL   C93434476   0.844   4.171   7.093 -0.3194  0.1373  0.1712
   32MOL   C93534477   0.968   4.123   7.142  0.6485  0.3115 -0.8080
   32MOL   C93634478   1.091   4.213   7.168  0.9310  0.2933 -0.3704
   32MOL   C93734479   1.067   4.356   7.122  0.3985 -0.1235 -0.4577
   32MOL   C93834480   1.103   4.212   7.322  0.8225  0.3501 -0.3490
   32MOL   C93934481   1.210   4.154   7.094  0.1617 -0.2968 -0.0012
   32MOL   C94034482   1.200   4.143   6.954  0.4247  0.1649  0.1981
   32MOL   C94134483   1.311   4.087   6.879  0.1199 -0.2837 -0.1679
   32MOL   C94234484   1.413   4.019   6.952  0.1855  0.0899 -0.3402
   32MOL   O94334485   1.522   3.979   6.880 -0.1892  0.1602 -0.0064
   32MOL   C94434486   1.415   4.015   7.088 -0.4687  0.2800  0.1484
   32MOL   C94534487   1.311   4.081   7.156 -0.1446  0.2039 -0.4643
   32MOL   C94634488   0.974   3.983   7.169  0.1731 -0.7043 -0.5679
   32MOL   C94734489   0.872   3.893   7.128 -0.6129  0.0580  0.4073
   32MOL   C94834490   0.640   3.620   6.986  0.1995  0.5887  0.2157
   32MOL   C94934491   0.620   3.490   7.039  0.7501 -0.2209  0.2051
   32MOL   C95034492   0.752   3.130   7.178  0.5353  0.7311 -0.7577
   32MOL   C95134493   0.883   3.081   7.169 -0.1874  0.3856  0.1545
   32MOL   H95234494   1.026   3.321   7.370  0.4612 -0.1448  0.8397
   32MOL   H95334495   0.808   3.415   7.345 -1.3891  0.5428 -1.8595
   32MOL   H95434496   0.562   3.583   7.364 -0.1545 -3.2452 -0.8759
   32MOL   H95534497   0.614   3.805   7.275  2.2777 -0.6907  1.4004
   32MOL   H95634498   0.646   4.133   7.031  0.1395  1.0518  2.4440
   32MOL   H95734499   0.826   4.277   7.086 -0.9241  0.0530  0.3919
   32MOL   H95834500   0.982   4.399   7.177 -0.9935 -1.5315 -1.4763
   32MOL   H95934501   1.058   4.368   7.014  3.4050 -0.0560 -0.7437
   32MOL   H96034502   1.148   4.428   7.129 -0.7452  1.1916 -0.4918
   32MOL   H96134503   1.018   4.260   7.369 -0.6669 -1.1796 -1.4122
   32MOL   H96234504   1.107   4.110   7.362  0.3200 -0.4454 -2.2622
   32MOL   H96334505   1.190   4.269   7.356  0.5841 -0.9022  2.5191
   32MOL   H96434506   1.117   4.193   6.907  1.0320  1.9815  1.0406
   32MOL   H96534507   1.314   4.095   6.771  1.5970 -0.1707 -0.1220
   32MOL   H96634508   1.491   3.964   7.144  0.3607  0.6755 -0.6126
   32MOL   H96734509   1.308   4.076   7.264  0.2607 -0.1245 -0.4665
   32MOL   H96834510   1.065   3.946   7.214 -0.3490 -2.2939 -0.7809
   32MOL   H96934511   0.884   3.787   7.143 -1.1382 -0.3779 -1.9788
   32MOL   H97034512   0.650   3.641   6.880 -1.5352  3.3640  0.5538
   32MOL   H97134513   0.619   3.407   6.970 -2.9545 -0.9104  1.0122
   32MOL   H97234514   0.670   3.085   7.125 -1.3791  0.2140  2.5242
   32MOL   H97334515   0.897   2.992   7.109 -0.7491  0.8460 -0.6715
   32MOL   C97434516   1.529   3.844   6.846 -0.9519  0.6772 -0.2059
   32MOL   C97534517   1.601   3.750   6.931  0.5512 -0.6205  0.4309
   32MOL   C97634518   1.622   3.618   6.888 -0.0742 -0.7680  0.1750
   32MOL   C97734519   1.564   3.579   6.762 -0.4004  0.3234 -0.3823
   32MOL   S97834520   1.582   3.410   6.710  0.1896 -0.0114  0.0805
   32MOL   O97934521   1.476   3.375   6.614  0.6528 -0.6326 -0.8951
   32MOL   O98034522   1.601   3.324   6.826 -0.1512  0.7459  0.3000
   32MOL   C98134523   1.733   3.402   6.615  0.2366  0.3294  0.7139
   32MOL   C98234524   1.864   3.401   6.668 -0.2054  0.0613 -0.4293
   32MOL   C98334525   1.975   3.395   6.581 -1.2236 -0.7616  0.1616
   32MOL   C98434526   1.953   3.396   6.441 -0.0369 -0.9701  0.3826
   32MOL   O98534527   2.061   3.399   6.353 -0.1628 -0.0296  0.7773
   32MOL   C98634528   2.071   3.287   6.271  0.1745 -0.5757 -0.6904
   32MOL   C98734529   2.043   3.293   6.135  0.4455 -0.4380  0.5095
   32MOL   C98834530   2.049   3.178   6.059 -0.5841  0.3629 -0.1436
   32MOL   C98934531   2.075   3.050   6.118 -0.2099  0.5773  0.2789
   32MOL   C99034532   2.072   2.921   6.030  0.7099  0.0463 -0.2948
   32MOL   C99134533   2.217   2.895   6.007 -0.2164  0.3933 -1.1362
   32MOL   C99234534   2.014   2.795   6.103 -0.0096 -0.2034 -0.1972
   32MOL   C99334535   2.000   2.938   5.894  0.1386 -0.3584  0.5041
   32MOL   C99434536   2.063   2.985   5.776  0.1892 -0.4185  0.0740
   32MOL   C99534537   1.986   3.016   5.657  0.4148 -0.8780  0.5522
   32MOL   C99634538   1.850   2.990   5.652  0.8072 -0.1336 -0.0815
   32MOL   O99734539   1.779   3.027   5.540  0.1741 -0.3128 -0.1439
   32MOL   C99834540   1.790   2.941   5.767  0.5410  0.4927  0.1680
   32MOL   C99934541   1.859   2.911   5.888 -0.3115 -0.2837 -0.0037
   32MOL     C134542   2.123   3.047   6.248 -0.4809 -0.7036  0.4229
   32MOL     C234543   2.112   3.160   6.327 -0.1300 -0.3747 -0.3999
   32MOL     C334544   1.831   3.406   6.386  0.1142 -0.2147  0.2733
   32MOL     C434545   1.711   3.410   6.470  0.3378 -0.4350 -0.1141
   32MOL     C534546   1.490   3.670   6.681  0.1247  0.0595 -0.4056
   32MOL     C634547   1.474   3.800   6.724 -0.8829 -0.6196 -0.5578
   32MOL     H734548   1.662   3.783   7.014 -0.3601  1.9697  0.1008
   32MOL     H834549   1.688   3.552   6.943  0.8438  0.1271  0.1590
   32MOL     H934550   1.877   3.396   6.775 -0.8232 -1.7181 -0.4336
   32MOL    H1034551   2.071   3.380   6.628 -2.5082 -2.5467  2.3549
   32MOL    H1134552   2.041   3.387   6.082 -1.2252 -0.8202 -0.1329
   32MOL    H1234553   2.037   3.190   5.952 -3.7689  0.5634  0.2009
   32MOL    H1334554   2.277   2.861   6.091 -0.8454  0.4854 -0.6495
   32MOL    H1434555   2.272   2.982   5.971  0.2674  0.0769 -1.1633
   32MOL    H1534556   2.238   2.818   5.932  2.5210 -0.0393  0.0082
   32MOL    H1634557   1.909   2.799   6.132  0.0877  0.7329  0.0246
   32MOL    H1734558   2.022   2.713   6.032 -0.9341  0.0894 -0.6518
   32MOL    H1834559   2.059   2.758   6.195 -0.5091 -1.5985 -0.5039
   32MOL    H1934560   2.171   2.991   5.774  0.4532 -4.1814 -2.1312
   32MOL    H2034561   2.037   3.060   5.573 -0.7017 -1.8137 -0.6294
   32MOL    H2134562   1.686   2.911   5.762  0.3805  0.8678  1.0639
   32MOL    H2234563   1.797   2.889   5.974  1.2007 -0.6699  1.0002
   32MOL    H2334564   2.157   2.958   6.299  3.2270 -0.0815 -0.8358
   32MOL    H2434565   2.122   3.158   6.435  0.2481  0.7494 -0.4067
   32MOL    H2534566   1.827   3.408   6.279  1.3011 -2.9435  0.1368
   32MOL    H2634567   1.611   3.413   6.429  0.1479 -2.3741  0.1736
   32MOL    H2734568   1.455   3.645   6.582 -0.2185  1.0943 -0.5464
   32MOL    H2834569   1.411   3.869   6.670 -2.6315  0.0565  2.2352
   32MOL    C2934570   1.712   3.146   5.529  0.1442 -0.1066  0.5620
   32MOL    C3034571   1.766   3.249   5.448 -0.6446  0.1736 -0.2595
   32MOL    C3134572   1.701   3.376   5.445 -0.5148  0.2268  0.3981
   32MOL    C3234573   1.578   3.396   5.509  0.0112 -0.2882  0.3332
   32MOL    S3334574   1.496   3.553   5.498 -0.1437 -0.0801  0.5257
   32MOL    O3434575   1.504   3.578   5.355  0.1092 -0.3173  0.0834
   32MOL    O3534576   1.558   3.650   5.589 -0.7022  0.3786 -0.4052
   32MOL    C3634577   1.320   3.546   5.525  0.7867  0.1945  0.1918
   32MOL    C3734578   1.247   3.660   5.573 -0.0673 -0.2988 -0.1676
   32MOL    C3834579   1.106   3.660   5.569  0.0748 -0.3675 -0.5670
   32MOL    C3934580   1.037   3.542   5.532  0.2945 -0.3259 -0.3374
   32MOL    O4034581   0.903   3.533   5.546  0.2780 -0.9257 -0.5074
   32MOL    C4134582   0.829   3.508   5.432  0.0804  0.0122 -0.1653
   32MOL    C4234583   0.777   3.605   5.346  0.5604  0.0229 -0.6852
   32MOL    C4334584   0.712   3.575   5.227 -0.0046 -0.3468  1.2029
   32MOL    C4434585   0.690   3.444   5.183 -0.5480 -0.3275 -1.0066
   32MOL    C4534586   0.625   3.413   5.051  0.5032 -0.3483 -0.8716
   32MOL    C4634587   0.591   3.539   4.962  0.3917 -0.1824  0.2168
   32MOL    C4734588   0.731   3.320   4.978  0.8743 -0.3469  0.5367
   32MOL    C4834589   0.485   3.350   5.081 -0.6259  0.4427  0.5920
   32MOL    C4934590   0.388   3.412   5.166  0.5373  0.4342 -0.0331
   32MOL    C5034591   0.275   3.341   5.207  0.5497 -0.3158 -0.2603
   32MOL    C5134592   0.243   3.217   5.144  0.7540 -0.3716 -0.1628
   32MOL    O5234593   0.125   3.147   5.167 -0.4500  0.3167 -0.4270
   32MOL    C5334594   0.326   3.171   5.043 -0.0150  0.3025  0.6562
   32MOL    C5434595   0.440   3.239   5.002 -0.9593 -0.1086  0.4774
   32MOL    C5534596   0.724   3.340   5.272 -0.1765  0.2472  0.6449
   32MOL    C5634597   0.799   3.375   5.393  0.2535 -0.2149 -0.0613
   32MOL    C5734598   1.111   3.431   5.491 -0.1463 -0.2068 -0.1506
   32MOL    C5834599   1.251   3.436   5.481  0.1999  0.1013 -0.3691
   32MOL    C5934600   1.518   3.289   5.580 -0.3152 -0.1519 -0.0995
   32MOL    C6034601   1.584   3.166   5.588  0.2378 -0.1437 -0.3162
   32MOL    H6134602   1.856   3.240   5.390  0.0818 -0.7942  0.9923
   32MOL    H6234603   1.752   3.452   5.388 -1.9981  0.4108 -0.7089
   32MOL    H6334604   1.317   3.738   5.603  1.4249 -0.8958 -1.9867
   32MOL    H6434605   1.055   3.751   5.597  1.0382  0.4890 -1.5464
   32MOL    H6534606   0.786   3.709   5.375 -2.1326  0.1704 -0.2320
   32MOL    H6634607   0.684   3.657   5.162  1.5571 -1.6265 -1.1689
   32MOL    H6734608   0.543   3.509   4.869  2.4292 -1.5304 -0.4264
   32MOL    H6834609   0.683   3.595   4.942  0.4985  0.9625  3.5551
   32MOL    H6934610   0.523   3.613   5.005  0.7944 -0.1851  0.8616
   32MOL    H7034611   0.742   3.221   5.024 -1.1948 -1.2572 -0.8778
   32MOL    H7134612   0.715   3.295   4.873  1.6621  0.5210  0.2001
   32MOL    H7234613   0.826   3.372   4.968  0.7825 -0.0832  1.0533
   32MOL    H7334614   0.411   3.505   5.216  0.8428 -0.0777  0.7867
   32MOL    H7434615   0.216   3.376   5.290 -0.2316  1.2551 -1.4257
   32MOL    H7534616   0.305   3.080   4.990  1.6237 -0.2707  0.9678
   32MOL    H7634617   0.497   3.210   4.915  1.7789  2.1683  1.4262
   32MOL    H7734618   0.697   3.238   5.247  0.0862  0.6699 -1.4122
   32MOL    H7834619   0.844   3.296   5.450  0.8671  0.6656  0.6744
   32MOL    H7934620   1.065   3.336   5.467 -0.5694  0.3104 -1.4377
   32MOL    H8034621   1.303   3.356   5.431 -0.5383 -0.1710 -0.7179
   32MOL    H8134622   1.417   3.284   5.619  0.6347 -0.2303  2.4286
   32MOL    H8234623   1.539   3.085   5.644  1.7103 -0.3976  0.5127
   32MOL    H8334624   0.079   3.189   5.238 -0.6644 -0.3537 -0.1698
   33MOL     C134625   7.360   2.161   1.273  0.1466  0.1868 -0.9707
   33MOL     C234626   7.280   2.111   1.381  0.4521 -0.4700  0.4584
   33MOL     C334627   7.347   2.060   1.494 -0.4134 -0.4058  0.0603
   33MOL     C434628   7.488   2.076   1.502 -0.1299 -0.8399 -0.2875
   33MOL     S534629   7.580   2.033   1.658 -0.1702 -0.3787 -0.0250
   33MOL     O634630   7.561   2.141   1.753 -0.1780 -0.1356 -0.3338
   33MOL     O734631   7.715   1.983   1.624 -0.6076  0.7456  0.2090
   33MOL     C834632   7.489   1.883   1.716 -0.2812 -0.4393  0.0043
   33MOL     C934633   7.492   1.768   1.640 -0.4837  0.2265  0.3558
   33MOL    C1034634   7.448   1.643   1.686 -0.3744 -0.4598 -0.2021
   33MOL    C1134635   7.389   1.639   1.813  0.3510  0.7548  0.0816
   33MOL    O1234636   7.341   1.516   1.860 -0.3480 -0.9684  0.4717
   33MOL    C1334637   7.360   1.482   1.996 -0.6074  0.8416  0.3781
   33MOL    C1434638   7.486   1.457   2.043  0.0603  0.3767 -0.1252
   33MOL    C1534639   7.510   1.452   2.179  0.0610 -0.1097 -0.5630
   33MOL    C1634640   7.409   1.461   2.275  0.3714 -1.0845  0.1201
   33MOL    C1734641   7.417   1.436   2.434 -0.7049  0.2507  0.0945
   33MOL    C1834642   7.562   1.404   2.470  0.2927  0.1770  0.0787
   33MOL    C1934643   7.387   1.569   2.502 -0.2589 -1.0543 -0.3215
   33MOL    C2034644   7.325   1.323   2.473  0.2908 -0.4962  0.2569
   33MOL    C2134645   7.288   1.224   2.383 -0.0695 -0.4761 -0.3226
   33MOL    C2234646   7.219   1.113   2.425 -0.2805  0.1500  0.3129
   33MOL    C2334647   7.171   1.103   2.558 -0.5892  0.6990 -0.4564
   33MOL    O2434648   7.101   1.000   2.605  0.0975 -0.1025 -0.7686
   33MOL    C2534649   7.193   1.206   2.650 -0.0844  0.3970  0.0588
   33MOL    C2634650   7.277   1.304   2.605 -0.6352 -1.0999 -0.1490
   33MOL    C2734651   7.277   1.485   2.227 -0.1034 -0.1524 -0.6661
   33MOL    C2834652   7.250   1.494   2.088  0.2419  0.1809 -0.5255
   33MOL    C2934653   7.378   1.757   1.886  0.8118 -0.1160 -0.4386
   33MOL    C3034654   7.447   1.877   1.847  0.1372 -0.4221 -0.2174
   33MOL    C3134655   7.562   2.130   1.392  0.0309  0.2909 -0.0546
   33MOL    C3234656   7.499   2.177   1.275  0.2074 -0.1409  0.4114
   33MOL    H3334657   7.172   2.111   1.376  0.4457 -0.4702  0.5787
   33MOL    H3434658   7.285   2.021   1.574 -1.4297  0.3972 -0.3431
   33MOL    H3534659   7.535   1.774   1.542 -1.1555  0.7206  0.0882
   33MOL    H3634660   7.442   1.562   1.614  1.9611  0.3337 -1.3474
   33MOL    H3734661   7.569   1.452   1.976 -0.6208 -1.7781 -0.8300
   33MOL    H3834662   7.614   1.438   2.206  0.7729  2.2030 -1.9242
   33MOL    H3934663   7.613   1.328   2.411 -1.3203 -0.1250 -0.9550
   33MOL    H4034664   7.563   1.376   2.575  1.5851 -1.4015 -0.3422
   33MOL    H4134665   7.622   1.495   2.466  1.2299 -0.4514 -0.6040
   33MOL    H4234666   7.449   1.647   2.458  0.6554 -1.8855 -0.5260
   33MOL    H4334667   7.282   1.597   2.496 -0.2779 -1.0828 -0.0948
   33MOL    H4434668   7.418   1.562   2.606  1.9200  1.5115 -0.7506
   33MOL    H4534669   7.340   1.220   2.288 -2.5748 -0.2486 -1.7211
   33MOL    H4634670   7.208   1.030   2.357 -0.1319 -0.1828  0.6896
   33MOL    H4734671   7.164   1.195   2.753 -0.9516  0.6730 -0.1445
   33MOL    H4834672   7.309   1.384   2.672  0.4273 -0.1815 -1.7076
   33MOL    H4934673   7.197   1.503   2.297  0.6633  1.8889 -0.2810
   33MOL    H5034674   7.153   1.518   2.047 -0.3608  0.6350  1.0900
   33MOL    H5134675   7.343   1.752   1.988  0.9614 -2.0934 -0.4685
   33MOL    H5234676   7.443   1.970   1.902  0.6971 -0.0804 -0.7518
   33MOL    H5334677   7.670   2.133   1.398  0.0163 -1.2685  1.3255
   33MOL    H5434678   7.560   2.219   1.196  0.2787  1.6248  1.3895
   33MOL    H5534679   7.294   2.195   1.195 -0.4228  2.3095  0.3993
   33MOL    C5634680   7.166   0.882   2.638  0.2154  0.4396 -0.2165
   33MOL    C5734681   7.211   0.856   2.767  0.2533  0.2121  0.0332
   33MOL    C5834682   7.280   0.738   2.792 -0.8178 -0.1585  0.4494
   33MOL    C5934683   7.321   0.661   2.680  0.1940  0.1929 -0.2707
   33MOL    S6034684   7.432   0.514   2.705 -0.0759 -0.5295 -0.3622
   33MOL    O6134685   7.406   0.418   2.593 -0.1567  0.4828 -0.4006
   33MOL    O6234686   7.435   0.478   2.847 -0.2373 -0.2393  0.0449
   33MOL    C6334687   7.596   0.579   2.677  0.5064 -0.4140 -0.1785
   33MOL    C6434688   7.673   0.531   2.574  1.0964 -0.0230 -0.1865
   33MOL    C6534689   7.803   0.580   2.557 -0.1630  0.5981  0.0063
   33MOL    C6634690   7.861   0.667   2.655  0.2413 -0.0576 -0.1507
   33MOL    O6734691   7.991   0.714   2.644 -0.2957 -0.5378  0.2487
   33MOL    C6834692   8.081   0.640   2.709  0.0596  0.8182 -0.3093
   33MOL    C6934693   8.117   0.669   2.847 -0.0022 -0.3115  0.1353
   33MOL    C7034694   8.207   0.589   2.919 -0.3610 -0.6372  0.2129
   33MOL    C7134695   0.021   0.486   2.849 -0.1042 -0.2088  0.0104
   33MOL    C7234696   0.124   0.398   2.925  0.2324 -0.4362 -0.2972
   33MOL    C7334697   0.222   0.325   2.823 -0.3521  0.4312 -0.1950
   33MOL    C7434698   0.205   0.493   3.005 -0.8381 -0.2155 -0.1355
   33MOL    C7534699   0.049   0.293   3.010  0.1350  0.2586 -0.8486
   33MOL    C7634700   8.240   0.183   2.950  0.3496  0.4119  0.2377
   33MOL    C7734701   8.167   0.088   3.027 -0.9100  0.6118  0.5811
   33MOL    C7834702   8.152   0.101   3.169 -0.4900 -0.4229 -0.5740
   33MOL    O7934703   8.112   0.003   3.259 -0.1908  0.0544 -0.3678
   33MOL    C8034704   8.205   0.215   3.229  0.0153 -0.7245  0.3483
   33MOL    C8134705   0.033   0.307   3.152  0.1572 -0.2380 -0.1752
   33MOL    C8234706   8.244   0.466   2.710 -0.6264  0.1613  0.0452
   33MOL    C8334707   8.154   0.539   2.638 -0.3012  0.0427  0.1128
   33MOL    C8434708   7.777   0.724   2.759 -0.1904  0.3129 -0.2382
   33MOL    C8534709   7.643   0.678   2.767 -0.7264  0.3363  0.3954
   33MOL    C8634710   7.276   0.685   2.548  0.1128 -0.2225  0.3052
   33MOL    C8734711   7.192   0.795   2.530  0.5248 -0.2768  0.1457
   33MOL    H8834712   7.176   0.924   2.844  2.8768  2.6786 -0.8647
   33MOL    H8934713   7.311   0.715   2.892  1.8967 -1.0967 -0.5660
   33MOL    H9034714   7.644   0.456   2.502 -2.5672  0.0496  1.1063
   33MOL    H9134715   7.870   0.554   2.476 -2.9525 -3.8279 -1.0447
   33MOL    H9234716   8.064   0.743   2.906 -0.3185 -1.3703  1.2009
   33MOL    H9334717   8.225   0.610   3.024 -0.0926  1.7937 -0.2926
   33MOL    H9434718   0.299   0.262   2.869 -0.5711  0.2190 -0.1229
   33MOL    H9534719   0.266   0.400   2.758  0.8784  0.9341  1.1828
   33MOL    H9634720   0.168   0.257   2.757  0.5494 -0.9274  0.4407
   33MOL    H9734721   0.290   0.442   3.051  0.7627  1.7777 -0.7945
   33MOL    H9834722   0.236   0.572   2.936 -1.4084  0.8096  0.7783
   33MOL    H9934723   0.151   0.551   3.079  0.3472 -0.0683  0.6346
   33MOL   H10034724   8.240   0.167   2.843  1.0458  0.6981  0.1940
   33MOL   H10134725   8.129   8.252   2.978 -0.5982  1.6656 -1.6474
   33MOL   H10234726   8.209   0.224   3.336 -2.5959  0.9710  0.3361
   33MOL   H10334727   0.084   0.382   3.212 -0.8672  0.1784  0.1808
   33MOL   H10434728   0.042   0.391   2.651 -0.7399 -1.8189  2.3881
   33MOL   H10534729   8.139   0.529   2.531  3.2403 -0.8220 -0.3761
   33MOL   H10634730   7.816   0.790   2.835  0.9379 -0.6831  0.0576
   33MOL   H10734731   7.584   0.714   2.850  0.8664  1.3962  1.0825
   33MOL   H10834732   7.307   0.619   2.468  1.3110  0.1266  0.4655
   33MOL   H10934733   7.154   0.805   2.429  0.2986 -2.4073 -0.0129
   33MOL   C11034734   7.993   8.200   3.225  0.2593  0.0018  0.3417
   33MOL   C11134735   7.878   0.023   3.220 -0.4576  0.3932  0.7381
   33MOL   C11234736   7.757   8.216   3.171  0.0775 -0.0698 -0.9064
   33MOL   C11334737   7.752   8.078   3.138 -0.4898  0.2516  0.1906
   33MOL   S11434738   7.590   7.999   3.073  0.0924 -0.1374  0.1870
   33MOL   O11534739   7.603   7.854   3.044  0.2587 -0.2199 -0.0963
   33MOL   O11634740   7.531   8.091   2.971  0.0974 -0.1641 -0.0277
   33MOL   C11734741   7.489   8.004   3.217  0.6525  0.0885 -0.3871
   33MOL   C11834742   7.350   7.989   3.202  0.0401 -0.1038 -0.1686
   33MOL   C11934743   7.260   7.994   3.317 -0.1308  0.3120 -0.6618
   33MOL   C12034744   7.326   8.006   3.442 -0.8931  0.0607  0.2103
   33MOL   O12134745   7.249   8.002   3.552  0.5149 -0.4702 -0.7144
   33MOL   C12234746   7.248   8.099   3.654 -0.7093 -0.5183 -0.7624
   33MOL   C12334747   7.320   8.219   3.640 -0.0053 -0.7939  0.4813
   33MOL   C12434748   7.312   0.063   3.743 -0.4179 -0.3337  0.1210
   33MOL   C12534749   7.258   0.031   3.868  0.3839  0.1984  0.1368
   33MOL   C12634750   7.256   0.143   3.977  0.0489 -0.5596 -0.1807
   33MOL   C12734751   7.272   0.282   3.910  0.2066 -0.3348 -0.0956
   33MOL   C12834752   7.122   0.144   4.057 -0.6564  0.0725  0.1059
   33MOL   C12934753   7.380   0.126   4.066 -0.0294 -0.1334  0.0829
   33MOL   C13034754   7.372   0.132   4.207 -0.0188 -0.4824  0.5581
   33MOL   C13134755   7.491   0.126   4.284  0.5390 -0.3224  0.6163
   33MOL   C13234756   7.617   0.107   4.230 -0.2548 -0.3183  0.2884
   33MOL   O13334757   7.727   0.082   4.300  0.7007  0.4691  0.3812
   33MOL   C13434758   7.620   0.107   4.090  0.1204 -0.1301 -0.5292
   33MOL   C13534759   7.504   0.111   4.009  0.7388 -0.0147 -0.1676
   33MOL   C13634760   7.202   8.157   3.891 -0.4372 -0.5361  0.4831
   33MOL   C13734761   7.194   8.066   3.782  1.1624  0.1246 -0.0549
   33MOL   C13834762   7.464   8.019   3.459 -0.6647 -0.4102  0.2206
   33MOL   C13934763   7.543   8.021   3.347 -0.3214 -0.3540  0.0586
   33MOL   C14034764   7.869   8.000   3.153 -0.3568 -0.5919 -0.4616
   33MOL   C14134765   7.988   8.064   3.200  0.7353  0.1770 -0.1573
   33MOL   H14234766   7.884   0.131   3.222  0.0184  0.3724  0.4867
   33MOL   H14334767   7.665   0.016   3.154 -0.5514 -0.1526  1.9922
   33MOL   H14434768   7.321   7.978   3.098 -0.6385  1.5739 -0.1579
   33MOL   H14534769   7.152   7.990   3.320 -0.1766  1.9017  0.4971
   33MOL   H14634770   7.365   8.247   3.546  0.3189 -1.1797  0.5216
   33MOL   H14734771   7.371   0.151   3.720 -0.5887 -0.2977 -0.1941
   33MOL   H14834772   7.376   0.286   3.879  0.6506  1.3784  1.5368
   33MOL   H14934773   7.277   0.365   3.980 -1.2752  0.5632 -1.0267
   33MOL   H15034774   7.199   0.303   3.831  0.1693 -3.1516 -0.8694
   33MOL   H15134775   7.124   0.220   4.135  0.8222 -0.8196  0.9686
   33MOL   H15234776   7.032   0.160   3.998 -0.6934  0.0562  0.1593
   33MOL   H15334777   7.104   0.047   4.103 -3.4639  0.2260 -0.5968
   33MOL   H15434778   7.281   0.147   4.263 -1.2394 -1.9036 -0.9425
   33MOL   H15534779   7.489   0.130   4.392 -1.4446 -0.8570  0.6220
   33MOL   H15634780   7.715   0.100   4.038  0.6088  0.7761  0.2305
   33MOL   H15734781   7.511   0.100   3.901 -0.2213  2.6369 -0.5410
   33MOL   H15834782   7.163   8.130   3.988  0.1580 -1.4343  0.4738
   33MOL   H15934783   7.140   7.975   3.801 -0.4403  0.7064 -1.6560
   33MOL   H16034784   7.509   8.029   3.556  0.7294 -0.6058 -0.3879
   33MOL   H16134785   7.649   8.040   3.351 -0.0160 -2.0555  0.4505
   33MOL   H16234786   7.869   7.894   3.137 -0.4976 -0.5254 -0.8927
   33MOL   H16334787   8.079   8.006   3.203  1.4652  1.2555 -1.0936
   33MOL   C16434788   7.767   0.182   4.386 -0.8427 -0.4357  0.5483
   33MOL   C16534789   7.769   0.150   4.524  0.3472  0.6448  0.1075
   33MOL   C16634790   7.841   0.229   4.615  1.0028 -0.6307 -0.3196
   33MOL   C16734791   7.892   0.354   4.571 -0.1558 -0.3448  0.2017
   33MOL   S16834792   7.975   0.462   4.686  0.2209  0.2162  0.5373
   33MOL   O16934793   7.999   0.585   4.610 -0.0613 -0.0457  0.6654
   33MOL   O17034794   8.089   0.395   4.747  0.0217 -0.0690  0.1544
   33MOL   C17134795   7.863   0.504   4.814  0.7417 -0.4915 -0.0069
   33MOL   C17234796   7.838   0.418   4.921 -0.0289 -0.3222  0.1569
   33MOL   C17334797   7.749   0.455   5.022 -0.0308  0.2741  0.7934
   33MOL   C17434798   7.694   0.581   5.029  0.1042 -0.1251 -0.2028
   33MOL   O17534799   7.595   0.611   5.121  0.1015  0.2278 -0.0206
   33MOL   C17634800   7.634   0.635   5.248  0.1573  0.1337 -1.1463
   33MOL   C17734801   7.608   0.550   5.351 -0.6744 -0.3746 -0.5313
   33MOL   C17834802   7.660   0.573   5.480  0.0663  0.1829  0.3101
   33MOL   C17934803   7.738   0.687   5.507  0.3686 -0.0229  0.0733
   33MOL   C18034804   7.813   0.712   5.645 -0.2223 -0.6700 -0.1020
   33MOL   C18134805   7.821   0.588   5.727 -0.6643 -0.0674 -0.3063
   33MOL   C18234806   7.956   0.750   5.607 -0.7624  0.2570 -0.3651
   33MOL   C18334807   7.733   0.820   5.718  0.2916  0.4593 -0.0640
   33MOL   C18434808   7.795   0.942   5.759  0.3315 -0.3585  0.9407
   33MOL   C18534809   7.722   1.027   5.841 -0.0034 -0.0800  0.9459
   33MOL   C18634810   7.593   1.003   5.885 -0.0358 -0.2633  0.6988
   33MOL   O18734811   7.524   1.093   5.961 -0.5636  0.2401 -0.1829
   33MOL   C18834812   7.529   0.886   5.843  0.7964  0.6873 -0.5728
   33MOL   C18934813   7.601   0.797   5.767 -0.6927 -0.3423 -0.1190
   33MOL   C19034814   7.756   0.780   5.400  0.0284 -0.0927 -0.0773
   33MOL   C19134815   7.702   0.755   5.271 -0.9985  0.0502 -0.8614
   33MOL   C19234816   7.720   0.674   4.928  0.3623  0.0508 -0.2981
   33MOL   C19334817   7.801   0.633   4.816  0.3045 -0.7913 -0.4685
   33MOL   C19434818   7.881   0.392   4.432  0.6599  0.2695 -0.2877
   33MOL   C19534819   7.821   0.305   4.341  0.2534  0.4267  0.6883
   33MOL   H19634820   7.730   0.057   4.563  1.5987  0.5513  1.1771
   33MOL   H19734821   7.848   0.206   4.720 -2.2386 -1.7798 -0.3048
   33MOL   H19834822   7.889   0.324   4.914 -1.7664 -1.4871  2.3330
   33MOL   H19934823   7.720   0.390   5.104 -0.2444  0.9512  1.2578
   33MOL   H20034824   7.568   0.454   5.325  0.6324 -1.3000  0.7457
   33MOL   H20134825   7.652   0.499   5.558  5.4853 -0.5864  0.3678
   33MOL   H20234826   7.725   0.545   5.755 -1.0684  1.2634  0.3845
   33MOL   H20334827   7.856   0.619   5.825  0.6695 -0.7564 -0.5420
   33MOL   H20434828   7.879   0.505   5.687 -1.5209 -0.2889 -1.1109
   33MOL   H20534829   8.010   0.786   5.695  0.5515  0.6692 -1.3395
   33MOL   H20634830   7.989   0.660   5.556  1.7175  0.4220  0.8824
   33MOL   H20734831   7.963   0.837   5.541  1.1222 -0.8352 -1.6466
   33MOL   H20834832   7.895   0.972   5.730 -0.0744 -0.9618 -1.1317
   33MOL   H20934833   7.772   1.119   5.867  1.2583  0.3245 -2.6898
   33MOL   H21034834   7.428   0.862   5.874  1.7897 -3.1604  0.0027
   33MOL   H21134835   7.561   0.699   5.745 -0.2865 -0.3433 -0.8720
   33MOL   H21234836   7.806   0.875   5.410 -2.7867  1.4461  0.0173
   33MOL   H21334837   7.711   0.831   5.195 -1.2789  1.2142  0.2508
   33MOL   H21434838   7.672   0.770   4.925 -0.0414 -0.0867  1.3404
   33MOL   H21534839   7.816   0.699   4.732  2.5104  1.6003  1.7113
   33MOL   H21634840   7.935   0.479   4.396  1.9814 -1.3162 -2.2580
   33MOL   H21734841   7.813   0.340   4.239  1.8272  0.7116  0.6425
   33MOL   C21834842   7.533   1.082   6.101 -0.4742  0.3711 -0.0444
   33MOL   C21934843   7.640   1.142   6.166 -0.0217 -0.4850 -0.3098
   33MOL   C22034844   7.653   1.142   6.305 -0.4736 -0.4091  0.4531
   33MOL   C22134845   7.561   1.064   6.376 -0.0474  0.0810 -0.5683
   33MOL   S22234846   7.568   1.060   6.555 -0.0254 -0.2136  0.1990
   33MOL   O22334847   7.657   1.166   6.594  0.1692  0.1156  0.1039
   33MOL   O22434848   7.601   0.922   6.592 -0.3125  0.1090  0.0896
   33MOL   C22534849   7.402   1.106   6.608  0.6932  0.4701  0.2721
   33MOL   C22634850   7.321   1.006   6.666 -0.5303 -0.4776  0.0910
   33MOL   C22734851   7.190   1.031   6.702 -0.3249  0.0812 -0.1288
   33MOL   C22834852   7.144   1.163   6.698  0.2798  0.3033  0.1396
   33MOL   O22934853   7.042   1.201   6.777  0.0725  0.3970  0.1080
   33MOL   C23034854   6.913   1.173   6.749 -0.5359 -0.3618 -0.1541
   33MOL   C23134855   6.832   1.249   6.665  0.3495 -0.0225 -0.1622
   33MOL   C23234856   6.692   1.222   6.657 -0.1415  0.0014  0.2088
   33MOL   C23334857   6.631   1.110   6.712 -0.1261  0.5086 -0.0867
   33MOL   C23434858   6.479   1.091   6.712 -0.1802 -1.2176  0.1082
   33MOL   C23534859   6.404   1.228   6.735  0.5114 -0.3380 -0.4260
   33MOL   C23634860   6.438   1.050   6.567 -0.2182  0.6039 -0.1189
   33MOL   C23734861   6.430   0.979   6.799 -0.2274  0.5607 -0.4565
   33MOL   C23834862   6.367   1.015   6.925  0.6112 -0.4510 -0.5166
   33MOL   C23934863   6.314   0.918   7.014  0.4313 -0.1090  0.0125
   33MOL   C24034864   6.315   0.784   6.975 -0.1723 -0.1581  0.5496
   33MOL   O24134865   6.265   0.687   7.050 -0.0238 -0.0321  0.4199
   33MOL   C24234866   6.378   0.741   6.858 -0.2521 -0.2671 -0.5373
   33MOL   C24334867   6.429   0.840   6.771 -0.0721 -0.2262  0.1848
   33MOL   C24434868   6.722   1.022   6.783  0.6856 -0.5184  0.4757
   33MOL   C24534869   6.857   1.059   6.803 -0.0868 -0.2693  0.0447
   33MOL   C24634870   7.219   1.263   6.625  0.5430 -0.1979  0.5135
   33MOL   C24734871   7.349   1.232   6.577 -0.0621  0.3762 -0.0943
   33MOL   C24834872   7.448   1.001   6.312 -0.1780 -0.0317 -0.4471
   33MOL   C24934873   7.435   1.006   6.176  0.6218  0.0168  0.1277
   33MOL   H25034874   7.707   1.204   6.108 -1.1215  1.6199  0.6314
   33MOL   H25134875   7.727   1.197   6.361 -1.3916  3.2804 -1.7843
   33MOL   H25234876   7.365   0.910   6.691  1.4993 -0.4216 -2.9943
   33MOL   H25334877   7.128   0.952   6.743 -1.9480  0.2486 -2.1570
   33MOL   H25434878   6.876   1.334   6.614  0.6385 -0.3697 -0.4890
   33MOL   H25534879   6.637   1.290   6.593 -1.2955 -0.9215  0.2037
   33MOL   H25634880   6.437   1.265   6.833 -1.4216 -1.0473  0.5066
   33MOL   H25734881   6.297   1.217   6.750  0.4804 -1.3889 -1.4033
   33MOL   H25834882   6.424   1.315   6.672 -1.7602  0.5021 -0.0349
   33MOL   H25934883   6.464   1.122   6.490  2.0971 -1.7188 -1.5859
   33MOL   H26034884   6.485   0.956   6.537 -0.5429  0.4341 -0.0942
   33MOL   H26134885   6.330   1.042   6.573 -0.0594 -1.7464 -0.1283
   33MOL   H26234886   6.371   1.116   6.964 -2.4831 -0.7705  0.7816
   33MOL   H26334887   6.264   0.944   7.106  1.1045  2.7614 -0.3733
   33MOL   H26434888   6.381   0.637   6.832 -0.0745 -0.4839  0.3414
   33MOL   H26534889   6.469   0.801   6.678 -4.3390  0.3698 -2.0143
   33MOL   H26634890   6.684   0.933   6.830 -0.5149  1.1716  2.7988
   33MOL   H26734891   6.922   0.996   6.862 -0.9364 -1.5223 -0.3528
   33MOL   H26834892   7.179   1.364   6.619  1.3385  0.0280 -1.2774
   33MOL   H26934893   7.410   1.305   6.527  0.9099  0.5357  1.2851
   33MOL   H27034894   7.377   0.944   6.369 -0.6445  1.6858  0.7375
   33MOL   H27134895   7.342   0.968   6.135  1.4131 -0.9599 -0.7845
   33MOL   C27234896   6.325   0.665   7.166  0.1446 -0.8123 -0.4754
   33MOL   C27334897   6.258   0.696   7.285 -0.4820 -0.2712 -0.6341
   33MOL   C27434898   6.313   0.655   7.407 -0.3311 -0.0480  0.9422
   33MOL   C27534899   6.439   0.584   7.400 -0.5671  0.0610  0.2732
   33MOL   S27634900   6.512   0.528   7.558 -0.1799 -0.0325 -0.0453
   33MOL   O27734901   6.614   0.427   7.528  0.6119  0.0206 -0.1073
   33MOL   O27834902   6.398   0.494   7.651 -0.5229  0.2745  0.5829
   33MOL   C27934903   6.585   0.675   7.636  0.0504 -0.3148  0.2747
   33MOL   C28034904   6.714   0.686   7.695 -0.3434  0.5025 -0.5491
   33MOL   C28134905   6.756   0.802   7.768 -0.5010  0.6161  0.0680
   33MOL   C28234906   6.663   0.904   7.794 -1.1516  0.1479  0.0124
   33MOL   O28334907   6.694   1.012   7.872  0.5948 -0.2206  0.4160
   33MOL   C28434908   6.685   1.020   8.009  0.4707 -0.2845  0.5969
   33MOL   C28534909   6.668   0.901   8.091 -0.5601  0.3514 -0.0697
   33MOL   C28634910   6.674   0.910   8.229 -0.1770 -0.3464  0.0830
   33MOL   C28734911   6.690   1.037   0.044 -0.1671 -0.0892  0.3154
   33MOL   C28834912   6.712   1.046   0.197  0.9947 -0.3702 -0.0047
   33MOL   C28934913   6.834   1.127   0.250  0.6471 -0.0306 -0.5250
   33MOL   C29034914   6.594   1.131   0.253  0.5657  0.1863  0.3384
   33MOL   C29134915   6.705   0.910   0.274 -0.1827 -0.3066 -0.5302
   33MOL   C29234916   6.819   0.826   0.265 -0.8922 -0.5537 -0.1869
   33MOL   C29334917   6.829   0.695   0.321 -0.0280 -0.7838 -0.3193
   33MOL   C29434918   6.716   0.647   0.383  0.0173  0.5881 -0.3331
   33MOL   O29534919   6.718   0.513   0.426  0.0384 -0.1280 -0.4699
   33MOL   C29634920   6.603   0.723   0.392 -0.0983  0.1827  0.4153
   33MOL   C29734921   6.599   0.854   0.343 -0.5862 -0.2087 -0.9409
   33MOL   C29834922   6.681   1.154   8.212  0.1462  0.1923 -0.4225
   33MOL   C29934923   6.685   1.145   8.074 -0.2662  0.3100  0.0298
   33MOL   C30034924   6.531   0.898   7.732 -0.0888 -0.0716  0.5725
   33MOL   C30134925   6.495   0.786   7.657 -0.0020  0.0442 -0.4752
   33MOL   C30234926   6.500   0.548   7.282  0.6094  0.5926 -0.4376
   33MOL   C30334927   6.446   0.590   7.164  0.5264 -0.0445 -0.9878
   33MOL   H30434928   6.162   0.744   7.289 -0.9114 -0.9526 -2.2723
   33MOL   H30534929   6.272   0.677   7.504 -1.2658 -1.4749  0.8855
   33MOL   H30634930   6.784   0.606   7.679 -1.1139 -0.5434  1.1484
   33MOL   H30734931   6.858   0.808   7.802 -0.3480 -0.8909 -0.0594
   33MOL   H30834932   6.645   0.805   8.045 -1.1624  0.3643  0.2097
   33MOL   H30934933   6.663   0.825   0.041 -1.2006  0.3160  0.7691
   33MOL   H31034934   6.839   1.124   0.359 -0.6722  0.8340 -0.4280
   33MOL   H31134935   6.822   1.233   0.228  0.2190 -0.2957 -1.5805
   33MOL   H31234936   6.921   1.092   0.195  1.9739 -2.5227  2.9257
   33MOL   H31334937   6.610   1.139   0.361 -0.5090  3.3584  0.3397
   33MOL   H31434938   6.575   1.230   0.210 -1.5854 -0.7400 -0.9450
   33MOL   H31534939   6.504   1.073   0.234 -0.1127  1.2836  0.1304
   33MOL   H31634940   6.907   0.857   0.211 -1.8454  1.2407 -0.7533
   33MOL   H31734941   6.918   0.634   0.308  0.2061 -0.2262 -1.3685
   33MOL   H31834942   6.512   0.683   0.434 -0.2709 -0.4509 -0.5301
   33MOL   H31934943   6.506   0.909   0.353 -1.4995 -2.1206  1.7066
   33MOL   H32034944   6.699   1.251   0.001 -0.3984  0.2810 -0.3968
   33MOL   H32134945   6.687   1.229   8.007  0.3447  1.6290  1.6811
   33MOL   H32234946   6.460   0.978   7.748  2.0896  1.6962  1.8059
   33MOL   H32334947   6.398   0.783   7.610 -0.1113  1.0759 -0.3201
   33MOL   H32434948   6.589   0.489   7.293 -0.1305 -0.3036  0.8428
   33MOL   H32534949   6.489   0.562   7.068  1.9366  2.6692 -1.1826
   33MOL   C32634950   6.616   0.430   0.385 -0.7348  0.0866  0.5469
   33MOL   C32734951   6.523   0.404   0.486 -0.3417  0.4826 -0.0215
   33MOL   C32834952   6.403   0.329   0.459  0.2563  0.2749  0.4348
   33MOL   C32934953   6.388   0.285   0.325 -0.2565 -0.2191 -0.4386
   33MOL   S33034954   6.237   0.200   0.272  0.1428  0.0069 -0.2544
   33MOL   O33134955   6.120   0.266   0.336  0.0509  0.3009 -0.4298
   33MOL   O33234956   6.262   0.055   0.288 -0.2157  0.2586  0.0738
   33MOL   C33334957   6.219   0.229   0.093  0.9255  0.0709  0.3110
   33MOL   C33434958   6.191   0.358   0.043 -0.1945  0.0309  0.3315
   33MOL   C33534959   6.145   0.376   8.165 -0.9025  0.2846  0.1303
   33MOL   C33634960   6.124   0.259   8.083  0.4061  0.6937 -0.2774
   33MOL   O33734961   6.081   0.256   7.954 -0.5822  0.3594 -0.3184
   33MOL   C33834962   6.044   0.376   7.894 -0.9944  0.0298  0.0092
   33MOL   C33934963   6.123   0.432   7.793 -0.5033  0.0275  0.2364
   33MOL   C34034964   6.077   0.540   7.716  0.8040 -0.7389  0.5373
   33MOL   C34134965   5.961   0.611   7.748 -0.0756 -0.2653 -0.3871
   33MOL   C34234966   5.915   0.744   7.689 -0.1906  0.0796 -0.5906
   33MOL   C34334967   5.907   0.844   7.811 -0.1873 -0.6084  0.1316
   33MOL   C34434968   6.014   0.791   7.584 -0.9079 -0.1659 -0.1716
   33MOL   C34534969   5.777   0.727   7.620 -0.1683 -0.5553 -0.0156
   33MOL   C34634970   5.755   0.620   7.525 -0.3224 -0.2997 -0.0097
   33MOL   C34734971   5.645   0.612   7.448 -0.6050 -0.0677 -0.3967
   33MOL   C34834972   5.537   0.704   7.468  0.1134 -0.3394 -0.0673
   33MOL   O34934973   5.438   0.703   7.377 -0.2354 -0.1430  0.6156
   33MOL   C35034974   5.543   0.789   7.584  0.0640  0.8152  0.0997
   33MOL   C35134975   5.657   0.798   7.662  0.9103  0.0576  0.8661
   33MOL   C35234976   5.883   0.560   7.858 -0.2282 -0.0190 -0.5643
   33MOL   C35334977   5.920   0.439   7.927  0.2706 -0.0385  0.3060
   33MOL   C35434978   6.149   0.132   8.140  0.2735 -0.6824 -0.7851
   33MOL   C35534979   6.203   0.116   0.008  0.1379  0.3198 -0.2056
   33MOL   C35634980   6.486   0.299   0.226 -0.2854  0.5524 -1.2801
   33MOL   C35734981   6.599   0.379   0.256  0.1588  0.1261 -0.4069
   33MOL   H35834982   6.538   0.453   0.581  3.3459 -2.1767  0.8826
   33MOL   H35934983   6.321   0.338   0.528  0.0700  0.4799  0.1908
   33MOL   H36034984   6.174   0.433   0.118 -0.4939 -0.8003  1.1091
   33MOL   H36134985   6.121   0.475   8.129 -0.7642  0.7360  1.2645
   33MOL   H36234986   6.207   0.380   7.748 -0.0075  0.2823  0.8690
   33MOL   H36334987   6.146   0.578   7.642 -1.3121  2.0478 -0.0589
   33MOL   H36434988   5.893   0.946   7.773  2.8840 -0.6298 -1.2285
   33MOL   H36534989   6.004   0.849   7.859 -0.0641 -0.6345 -0.1112
   33MOL   H36634990   5.824   0.822   7.878  0.2052 -0.5633  0.6372
   33MOL   H36734991   5.981   0.885   7.540  2.1459  0.0784 -2.0594
   33MOL   H36834992   6.112   0.815   7.626 -1.1042 -0.0892  0.2444
   33MOL   H36934993   6.022   0.723   7.499 -4.9056 -0.1292 -0.6740
   33MOL   H37034994   5.840   0.556   7.506  0.6072  1.1878 -0.8396
   33MOL   H37134995   5.632   0.546   7.363 -0.0574  0.0951 -0.6103
   33MOL   H37234996   5.459   0.848   7.616  0.0794 -0.8856  3.5216
   33MOL   H37334997   5.651   0.861   7.749 -2.5457 -0.0923  0.8079
   33MOL   H37434998   5.782   0.594   7.876  0.2874  0.4999  1.4653
   33MOL   H37534999   5.857   0.396   8.004  2.5522 -1.0323  1.6664
   33MOL   H37635000   6.117   0.037   8.099  0.4782 -1.6282  1.1575
   33MOL   H37735001   6.215   0.016   0.045  0.7467  0.9087  1.2271
   33MOL   H37835002   6.477   0.256   0.128 -0.4206 -3.0159  0.2165
   33MOL   H37935003   6.676   0.410   0.186 -1.5990  3.3561 -1.0017
   33MOL   C38035004   5.444   0.787   7.266 -0.7832 -0.0626 -0.3431
   33MOL   C38135005   5.484   0.919   7.289  0.6040  0.0889 -0.0660
   33MOL   C38235006   5.469   1.008   7.182 -0.2204 -0.2581 -0.1367
   33MOL   C38335007   5.426   0.962   7.053  0.8903 -0.2232 -0.3205
   33MOL   S38435008   5.410   1.078   6.924  0.1077  0.1895  0.0608
   33MOL   O38535009   5.378   1.213   6.979 -0.0345 -0.1391  0.0687
   33MOL   O38635010   5.324   1.027   6.820  0.3933  0.2730 -0.4221
   33MOL   C38735011   5.574   1.080   6.853 -0.0428 -0.2732  0.6843
   33MOL   C38835012   5.659   0.968   6.859 -0.6582 -0.0894  0.1005
   33MOL   C38935013   5.787   0.979   6.807 -0.4382 -0.0917  0.0561
   33MOL   C39035014   5.833   1.097   6.741 -0.0955 -0.4707  0.6159
   33MOL   O39135015   5.952   1.100   6.673 -0.6663 -0.5100  0.0933
   33MOL   C39235016   5.989   0.989   6.604 -0.5861  0.1316  0.8602
   33MOL   C39335017   5.914   0.961   6.488 -0.2207 -0.5339  0.8766
   33MOL   C39435018   5.942   0.849   6.407 -0.3963 -0.0551 -0.0546
   33MOL   C39535019   6.062   0.773   6.424 -0.2937 -0.4609  0.2941
   33MOL   C39635020   6.098   0.658   6.335  0.2459  0.0351 -0.2739
   33MOL   C39735021   6.056   0.527   6.397 -0.2646  0.2597 -0.1110
   33MOL   C39835022   6.018   0.671   6.196  0.1045  0.3508 -0.5557
   33MOL   C39935023   6.249   0.655   6.306  0.2003 -0.2073 -0.6112
   33MOL   C40035024   6.341   0.569   6.369  0.2686 -0.1048  0.2879
   33MOL   C40135025   6.474   0.569   6.328  0.4827  0.2244  0.2802
   33MOL   C40235026   6.525   0.673   6.254  0.2310  0.4068 -0.3501
   33MOL   O40335027   6.657   0.659   6.223 -0.7632 -0.7394  0.6999
   33MOL   C40435028   6.437   0.757   6.190 -0.3725 -0.1777 -0.0081
   33MOL   C40535029   6.297   0.756   6.216 -0.1888 -0.2922  0.1549
   33MOL   C40635030   6.138   0.809   6.538 -0.2863  0.3189 -0.3453
   33MOL   C40735031   6.113   0.923   6.625 -0.4528  0.1403 -0.0522
   33MOL   C40835032   5.749   1.206   6.741  0.2066  0.0059 -0.4737
   33MOL   C40935033   5.624   1.201   6.807 -0.0235  0.5146 -0.2055
   33MOL   C41035034   5.394   0.825   7.032  0.6459  0.1094  0.0955
   33MOL   C41135035   5.403   0.743   7.142 -0.1099 -0.0953  0.7632
   33MOL   H41235036   5.498   0.951   7.391 -2.0499  0.9401  0.0719
   33MOL   H41335037   5.480   1.115   7.197  1.1007 -0.3266 -0.5916
   33MOL   H41435038   5.641   0.873   6.906  1.5574 -0.4011  0.3636
   33MOL   H41535039   5.849   0.891   6.806  0.7918  0.7781 -0.7262
   33MOL   H41635040   5.829   1.022   6.464  1.2972  1.4381  0.3135
   33MOL   H41735041   5.878   0.826   6.323  2.4186 -1.1801 -1.9476
   33MOL   H41835042   6.095   0.437   6.349 -0.5140 -0.8622  1.7401
   33MOL   H41935043   5.948   0.510   6.398 -0.1948 -0.1270  1.0308
   33MOL   H42035044   6.095   0.529   6.498 -0.0887 -0.3811 -0.1577
   33MOL   H42135045   6.014   0.774   6.160 -1.3996  0.9066  1.0938
   33MOL   H42235046   6.061   0.610   6.117 -1.4543 -1.4519 -0.0719
   33MOL   H42335047   5.919   0.629   6.215 -0.6145  1.9836 -0.5677
   33MOL   H42435048   6.312   0.499   6.447  0.2543 -2.5838 -1.8657
   33MOL   H42535049   6.542   0.500   6.376 -1.1948 -2.0241 -0.4744
   33MOL   H42635050   6.481   0.836   6.131  1.6775 -2.9562 -2.3474
   33MOL   H42735051   6.229   0.820   6.162 -2.9283 -2.2150  1.2617
   33MOL   H42835052   6.218   0.744   6.570 -0.4720  0.5209  0.5424
   33MOL   H42935053   6.166   0.940   6.718 -0.2671 -1.2713  0.1087
   33MOL   H43035054   5.790   1.289   6.686  0.6392  1.4081  1.9109
   33MOL   H43135055   5.554   1.283   6.803 -0.0365  0.6412  1.9562
   33MOL   H43235056   5.360   0.797   6.933 -1.2393  0.0331  0.7454
   33MOL   H43335057   5.385   0.639   7.118 -0.0708 -0.3017  1.6157
   33MOL   C43435058   6.744   0.764   6.250 -0.1849 -0.3771  0.0519
   33MOL   C43535059   6.843   0.793   6.157 -0.1723 -0.7911 -0.2564
   33MOL   C43635060   6.934   0.897   6.174  0.4475 -0.0422  0.6478
   33MOL   C43735061   6.917   0.988   6.278 -0.0959  0.4647 -0.1990
   33MOL   S43835062   7.012   1.138   6.289  0.5995 -0.2046 -0.1227
   33MOL   O43935063   7.150   1.106   6.320  0.4120  0.3438  0.2361
   33MOL   O44035064   6.949   1.237   6.376 -0.0613 -0.4290  0.5694
   33MOL   C44135065   7.012   1.207   6.118  0.1344  1.1461 -0.8977
   33MOL   C44235066   6.909   1.168   6.026  0.2269  0.5028  0.0194
   33MOL   C44335067   6.907   1.224   5.902  0.2115  0.8483  0.0525
   33MOL   C44435068   7.000   1.315   5.856  0.2285  0.2410 -0.2324
   33MOL   O44535069   6.985   1.372   5.734  0.3736 -0.3580 -0.6016
   33MOL   C44635070   6.971   1.297   5.617  0.4870 -0.3060  0.3634
   33MOL   C44735071   6.909   1.358   5.506  0.0395 -0.8013  0.9448
   33MOL   C44835072   6.885   1.283   5.384  0.2109  0.3934 -0.0293
   33MOL   C44935073   6.935   1.153   5.365 -0.2947  0.1360 -0.4888
   33MOL   C45035074   6.928   1.082   5.222 -0.6740 -0.1726 -0.3676
   33MOL   C45135075   6.776   1.068   5.188  0.4348 -0.1215  0.0845
   33MOL   C45235076   6.966   1.179   5.114  0.3008 -0.0929  0.5653
   33MOL   C45335077   7.004   0.944   5.216  0.2220  0.9473 -0.3931
   33MOL   C45435078   6.944   0.814   5.212 -0.4496  0.7186 -0.4367
   33MOL   C45535079   7.023   0.697   5.203  0.7051  0.5514 -0.5608
   33MOL   C45635080   7.162   0.708   5.179 -0.2361 -1.2726  0.1531
   33MOL   O45735081   7.243   0.594   5.185 -0.2192 -0.4081  0.3479
   33MOL   C45835082   7.222   0.837   5.182  0.0914  0.0487  0.7596
   33MOL   C45935083   7.140   0.951   5.189 -0.5430  0.5849 -0.8953
   33MOL   C46035084   7.010   1.096   5.474  0.5644 -0.0397 -0.0077
   33MOL   C46135085   7.019   1.165   5.598 -0.0907 -0.0071  0.0005
   33MOL   C46235086   7.096   1.370   5.947 -0.2628  0.0309  0.0483
   33MOL   C46335087   7.110   1.309   6.076  0.6708 -0.3545 -0.0565
   33MOL   C46435088   6.817   0.961   6.377  0.5376  0.0384 -0.5139
   33MOL   C46535089   6.736   0.848   6.366 -0.1107  0.2494 -0.2678
   33MOL   H46635090   6.860   0.725   6.075 -0.6791  0.4845 -1.4259
   33MOL   H46735091   7.006   0.918   6.096 -1.3665  0.8055 -0.8489
   33MOL   H46835092   6.829   1.101   6.050  1.0506 -0.3839  0.3057
   33MOL   H46935093   6.825   1.199   5.835  0.5521 -0.1869  0.0122
   33MOL   H47035094   6.861   1.455   5.508 -0.2502 -0.8674 -1.4842
   33MOL   H47135095   6.830   1.324   5.300 -1.0758  1.0925  1.1411
   33MOL   H47235096   6.709   1.153   5.200  0.5398 -0.2441  1.6436
   33MOL   H47335097   6.728   0.993   5.250 -1.5024  0.9366 -0.1061
   33MOL   H47435098   6.759   1.030   5.087 -2.0192 -1.2830  0.9108
   33MOL   H47535099   6.953   1.136   5.015 -0.4120 -1.4716  1.2453
   33MOL   H47635100   6.911   1.273   5.122 -0.2238 -0.3930  0.4975
   33MOL   H47735101   7.071   1.199   5.131 -0.3229  0.3088  4.3433
   33MOL   H47835102   6.836   0.810   5.216 -0.3580 -0.5189  1.3590
   33MOL   H47935103   6.965   0.608   5.225  0.5984  1.0578  1.2743
   33MOL   H48035104   7.329   0.846   5.176 -0.0313  0.5141 -1.4449
   33MOL   H48135105   7.188   1.047   5.205 -0.0321  0.0264  1.0679
   33MOL   H48235106   7.043   0.993   5.479  0.1688 -0.0271  3.9730
   33MOL   H48335107   7.078   1.124   5.679  1.6832 -0.3810 -1.4543
   33MOL   H48435108   7.164   1.441   5.902 -0.1597 -0.3760 -0.4500
   33MOL   H48535109   7.187   1.337   6.146 -0.1883  0.1138  0.7097
   33MOL   H48635110   6.795   1.012   6.469 -2.4435 -2.8502  0.4780
   33MOL   H48735111   6.663   0.830   6.443  1.1044  2.2122  1.4006
   33MOL   C48835112   7.304   0.547   5.072  0.0257 -0.1794  1.0542
   33MOL   C48935113   7.312   0.407   5.052 -0.2029 -0.5746  0.3638
   33MOL   C49035114   7.359   0.352   4.931 -0.2324  0.3736 -0.2499
   33MOL   C49135115   7.402   0.441   4.824  0.1558 -0.7276 -0.3342
   33MOL   S49235116   7.477   0.365   4.676 -0.1458  0.2977 -0.0334
   33MOL   O49335117   7.466   0.217   4.687  0.5625  0.3237 -0.5488
   33MOL   O49435118   7.611   0.431   4.669  0.0507 -0.2006  0.3689
   33MOL   C49535119   7.380   0.422   4.524  0.1323  0.5507 -0.2714
   33MOL   C49635120   7.242   0.460   4.525  0.3490 -0.2632 -0.4341
   33MOL   C49735121   7.168   0.479   4.409 -0.1925 -0.1116 -0.4417
   33MOL   C49835122   7.240   0.479   4.284  0.7782 -0.0159 -0.2281
   33MOL   O49935123   7.184   0.486   4.161  0.3037 -0.0328  0.1764
   33MOL   C50035124   7.078   0.572   4.141  0.3435 -0.3048  0.3822
   33MOL   C50135125   6.976   0.528   4.055  0.5564 -0.3729 -0.1818
   33MOL   C50235126   6.865   0.610   4.028 -0.4306 -0.3010  0.0958
   33MOL   C50335127   6.858   0.735   4.082 -0.2246 -0.0872 -0.3509
   33MOL   C50435128   6.731   0.826   4.057 -0.2715  0.2414 -0.2734
   33MOL   C50535129   6.657   0.797   3.923 -0.0658  0.3425  1.1438
   33MOL   C50635130   6.634   0.800   4.168 -0.1491 -0.3290  0.6935
   33MOL   C50735131   6.783   0.968   4.051  0.0106 -0.3977 -0.1930
   33MOL   C50835132   6.770   1.058   4.158  0.1175 -0.0847  0.5872
   33MOL   C50935133   6.827   1.188   4.150  1.0390  0.3251 -0.0407
   33MOL   C51035134   6.896   1.232   4.036  0.2132 -0.1373  0.8337
   33MOL   O51135135   6.961   1.352   4.037  0.1357  0.2733  0.4945
   33MOL   C51235136   6.907   1.143   3.927  0.4283  0.3237 -0.0769
   33MOL   C51335137   6.844   1.020   3.935 -0.4929  0.0954 -0.1581
   33MOL   C51435138   6.957   0.781   4.169  0.1233 -0.3143 -1.0215
   33MOL   C51535139   7.064   0.703   4.203  0.4759  0.2427 -0.1015
   33MOL   C51635140   7.379   0.461   4.285 -0.0899 -0.4203 -0.0307
   33MOL   C51735141   7.446   0.432   4.402  0.6867  0.4437 -0.5831
   33MOL   C51835142   7.408   0.581   4.855 -0.1357 -0.5079  0.4091
   33MOL   C51935143   7.355   0.632   4.972 -0.1161 -0.2860  0.0301
   33MOL   H52035144   7.275   0.337   5.124 -0.3568 -2.7795 -1.7992
   33MOL   H52135145   7.367   0.245   4.918  1.4658  0.9036 -4.4474
   33MOL   H52235146   7.177   0.469   4.611 -1.9404  0.8210 -2.1951
   33MOL   H52335147   7.060   0.478   4.416 -0.1687 -0.2073 -0.1114
   33MOL   H52435148   6.991   0.432   4.008  1.7989  0.2617 -1.1484
   33MOL   H52535149   6.791   0.574   3.958 -0.6819  0.8331 -0.2485
   33MOL   H52635150   6.611   0.699   3.917  2.0957 -0.6820  1.1619
   33MOL   H52735151   6.720   0.805   3.835 -1.0687 -3.0524  0.0823
   33MOL   H52835152   6.575   0.867   3.905  0.6510  1.1115  0.8386
   33MOL   H52935153   6.534   0.839   4.146  0.3925 -1.2563 -3.9112
   33MOL   H53035154   6.624   0.693   4.180  0.9948 -0.5003  0.1711
   33MOL   H53135155   6.660   0.835   4.268 -1.4201 -1.2245  1.3440
   33MOL   H53235156   6.724   1.023   4.249 -1.5413 -2.1583 -1.0008
   33MOL   H53335157   6.827   1.255   4.234  2.1210  1.6552 -1.0912
   33MOL   H53435158   6.968   1.183   3.847 -0.2992  1.0704 -0.2722
   33MOL   H53535159   6.851   0.958   3.846 -0.0016 -0.5489  0.3264
   33MOL   H53635160   6.947   0.882   4.207  0.7999 -0.1274 -1.3340
   33MOL   H53735161   7.135   0.745   4.273  0.3929 -2.2494  1.5438
   33MOL   H53835162   7.428   0.463   4.189 -1.1358 -0.5741 -0.5796
   33MOL   H53935163   7.549   0.397   4.401  0.3468 -0.6006  0.0266
   33MOL   H54035164   7.437   0.647   4.775  2.9445 -2.1617  0.1020
   33MOL   H54135165   7.356   0.739   4.976  0.3312 -0.3511  2.1312
   33MOL   C54235166   6.890   1.462   3.998 -0.1286 -0.1447 -0.9508
   33MOL   C54335167   6.875   1.501   3.860 -0.2224  0.6305 -0.4297
   33MOL   C54435168   6.807   1.624   3.830  0.1385 -0.4927  0.4375
   33MOL   C54535169   6.753   1.699   3.929 -0.9597 -0.2508 -0.1307
   33MOL   S54635170   6.674   1.857   3.892  0.0855 -0.0387  0.0072
   33MOL   O54735171   6.578   1.897   3.996 -0.3066 -0.6576 -0.3998
   33MOL   O54835172   6.629   1.845   3.750 -0.0935  0.0044 -0.1528
   33MOL   C54935173   6.803   1.981   3.889 -0.2124 -0.2019 -0.7060
   33MOL   C55035174   6.782   2.117   3.869 -0.4812  0.5076  0.0633
   33MOL   C55135175   6.890   2.203   3.863 -0.2122  0.0528  0.0617
   33MOL   C55235176   7.022   2.156   3.897  0.4022 -0.0334  0.2241
   33MOL   O55335177   7.131   2.241   3.907  0.0327 -0.2626 -0.0855
   33MOL   C55435178   7.164   2.301   3.793 -0.3704  0.0642 -0.0524
   33MOL   C55535179   7.240   2.419   3.804  0.2491 -0.1318 -0.1727
   33MOL   C55635180   7.286   2.489   3.692 -0.3375 -0.0117 -0.1287
   33MOL   C55735181   7.249   2.444   3.562  0.1189 -0.3887 -0.0141
   33MOL   C55835182   7.310   2.520   3.440 -0.3180  0.6071  0.0327
   33MOL   C55935183   7.462   2.499   3.442 -0.2178  0.1019 -0.0327
   33MOL   C56035184   7.256   2.464   3.309 -0.7075  0.0566 -0.5025
   33MOL   C56135185   7.267   2.665   3.451  0.0546 -0.4947 -0.4216
   33MOL   C56235186   7.353   2.775   3.419 -0.1399 -0.8729 -1.1459
   33MOL   C56335187   7.302   2.911   3.409  0.5752  0.4366 -0.3086
   33MOL   C56435188   7.164   2.934   3.427  0.3282 -0.4905  0.4097
   33MOL   O56535189   7.107   3.056   3.406  0.0574  0.3079  0.3536
   33MOL   C56635190   7.082   2.829   3.462  0.4768  0.1822 -0.7799
   33MOL   C56735191   7.127   2.699   3.473  0.4817 -0.6109 -0.0635
   33MOL   C56835192   7.159   2.333   3.553  1.1908  0.1406  1.5219
   33MOL   C56935193   7.123   2.256   3.666  1.6244  0.1951 -0.2720
   33MOL   C57035194   7.041   2.017   3.915  0.0971  0.2901  0.7468
   33MOL   C57135195   6.932   1.933   3.908  0.0010 -0.1486  0.3437
   33MOL   C57235196   6.775   1.667   4.063  0.3123  0.1741 -0.1253
   33MOL   C57335197   6.844   1.548   4.097  0.3084  0.1993  0.0304
   33MOL   H57435198   6.926   1.442   3.785  2.0329  0.6515  1.0381
   33MOL   H57535199   6.794   1.652   3.726  2.0078 -0.3705  0.2227
   33MOL   H57635200   6.684   2.157   3.847 -1.5671 -1.9184  0.3097
   33MOL   H57735201   6.877   2.305   3.830  0.7832  0.0518 -0.3390
   33MOL   H57835202   7.274   2.452   3.901 -0.0995 -1.1744  0.3161
   33MOL   H57935203   7.348   2.575   3.710 -0.0080 -0.5894  1.5627
   33MOL   H58035204   7.512   2.557   3.365  0.8557 -3.2726 -1.9713
   33MOL   H58135205   7.478   2.392   3.430  0.0575 -0.1388  2.2478
   33MOL   H58235206   7.506   2.549   3.529 -0.7059  0.5809 -0.0614
   33MOL   H58335207   7.310   2.508   3.225  0.2731  0.4590  0.3217
   33MOL   H58435208   7.271   2.356   3.298  0.2656  0.3068 -1.7158
   33MOL   H58535209   7.149   2.482   3.301 -0.9720 -1.0377  0.3850
   33MOL   H58635210   7.457   2.758   3.393  0.2560  0.2262 -0.3201
   33MOL   H58735211   7.371   2.987   3.377  1.5150  0.2895  1.2701
   33MOL   H58835212   6.976   2.849   3.474  0.1870 -1.1611 -1.0690
   33MOL   H58935213   7.050   2.623   3.482 -0.8920  0.6691 -0.8836
   33MOL   H59035214   7.118   2.301   3.459  1.8440  1.3251  0.8254
   33MOL   H59135215   7.061   2.171   3.641  3.5128 -1.9464  2.0589
   33MOL   H59235216   7.139   1.980   3.941  0.6433  0.6101 -0.8001
   33MOL   H59335217   6.956   1.831   3.935 -1.0651 -0.1533  1.3249
   33MOL   H59435218   6.747   1.738   4.140  0.2867 -1.4108  1.3413
   33MOL   H59535219   6.863   1.528   4.202  0.8549  0.2862 -0.0519
   33MOL   C59635220   7.172   3.169   3.453 -0.2611  0.1607 -0.3949
   33MOL   C59735221   7.214   3.165   3.590 -0.6123 -0.2042 -0.0264
   33MOL   C59835222   7.288   3.272   3.634  0.1532  0.1996 -0.2551
   33MOL   C59935223   7.301   3.385   3.554  0.1893  0.3048 -0.1600
   33MOL   S60035224   7.407   3.524   3.618 -0.2071  0.1162  0.1161
   33MOL   O60135225   7.536   3.534   3.539  0.1420 -0.0741  0.1701
   33MOL   O60235226   7.408   3.511   3.765  0.9564 -0.2866  0.0075
   33MOL   C60335227   7.294   3.673   3.596 -0.6432 -0.1115 -0.6678
   33MOL   C60435228   7.156   3.676   3.626  0.4543 -0.0314 -0.4030
   33MOL   C60535229   7.079   3.794   3.610  0.7364 -0.5134 -0.4666
   33MOL   C60635230   7.138   3.912   3.561 -0.3369 -0.2379  0.6364
   33MOL   O60735231   7.080   4.036   3.537  0.2323 -0.2497  0.3039
   33MOL   C60835232   6.950   4.049   3.487  0.4534  0.1425 -1.2317
   33MOL   C60935233   6.884   3.944   3.422  0.4583  0.1842 -0.5583
   33MOL   C61035234   6.749   3.965   3.385  0.8056  0.3173  0.3865
   33MOL   C61135235   6.679   4.088   3.403  0.5768 -0.2305 -0.3548
   33MOL   C61235236   6.530   4.104   3.369  0.0730  0.3159  0.9472
   33MOL   C61335237   6.528   4.159   3.224 -0.6534 -0.2179  0.5499
   33MOL   C61435238   6.451   3.970   3.372 -0.4733  0.5716  0.7116
   33MOL   C61535239   6.456   4.201   3.463  0.0797  0.3647 -0.4881
   33MOL   C61635240   6.417   4.155   3.599 -0.6065  0.7445  0.5059
   33MOL   C61735241   6.356   4.248   3.690  0.4522 -0.2341 -0.4464
   33MOL   C61835242   6.344   4.383   3.659 -0.7515 -0.4518 -0.6833
   33MOL   O61935243   6.290   4.474   3.742 -0.5733 -0.0650 -0.3242
   33MOL   C62035244   6.397   4.429   3.538  0.6585 -0.0369 -0.1487
   33MOL   C62135245   6.446   4.344   3.438  0.6402 -0.0791  0.5239
   33MOL   C62235246   6.754   4.191   3.461  0.0162  0.2755 -0.2954
   33MOL   C62335247   6.889   4.175   3.500  0.6301  0.0749  0.9856
   33MOL   C62435248   7.278   3.914   3.540  1.3238 -0.2976  0.2212
   33MOL   C62535249   7.350   3.794   3.548 -0.9047  0.1556 -0.2451
   33MOL   C62635250   7.255   3.389   3.424  0.1742  0.5915 -0.5589
   33MOL   C62735251   7.185   3.281   3.371 -0.0571 -0.4318 -0.2153
   33MOL   H62835252   7.199   3.077   3.652  1.0418 -1.0048 -0.7164
   33MOL   H62935253   7.336   3.263   3.730  2.9805 -0.7111 -1.6966
   33MOL   H63035254   7.113   3.586   3.667 -0.6303  0.7767  0.2567
   33MOL   H63135255   6.976   3.809   3.639  1.4153  1.4119  1.0810
   33MOL   H63235256   6.928   3.846   3.409  1.9190  0.4953  1.6457
   33MOL   H63335257   6.694   3.877   3.355 -0.0731  1.3661 -1.0992
   33MOL   H63435258   6.429   4.164   3.180 -1.1632 -1.8042  1.4684
   33MOL   H63535259   6.581   4.088   3.161 -1.0202 -0.5552  0.6193
   33MOL   H63635260   6.585   4.252   3.212  0.9280 -1.1084  1.0020
   33MOL   H63735261   6.489   3.906   3.293 -0.5730  0.1171  1.0277
   33MOL   H63835262   6.478   3.913   3.461  1.6670  0.6363  0.1325
   33MOL   H63935263   6.343   3.972   3.356 -0.7923  0.0773  2.6073
   33MOL   H64035264   6.433   4.054   3.634  0.9276  1.7386  2.8036
   33MOL   H64135265   6.324   4.207   3.785 -1.8019 -2.8120 -2.2187
   33MOL   H64235266   6.391   4.535   3.518 -0.5953 -0.2178 -0.7601
   33MOL   H64335267   6.460   4.378   3.336 -1.3976 -0.8747 -0.0464
   33MOL   H64435268   6.704   4.285   3.477 -3.3882 -1.2448 -1.6475
   33MOL   H64535269   6.943   4.261   3.537  0.9542  0.1404  0.3665
   33MOL   H64635270   7.327   4.001   3.500 -0.1919  0.0243 -1.0191
   33MOL   H64735271   7.456   3.783   3.532 -0.7265 -0.4202  1.2558
   33MOL   H64835272   7.270   3.478   3.365  0.0314  0.5542 -0.6490
   33MOL   H64935273   7.138   3.285   3.274 -0.5258  1.4915  0.0698
   33MOL   C65035274   6.159   4.469   3.766  0.2493 -0.5035 -0.2937
   33MOL   C65135275   6.127   4.406   3.885  0.1311 -0.3246  0.1273
   33MOL   C65235276   5.993   4.407   3.924  0.4127 -0.2862 -0.9371
   33MOL   C65335277   5.898   4.464   3.838  0.7984 -0.1412 -0.4810
   33MOL   S65435278   5.718   4.448   3.866 -0.0327  0.0933 -0.3437
   33MOL   O65535279   5.668   4.581   3.895  0.3480  0.4268  0.0627
   33MOL   O65635280   5.694   4.339   3.962  0.3567 -0.7382 -0.1920
   33MOL   C65735281   5.643   4.392   3.712  0.0587 -0.0077 -0.6829
   33MOL   C65835282   5.539   4.465   3.652  0.3466  0.5418 -0.1944
   33MOL   C65935283   5.471   4.424   3.537  0.1051 -0.0102 -0.3648
   33MOL   C66035284   5.528   4.316   3.465  1.2215  0.1591  0.0721
   33MOL   O66135285   5.463   4.288   3.349  0.0060  0.1284 -0.2897
   33MOL   C66235286   5.509   4.181   3.275  0.1085 -0.1185 -0.1063
   33MOL   C66335287   5.457   4.056   3.313  0.5496 -0.0251 -0.2951
   33MOL   C66435288   5.502   3.944   3.247  0.4789  0.4048  0.0820
   33MOL   C66535289   5.596   3.949   3.140 -0.7266  0.3133 -0.4458
   33MOL   C66635290   5.639   3.810   3.081 -0.5716  0.1462  0.2753
   33MOL   C66735291   5.781   3.811   3.014 -0.9905  0.0298 -0.3079
   33MOL   C66835292   5.656   3.703   3.191  0.5541  0.6777  1.2675
   33MOL   C66935293   5.534   3.764   2.976 -0.6292 -0.3608 -0.4423
   33MOL   C67035294   5.482   3.632   2.973  0.6512 -0.1405  0.2994
   33MOL   C67135295   5.386   3.594   2.877 -0.1927 -0.1330  0.2431
   33MOL   C67235296   5.352   3.686   2.773 -0.1805  0.2731 -0.3196
   33MOL   O67335297   5.269   3.654   2.665 -0.1799  0.9092 -0.1112
   33MOL   C67435298   5.408   3.814   2.772 -0.2968 -0.1857 -0.8907
   33MOL   C67535299   5.495   3.850   2.875 -0.1916 -0.5322 -0.2931
   33MOL   C67635300   5.643   4.078   3.099  0.0493 -0.1154  0.1483
   33MOL   C67735301   5.596   4.190   3.166 -0.4833  0.1133  0.2911
   33MOL   C67835302   5.646   4.253   3.512  0.3031  0.3268  0.5432
   33MOL   C67935303   5.697   4.285   3.643  0.4509 -0.3326 -0.1254
   33MOL   C68035304   5.928   4.527   3.716  0.4842  0.1581 -0.5359
   33MOL   C68135305   6.065   4.527   3.678  0.2093 -0.5684 -0.3892
   33MOL   H68235306   6.202   4.366   3.950 -1.5382 -0.3577  2.0833
   33MOL   H68335307   5.960   4.355   4.013 -0.3153 -1.4416 -1.8802
   33MOL   H68435308   5.506   4.546   3.716 -2.7242 -0.0533 -0.9347
   33MOL   H68535309   5.381   4.469   3.497 -1.5467 -0.2059  2.8741
   33MOL   H68635310   5.379   4.045   3.387  0.3219 -0.5336 -0.6108
   33MOL   H68735311   5.455   3.852   3.278  1.3032 -0.4769 -1.2179
   33MOL   H68835312   5.795   3.718   2.959 -3.8412 -1.3749  1.2119
   33MOL   H68935313   5.866   3.813   3.081 -0.0393 -2.6590 -1.3356
   33MOL   H69035314   5.796   3.884   2.934 -0.5369 -1.0827 -1.2567
   33MOL   H69135315   5.717   3.745   3.270  2.5621 -0.6488  0.4542
   33MOL   H69235316   5.561   3.672   3.235 -0.0962  0.7095 -0.0952
   33MOL   H69335317   5.697   3.612   3.149 -1.3788 -0.0967  0.9750
   33MOL   H69435318   5.510   3.560   3.048 -0.4501 -0.8487  0.0453
   33MOL   H69535319   5.351   3.491   2.875  0.2332 -0.2746 -0.1060
   33MOL   H69635320   5.390   3.885   2.693 -0.0533 -1.0949 -1.7626
   33MOL   H69735321   5.547   3.942   2.853  1.6029 -1.5106 -0.2424
   33MOL   H69835322   5.709   4.086   3.013 -0.7985  1.7450 -0.3540
   33MOL   H69935323   5.633   4.290   3.148  2.1976 -0.6980  1.1514
   33MOL   H70035324   5.694   4.179   3.450 -2.0262 -1.0040  0.2668
   33MOL   H70135325   5.776   4.236   3.699  1.2742  0.6215 -0.4271
   33MOL   H70235326   5.847   4.558   3.652  0.4163  2.0853  0.4251
   33MOL   H70335327   6.110   4.557   3.585  1.5277 -1.2120  0.0214
   33MOL   C70435328   5.183   3.546   2.669  0.1328 -0.6376 -0.2624
   33MOL   C70535329   5.046   3.562   2.723 -0.0635  0.2695  1.0894
   33MOL   C70635330   4.950   3.466   2.684 -0.2959 -0.4056  0.0202
   33MOL   C70735331   4.981   3.357   2.605 -0.0079 -0.0552 -0.4018
   33MOL   S70835332   4.858   3.229   2.573  0.0503  0.0997  0.0055
   33MOL   O70935333   4.869   3.201   2.428 -0.2948 -0.4094  0.0465
   33MOL   O71035334   4.731   3.261   2.638  0.4575 -0.2624  0.1138
   33MOL   C71135335   4.911   3.078   2.663  0.1888 -0.7646 -0.5675
   33MOL   C71235336   4.837   2.958   2.653  0.4188  0.3554 -0.2410
   33MOL   C71335337   4.873   2.845   2.732  0.8384 -0.1872  0.3412
   33MOL   C71435338   4.989   2.849   2.812  0.0510 -0.2597  0.2953
   33MOL   O71535339   5.021   2.737   2.881 -0.0879  0.4375 -0.0754
   33MOL   C71635340   5.077   2.752   3.004 -0.1015  0.0545 -0.1079
   33MOL   C71735341   5.019   2.832   3.102  0.5355 -0.0927 -0.2420
   33MOL   C71835342   5.081   2.874   3.219  0.1309 -0.0078 -1.0497
   33MOL   C71935343   5.206   2.811   3.249  0.0550 -0.0811 -0.5845
   33MOL   C72035344   5.256   2.839   3.393  0.0812  0.4806  0.6923
   33MOL   C72135345   5.144   2.789   3.491 -0.2907 -0.1308  0.0263
   33MOL   C72235346   5.388   2.767   3.412 -0.8941 -0.5296 -0.8791
   33MOL   C72335347   5.283   2.993   3.413  0.0730  0.3337  1.1021
   33MOL   C72435348   5.240   3.061   3.528 -0.5105  0.6785 -0.5885
   33MOL   C72535349   5.258   3.197   3.541 -0.2450 -0.1446 -0.1852
   33MOL   C72635350   5.328   3.275   3.447  0.1884 -0.1995 -0.4675
   33MOL   O72735351   5.363   3.407   3.464 -0.3737 -0.1330  0.1072
   33MOL   C72835352   5.382   3.204   3.338  0.2621  0.2329  0.0942
   33MOL   C72935353   5.362   3.065   3.317  0.0524 -0.3385  0.1752
   33MOL   C73035354   5.276   2.737   3.152  0.3067  0.5100  0.6503
   33MOL   C73135355   5.210   2.707   3.028  0.0488  0.3184  0.0698
   33MOL   C73235356   5.069   2.972   2.814  0.1442 -0.3326  0.3278
   33MOL   C73335357   5.028   3.086   2.747 -0.2259 -0.6005 -0.3590
   33MOL   C73435358   5.112   3.335   2.556  0.3134 -0.1735 -0.6096
   33MOL   C73535359   5.216   3.431   2.595 -0.2580  0.3348  0.4624
   33MOL   H73635360   5.016   3.659   2.759  1.1813  0.9569  0.3306
   33MOL   H73735361   4.848   3.474   2.721 -0.5192 -2.1373 -0.1831
   33MOL   H73835362   4.744   2.962   2.600  0.1784 -0.2411  0.1276
   33MOL   H73935363   4.812   2.757   2.715  2.3182 -0.7661 -2.4334
   33MOL   H74035364   4.922   2.874   3.077  0.3136 -1.2837 -1.4097
   33MOL   H74135365   5.034   2.945   3.285 -0.1234 -1.7455  0.6945
   33MOL   H74235366   5.053   2.844   3.470  0.5395  0.6857 -1.5333
   33MOL   H74335367   5.172   2.805   3.595  3.0884 -1.2007 -0.6443
   33MOL   H74435368   5.123   2.683   3.480 -0.8170 -0.1353  1.0443
   33MOL   H74535369   5.472   2.799   3.350  1.1056 -2.8215  0.5526
   33MOL   H74635370   5.429   2.776   3.513 -3.1010  3.0163 -0.2288
   33MOL   H74735371   5.385   2.659   3.399 -0.0577 -0.7884  0.9095
   33MOL   H74835372   5.190   3.008   3.608  1.0706  0.0046 -0.0221
   33MOL   H74935373   5.215   3.248   3.626  1.0522 -0.4602  0.6835
   33MOL   H75035374   5.441   3.264   3.271  3.9803 -3.0345  0.2445
   33MOL   H75135375   5.390   3.017   3.224 -0.4043 -2.9483  1.3472
   33MOL   H75235376   5.372   2.691   3.172  0.3310 -1.6437 -3.8169
   33MOL   H75335377   5.254   2.658   2.942 -2.3628 -1.5750 -0.1275
   33MOL   H75435378   5.162   2.975   2.868  0.9555 -0.1894 -1.0549
   33MOL   H75535379   5.094   3.171   2.760  2.0761 -2.4846  0.7714
   33MOL   H75635380   5.119   3.245   2.498  0.3958 -0.7088  0.2167
   33MOL   H75735381   5.311   3.426   2.544  0.2276 -1.6474  1.5059
   33MOL   C75835382   5.476   3.431   3.538  0.1299  0.6222 -0.3932
   33MOL   C75935383   5.600   3.446   3.477  0.1554 -0.5377 -0.0236
   33MOL   C76035384   5.711   3.485   3.553 -0.8219  0.1765 -0.2628
   33MOL   C76135385   5.692   3.519   3.694  0.3411  0.1441  0.0116
   33MOL   S76235386   5.830   3.571   3.786 -0.0838  0.7892  0.1780
   33MOL   O76335387   5.920   3.456   3.812 -0.2575 -0.4610 -0.7024
   33MOL   O76435388   5.784   3.652   3.898 -0.0854  0.0874  0.2443
   33MOL   C76535389   5.907   3.685   3.669 -1.2691  0.3202  0.3967
   33MOL   C76635390   6.036   3.639   3.618 -0.3200 -0.2425  0.1198
   33MOL   C76735391   6.101   3.723   3.524  0.1147  0.8501  0.1392
   33MOL   C76835392   6.052   3.851   3.484 -0.0469 -0.1196  1.0903
   33MOL   O76935393   6.121   3.924   3.390 -0.2704  0.2548 -0.5499
   33MOL   C77035394   6.073   4.045   3.353  0.0072 -0.2111 -0.1888
   33MOL   C77135395   6.031   4.064   3.222 -0.5987  0.1746  0.2976
   33MOL   C77235396   5.979   4.193   3.185  0.4827  0.2480  0.2097
   33MOL   C77335397   5.974   4.300   3.284  0.4497  0.2374 -0.1916
   33MOL   C77435398   5.935   4.441   3.242 -0.5891 -0.1756  0.3225
   33MOL   C77535399   5.889   4.456   3.097 -0.0419 -0.2976 -0.4284
   33MOL   C77635400   5.810   4.480   3.332  0.4685 -0.0176 -0.2746
   33MOL   C77735401   6.052   4.546   3.270 -0.5058  0.2979  0.7334
   33MOL   C77835402   6.184   4.509   3.239 -0.5949 -0.0971  1.0009
   33MOL   C77935403   6.291   4.604   3.264 -0.0899  0.4669 -0.2966
   33MOL   C78035404   6.255   4.732   3.315  0.4337 -0.2694  0.5521
   33MOL   O78135405   6.357   4.822   3.351  0.2130 -0.4911 -1.0170
   33MOL   C78235406   6.125   4.765   3.347 -0.2985 -0.3602  0.2234
   33MOL   C78335407   6.027   4.673   3.322 -0.0102  0.4521 -0.3116
   33MOL   C78435408   6.024   4.275   3.415  0.4049 -0.2780 -0.2644
   33MOL   C78535409   6.065   4.147   3.448 -0.7200  0.0943 -0.1567
   33MOL   C78635410   5.919   3.884   3.530 -0.0449 -0.5320 -1.0717
   33MOL   C78735411   5.849   3.807   3.627 -0.2504  0.4168 -0.6449
   33MOL   C78835412   5.570   3.499   3.753  0.2241 -0.7494 -0.2566
   33MOL   C78935413   5.462   3.454   3.675  0.4340  0.2440  0.1674
   33MOL   H79035414   5.601   3.435   3.369  0.7560 -0.2967 -0.0443
   33MOL   H79135415   5.805   3.505   3.503  0.1714 -1.0148  1.0949
   33MOL   H79235416   6.060   3.535   3.635  1.0992  0.2563  1.2698
   33MOL   H79335417   6.199   3.692   3.493 -1.1751 -1.3821 -1.8011
   33MOL   H79435418   6.038   3.987   3.147  0.3990  0.2779  0.2739
   33MOL   H79535419   5.941   4.197   3.084  1.1762 -0.8334 -0.1010
   33MOL   H79635420   5.843   4.552   3.074  0.4957 -0.2371 -1.2863
   33MOL   H79735421   5.809   4.384   3.079 -1.8663  1.9035 -1.4166
   33MOL   H79835422   5.969   4.434   3.026  1.6786  1.9135  0.7647
   33MOL   H79935423   5.837   4.498   3.436 -0.5359  1.7933 -0.2937
   33MOL   H80035424   5.762   4.575   3.307  1.4477 -0.0054 -2.1712
   33MOL   H80135425   5.724   4.413   3.327 -1.5921  2.4508  0.6378
   33MOL   H80235426   6.212   4.410   3.208 -2.5803 -0.1966 -0.5538
   33MOL   H80335427   6.394   4.577   3.247  0.4406  3.8354 -3.0031
   33MOL   H80435428   6.090   4.859   3.385 -0.5652  1.0676 -3.4055
   33MOL   H80535429   5.926   4.706   3.342 -0.3086 -0.3159 -0.5535
   33MOL   H80635430   6.039   4.350   3.492  0.5588 -1.4538  0.8806
   33MOL   H80735431   6.102   4.130   3.548  2.2978  3.5662 -0.5952
   33MOL   H80835432   5.869   3.974   3.497 -0.5379 -0.0333  0.9396
   33MOL   H80935433   5.749   3.834   3.660 -0.0285 -0.5738  0.8777
   33MOL   H81035434   5.554   3.525   3.856  0.1000  1.2028 -0.7512
   33MOL   H81135435   5.363   3.453   3.718  0.6448  1.4443  0.7029
   33MOL   C81235436   6.340   4.911   3.453 -0.5872 -0.4986 -0.5706
   33MOL   C81335437   6.394   5.042   3.433  0.6944 -0.6241 -0.0835
   33MOL   C81435438   6.411   5.130   3.544  0.1858 -0.0425 -0.1473
   33MOL   C81535439   6.372   5.093   3.673 -0.0025  0.2896  0.2864
   33MOL   S81635440   6.378   5.200   3.819 -0.2024 -0.2217  0.0767
   33MOL   O81735441   6.314   5.149   3.938  0.1008 -0.1546 -0.2981
   33MOL   O81835442   6.342   5.339   3.776 -0.1479  0.3942  0.0964
   33MOL   C81935443   6.551   5.220   3.862 -0.3214  0.1612 -1.0095
   33MOL   C82035444   6.615   5.342   3.821 -0.8134  0.4819  0.1101
   33MOL   C82135445   6.741   5.369   3.884  0.3342 -0.7774  0.0327
   33MOL   C82235446   6.818   5.270   3.945 -0.1052 -0.1717  0.0915
   33MOL   O82335447   6.945   5.296   3.992 -0.0015  0.7132 -0.0048
   33MOL   C82435448   7.051   5.223   3.963  0.3845  0.1221  0.1948
   33MOL   C82535449   7.142   5.193   4.071  0.4938 -0.8775  0.6658
   33MOL   C82635450   7.250   5.109   4.046  0.4988 -0.5897 -0.1719
   33MOL   C82735451   7.279   5.061   3.917 -0.1092 -0.4324  0.2497
   33MOL   C82835452   7.403   4.978   3.889  0.4546 -0.7787 -0.8344
   33MOL   C82935453   7.492   5.068   3.802  0.3691 -0.7400 -0.6144
   33MOL   C83035454   7.488   4.940   4.016 -1.0524  0.2383  0.1854
   33MOL   C83135455   7.371   4.843   3.819  0.8875  0.1247  0.6622
   33MOL   C83235456   7.298   4.742   3.892  0.1469  0.4067  0.1718
   33MOL   C83335457   7.275   4.611   3.839  0.3777 -0.3273 -0.4767
   33MOL   C83435458   7.313   4.587   3.704 -0.2075  0.2927  0.2797
   33MOL   O83535459   7.278   4.473   3.631  0.2365 -0.1532 -0.1071
   33MOL   C83635460   7.389   4.684   3.637  0.2162 -1.6680  0.1690
   33MOL   C83735461   7.414   4.815   3.687 -0.8067  0.2022 -0.5565
   33MOL   C83835462   7.194   5.093   3.813  0.3183  0.3867 -0.2328
   33MOL   C83935463   7.074   5.175   3.832 -0.2429 -0.1342  0.2600
   33MOL   C84035464   6.753   5.151   3.984 -0.0556  0.1271 -0.5752
   33MOL   C84135465   6.620   5.132   3.948  0.4723  0.3282  0.2882
   33MOL   C84235466   6.297   4.970   3.693  0.4221  0.3700 -0.2674
   33MOL   C84335467   6.289   4.877   3.581 -0.4573  0.2535 -0.1943
   33MOL   H84435468   6.437   5.058   3.336  0.4229 -0.6777 -0.2124
   33MOL   H84535469   6.460   5.224   3.524 -2.9016  1.9893  1.4319
   33MOL   H84635470   6.565   5.408   3.752  0.2653 -0.0625 -1.2151
   33MOL   H84735471   6.799   5.455   3.854  0.4871 -1.9402 -3.2566
   33MOL   H84835472   7.132   5.248   4.163 -2.5083 -0.7674  0.3215
   33MOL   H84935473   7.317   5.083   4.127 -0.0356  1.6021  0.9867
   33MOL   H85035474   7.589   5.020   3.794 -0.0806 -1.2465 -3.6884
   33MOL   H85135475   7.515   5.167   3.842  1.2448  0.4041 -3.8089
   33MOL   H85235476   7.453   5.094   3.704  1.2569  0.2365 -0.7112
   33MOL   H85335477   7.517   5.037   4.057 -1.7995  0.8295 -0.6655
   33MOL   H85435478   7.442   4.881   4.095  1.2169 -4.1055 -1.5932
   33MOL   H85535479   7.580   4.892   3.984 -1.3541  0.0623 -0.4078
   33MOL   H85635480   7.255   4.756   3.990  0.8358  0.6608  0.4444
   33MOL   H85735481   7.225   4.537   3.899  0.0709  0.0134 -0.3080
   33MOL   H85835482   7.411   4.659   3.535 -0.8439  0.0464 -0.4833
   33MOL   H85935483   7.480   4.878   3.630  0.0804  0.5707  0.8388
   33MOL   H86035484   7.228   5.060   3.716 -0.6234  0.2147 -0.5173
   33MOL   H86135485   7.001   5.186   3.754  1.1534 -0.0761 -1.0603
   33MOL   H86235486   6.806   5.079   4.045  0.8449  1.0749 -0.2296
   33MOL   H86335487   6.569   5.046   3.988 -2.4031  0.4543 -2.9307
   33MOL   H86435488   6.264   4.950   3.794  0.7920 -2.4085 -0.6629
   33MOL   H86535489   6.244   4.780   3.599  1.0074 -0.2124  1.0632
   33MOL   C86635490   7.236   4.363   3.697 -0.4079  0.0540 -0.2349
   33MOL   C86735491   7.100   4.348   3.721 -1.0868  0.3856  0.0256
   33MOL   C86835492   7.048   4.235   3.795 -0.0790  0.1922  0.0285
   33MOL   C86935493   7.145   4.130   3.812  0.8437  0.7921  0.3169
   33MOL   S87035494   7.087   3.983   3.908  0.1805  0.0668  0.1897
   33MOL   O87135495   7.174   3.869   3.868 -0.3728  0.1312 -0.1614
   33MOL   O87235496   6.944   3.978   3.887  0.2958 -0.1291 -0.2608
   33MOL   C87335497   7.103   4.022   4.078 -0.1649 -0.5012 -0.6927
   33MOL   C87435498   7.027   3.959   4.177 -0.9168  0.1724 -1.0147
   33MOL   C87535499   7.047   3.991   4.313 -0.2618 -0.3169  0.5364
   33MOL   C87635500   7.148   4.086   4.351  0.4320  0.6265 -0.1119
   33MOL   O87735501   7.142   4.132   4.477  0.5995 -0.2192 -0.3352
   33MOL   C87835502   7.250   4.209   4.527  0.4280 -0.0030 -0.3737
   33MOL   C87935503   7.233   4.344   4.561 -0.6099 -0.3871  0.0156
   33MOL   C88035504   7.339   4.421   4.623 -1.0811  0.3729 -0.3279
   33MOL   C88135505   7.452   4.348   4.666  0.0121  0.2510 -0.1817
   33MOL   C88235506   7.557   4.420   4.764 -0.3929 -0.2143  0.1709
   33MOL   C88335507   7.541   4.345   4.896  0.0967  0.0249  0.2207
   33MOL   C88435508   7.702   4.394   4.720 -0.0371  0.4019  0.0532
   33MOL   C88535509   7.537   4.570   4.770  0.2350 -0.8586 -0.0820
   33MOL   C88635510   7.541   4.644   4.650 -0.9986  0.3627  0.7933
   33MOL   C88735511   7.522   4.780   4.643  0.4237 -0.6124 -0.1738
   33MOL   C88835512   7.492   4.849   4.765  0.3491  0.3292  0.2776
   33MOL   O88935513   7.474   4.981   4.766 -0.1580 -0.4988  0.3336
   33MOL   C89035514   7.485   4.779   4.890 -0.2262 -0.5537  0.0514
   33MOL   C89135515   7.514   4.642   4.885  0.3016 -0.4076 -0.6416
   33MOL   C89235516   7.475   4.214   4.626  0.1518 -0.0181  0.1499
   33MOL   C89335517   7.375   4.140   4.563 -0.3683 -0.2520 -0.0628
   33MOL   C89435518   7.233   4.140   4.249  0.1259 -0.2243  0.3647
   33MOL   C89535519   7.211   4.105   4.116 -0.3452  1.4632  0.2193
   33MOL   C89635520   7.284   4.136   3.772  0.6314 -0.2306 -0.3687
   33MOL   C89735521   7.330   4.263   3.724 -0.6825  0.0785  0.3098
   33MOL   H89835522   7.046   4.440   3.706 -1.1989  0.4950  1.0402
   33MOL   H89935523   6.946   4.236   3.829  0.1628 -0.2921  0.7743
   33MOL   H90035524   6.953   3.889   4.139 -1.6572 -0.6976  1.9070
   33MOL   H90135525   6.978   3.946   4.383 -1.5164  0.8493  0.0782
   33MOL   H90235526   7.133   4.370   4.530 -0.5082 -0.8569 -0.7385
   33MOL   H90335527   7.325   4.522   4.658 -0.6294  0.1841  0.3984
   33MOL   H90435528   7.553   4.237   4.888  0.9871  0.2632 -2.0790
   33MOL   H90535529   7.440   4.359   4.936 -0.2745 -1.3220 -0.2166
   33MOL   H90635530   7.610   4.364   4.978 -3.4759 -1.5027  3.7604
   33MOL   H90735531   7.786   4.432   4.778  1.8459 -2.5769 -0.6183
   33MOL   H90835532   7.722   4.289   4.697  0.7853  0.4270  0.6218
   33MOL   H90935533   7.714   4.427   4.617  1.4611 -1.2649 -0.3429
   33MOL   H91035534   7.567   4.595   4.557  1.4088  0.3286  1.4631
   33MOL   H91135535   7.519   4.827   4.546  1.5579  0.5569  0.3484
   33MOL   H91235536   7.471   4.827   4.985  0.1264  0.6786 -0.5101
   33MOL   H91335537   7.499   4.596   4.981  1.4469  1.3252  0.3950
   33MOL   H91435538   7.550   4.153   4.673  0.7028  0.5810  0.0534
   33MOL   H91535539   7.383   4.033   4.557 -1.5043 -0.2248 -3.5078
   33MOL   H91635540   7.317   4.204   4.270  0.3344 -0.5027  0.3858
   33MOL   H91735541   7.285   4.134   4.043  0.8253 -1.0340  0.3662
   33MOL   H91835542   7.355   4.058   3.795  0.1112 -0.7298 -0.4376
   33MOL   H91935543   7.438   4.260   3.718 -0.8246 -0.9596 -2.3451
   33MOL   C92035544   7.577   5.066   4.717 -0.5294 -0.9110 -0.1430
   33MOL   C92135545   7.693   5.076   4.798 -0.0700 -0.0498 -0.1660
   33MOL   C92235546   7.794   5.156   4.758 -0.2965 -0.3954  0.4802
   33MOL   C92335547   7.790   5.217   4.628 -0.6251  0.4346 -0.6280
   33MOL   S92435548   7.914   5.345   4.606 -0.1825 -0.2998  0.2370
   33MOL   O92535549   8.039   5.272   4.570  0.4782 -0.4653  0.2058
   33MOL   O92635550   7.917   5.418   4.735  0.2828 -0.0182 -0.2928
   33MOL   C92735551   7.871   5.454   4.474 -0.1387 -0.5493  0.4467
   33MOL   C92835552   7.771   5.552   4.499 -0.7376  0.2228 -0.5166
   33MOL   C92935553   7.757   5.654   4.403  0.5889  0.4987  0.2518
   33MOL   C93035554   7.835   5.654   4.287 -0.3165 -0.5013 -0.2698
   33MOL   O93135555   7.832   5.770   4.216  0.2938 -0.4877  0.1100
   33MOL   C93235556   7.743   5.791   4.123  0.6836 -0.1579 -1.3474
   33MOL   C93335557   7.686   5.692   4.047  0.0267  0.2606  0.2251
   33MOL   C93435558   7.583   5.725   3.958 -0.0196 -0.1439  0.4621
   33MOL   C93535559   7.535   5.855   3.939 -0.0984 -0.2264 -0.8509
   33MOL   C93635560   7.416   5.878   3.845 -0.6042  0.0951  0.1641
   33MOL   C93735561   7.433   6.023   3.791  0.6593 -0.6674  0.5175
   33MOL   C93835562   7.431   5.798   3.711  0.1905 -0.0669 -0.3593
   33MOL   C93935563   7.276   5.847   3.902  0.1574  0.2914 -0.9518
   33MOL   C94035564   7.205   5.940   3.979 -0.7267  0.6302 -0.2813
   33MOL   C94135565   7.070   5.909   4.011 -0.0302 -0.3078  0.2620
   33MOL   C94235566   7.011   5.778   3.995  0.0653  0.5333 -0.5207
   33MOL   O94335567   6.884   5.742   4.040 -0.1895  0.1698 -0.0256
   33MOL   C94435568   7.096   5.681   3.935 -0.0075 -0.2370 -0.5416
   33MOL   C94535569   7.223   5.714   3.891  0.4236 -0.9499  0.7018
   33MOL   C94635570   7.598   5.954   4.015  0.3002  0.1315  0.0349
   33MOL   C94735571   7.701   5.927   4.100  0.0247 -0.6425  0.1260
   33MOL   C94835572   7.929   5.553   4.259  0.3237 -0.1273 -0.2770
   33MOL   C94935573   7.953   5.456   4.359  0.3176  0.2966 -0.5163
   33MOL   C95035574   7.678   5.207   4.544 -0.6226 -0.6993  0.0925
   33MOL   C95135575   7.567   5.131   4.595  0.2880 -0.1137  0.6259
   33MOL   H95235576   7.701   5.021   4.891  0.2216 -1.1415 -0.8202
   33MOL   H95335577   7.881   5.171   4.820 -0.4109  1.5458  0.1905
   33MOL   H95435578   7.724   5.561   4.595  1.3720  2.1365  0.3849
   33MOL   H95535579   7.692   5.739   4.418 -0.7370 -0.1419 -1.8182
   33MOL   H95635580   7.711   5.589   4.065 -1.8936  0.0844  2.0762
   33MOL   H95735581   7.537   5.641   3.908  0.1688 -0.6931  1.2002
   33MOL   H95835582   7.348   6.049   3.728  0.3947 -0.3680  0.9965
   33MOL   H95935583   7.525   6.028   3.734 -0.1312  1.2084 -0.6337
   33MOL   H96035584   7.431   6.094   3.874 -3.1687 -1.4024  1.1874
   33MOL   H96135585   7.449   5.691   3.714 -0.9544 -0.2952 -1.1424
   33MOL   H96235586   7.347   5.828   3.648 -0.2057 -0.5358 -0.0579
   33MOL   H96335587   7.525   5.820   3.660  0.1666  1.3361  0.1632
   33MOL   H96435588   7.248   6.039   3.985 -0.0655  0.4669 -2.0062
   33MOL   H96535589   7.014   5.983   4.065 -0.2628 -0.3240  0.0395
   33MOL   H96635590   7.067   5.576   3.934  0.5413 -0.3929 -2.3616
   33MOL   H96735591   7.270   5.633   3.837  1.3350 -0.9912  1.5390
   33MOL   H96835592   7.573   6.058   4.005  0.5648  0.0704 -1.2776
   33MOL   H96935593   7.746   5.999   4.167  0.2363 -1.5873  1.0267
   33MOL   H97035594   7.990   5.567   4.171 -1.7544  2.0545 -1.4224
   33MOL   H97135595   8.031   5.380   4.356 -1.2535 -1.3057 -1.8223
   33MOL   H97235596   7.677   5.244   4.443  0.1108 -1.2758 -0.1330
   33MOL   H97335597   7.475   5.133   4.538  0.7321 -2.0513 -0.2172
   33MOL   C97435598   6.783   5.801   3.973 -0.1098  0.7126  0.2908
   33MOL   C97535599   6.780   5.804   3.829  0.1349 -0.2861  0.4096
   33MOL   C97635600   6.681   5.880   3.763  0.5369  0.4422  0.3985
   33MOL   C97735601   6.571   5.933   3.843  0.0327 -0.7685  0.6633
   33MOL   S97835602   6.433   6.008   3.764 -0.0625  0.4272 -0.6037
   33MOL   O97935603   6.476   6.056   3.634  0.4166 -0.0437 -0.2039
   33MOL   O98035604   6.382   6.110   3.864  0.3500 -0.1505 -0.1868
   33MOL   C98135605   6.306   5.887   3.740 -0.7053  0.4695 -0.2255
   33MOL   C98235606   6.341   5.754   3.722 -0.0295  1.6883 -0.1527
   33MOL   C98335607   6.244   5.653   3.697  0.1052  0.1637 -0.1810
   33MOL   C98435608   6.109   5.692   3.696 -0.0461  0.0509 -0.1849
   33MOL   O98535609   6.010   5.601   3.685  0.3073 -0.0736  0.0080
   33MOL   C98635610   6.002   5.517   3.575 -0.2300  0.6073  0.4236
   33MOL   C98735611   6.061   5.394   3.591  0.3201 -0.3044 -0.5699
   33MOL   C98835612   6.049   5.299   3.480 -0.4270 -0.1708  0.4734
   33MOL   C98935613   5.997   5.344   3.358  0.4667  0.3478  0.0087
   33MOL   C99035614   5.992   5.254   3.232  0.0468  0.2959 -0.5319
   33MOL   C99135615   6.098   5.322   3.144  0.2716 -0.0755 -0.0162
   33MOL   C99235616   6.047   5.116   3.257  0.7270  0.3139 -0.0073
   33MOL   C99335617   5.854   5.239   3.174  0.3742  0.8471  0.0497
   33MOL   C99435618   5.839   5.232   3.031 -0.5719  0.3054 -0.3919
   33MOL   C99535619   5.714   5.202   2.981  0.0253 -0.1709  0.2167
   33MOL   C99635620   5.597   5.196   3.055  0.0359 -0.3374 -0.0924
   33MOL   O99735621   5.474   5.189   2.995  0.0048  0.4468  0.2227
   33MOL   C99835622   5.607   5.210   3.195 -0.6641 -0.7581  0.1035
   33MOL   C99935623   5.734   5.228   3.255 -1.0083 -0.4196 -0.4524
   33MOL     C135624   5.944   5.474   3.341  0.5511 -0.8778 -0.3866
   33MOL     C235625   5.947   5.560   3.451  0.4410 -0.6778 -0.0009
   33MOL     C335626   6.071   5.823   3.716  0.0388 -0.2567  0.0994
   33MOL     C435627   6.174   5.925   3.737  1.2137  0.3915  0.6497
   33MOL     C535628   6.572   5.915   3.985  0.4015 -0.7014  0.3472
   33MOL     C635629   6.678   5.853   4.047  0.7217 -0.4174  0.3680
   33MOL     H735630   6.860   5.759   3.773  1.4667  1.1466  1.1152
   33MOL     H835631   6.670   5.881   3.655 -2.1197  0.1203  0.6345
   33MOL     H935632   6.445   5.726   3.728 -0.2612  0.7367 -0.5289
   33MOL    H1035633   6.273   5.552   3.671  0.5708  0.7415 -1.9799
   33MOL    H1135634   6.100   5.382   3.691 -0.9254 -1.3957 -0.1961
   33MOL    H1235635   6.086   5.200   3.499 -0.4554 -0.5632 -1.3699
   33MOL    H1335636   6.118   5.262   3.055  1.3575  1.0405 -0.5465
   33MOL    H1435637   6.194   5.332   3.196  1.3756 -0.1472 -2.0101
   33MOL    H1535638   6.053   5.417   3.116 -2.0459 -0.7903  1.1320
   33MOL    H1635639   6.151   5.122   3.288  0.4183  1.0358  0.8925
   33MOL    H1735640   5.999   5.064   3.340 -0.0013  1.0332  0.0263
   33MOL    H1835641   6.036   5.047   3.173 -0.8673  0.7420 -0.1746
   33MOL    H1935642   5.925   5.219   2.966  0.3778 -1.1054  1.1030
   33MOL    H2035643   5.711   5.174   2.877  1.3162 -1.9593  0.6371
   33MOL    H2135644   5.518   5.221   3.255  0.8643  1.4295  2.0411
   33MOL    H2235645   5.745   5.239   3.362  0.0388  0.5301 -0.6488
   33MOL    H2335646   5.898   5.514   3.252 -0.6859  1.0502  1.0926
   33MOL    H2435647   5.902   5.658   3.444 -0.6784 -1.2853 -1.4317
   33MOL    H2535648   5.967   5.852   3.715 -0.0415 -0.4330 -3.2709
   33MOL    H2635649   6.146   6.029   3.745  3.2511  0.8124  2.7212
   33MOL    H2735650   6.489   5.949   4.045 -0.5475 -0.1284 -1.2644
   33MOL    H2835651   6.672   5.835   4.154 -1.7571 -0.8578  0.1725
   33MOL    C2935652   5.381   5.286   3.023 -0.2635  0.1525  0.5539
   33MOL    C3035653   5.255   5.247   3.072  0.0854  0.0172  0.0837
   33MOL    C3135654   5.160   5.347   3.090  0.6876  0.8619 -0.8869
   33MOL    C3235655   5.181   5.488   3.067 -0.6766  0.1187  0.1000
   33MOL    S3335656   5.048   5.599   3.096  0.2966 -0.0794 -0.4126
   33MOL    O3435657   4.922   5.544   3.035 -0.0716  0.3284 -0.0261
   33MOL    O3535658   5.102   5.728   3.046  0.8372 -0.3701  0.5534
   33MOL    C3635659   5.040   5.609   3.271  0.2372  0.2456 -0.5027
   33MOL    C3735660   4.914   5.626   3.330 -0.5963  0.5061  0.3920
   33MOL    C3835661   4.903   5.621   3.468 -0.5354 -0.8383  0.2508
   33MOL    C3935662   5.017   5.590   3.541 -0.9827  0.4985 -0.4524
   33MOL    O4035663   5.008   5.562   3.676 -0.3300 -0.2859 -0.1621
   33MOL    C4135664   4.972   5.442   3.722 -0.2576 -0.0917  0.4002
   33MOL    C4235665   5.045   5.390   3.836 -0.6493  0.2817  0.8016
   33MOL    C4335666   5.005   5.271   3.894 -0.6025 -0.9119  0.2106
   33MOL    C4435667   4.884   5.205   3.855 -0.1892  0.3479  0.6076
   33MOL    C4535668   4.828   5.084   3.934 -0.2346  0.2353 -0.1590
   33MOL    C4635669   4.702   5.020   3.868 -0.2444 -0.0460 -0.1458
   33MOL    C4735670   4.936   4.977   3.942  0.4493 -0.2935 -0.3841
   33MOL    C4835671   4.793   5.134   4.074 -0.7623 -0.4941 -0.0244
   33MOL    C4935672   4.838   5.071   4.199 -0.6437  0.0917  0.0045
   33MOL    C5035673   4.825   5.133   4.320 -0.0001  0.1527 -0.1414
   33MOL    C5135674   4.763   5.259   4.325  0.5697  0.3944  0.5867
   33MOL    O5235675   4.752   5.327   4.441 -0.0780  0.4435  0.4411
   33MOL    C5335676   4.712   5.322   4.209  0.4106  0.3357 -0.1267
   33MOL    C5435677   4.730   5.261   4.085 -0.0982 -0.7144 -0.4692
   33MOL    C5535678   4.806   5.258   3.744 -0.0483 -0.3399 -0.0676
   33MOL    C5635679   4.857   5.377   3.676 -0.6615  0.0552 -0.1666
   33MOL    C5735680   5.148   5.588   3.487 -0.1582 -0.0549  0.5679
   33MOL    C5835681   5.158   5.608   3.350  0.5247  0.0198 -0.3834
   33MOL    C5935682   5.311   5.524   3.016  0.0567 -0.2561  0.2860
   33MOL    C6035683   5.402   5.426   2.997  0.0444  0.1631 -0.0800
   33MOL    H6135684   5.226   5.145   3.091  0.1834  0.1464  0.9710
   33MOL    H6235685   5.066   5.310   3.128  2.2388 -1.4875  0.8406
   33MOL    H6335686   4.824   5.629   3.271  0.6099  1.4836 -1.4704
   33MOL    H6435687   4.804   5.617   3.512 -0.9122  2.9359 -0.1043
   33MOL    H6535688   5.134   5.442   3.869  0.0278 -0.3166 -0.0454
   33MOL    H6635689   5.060   5.235   3.981  2.2792  0.4703 -0.9897
   33MOL    H6735690   4.704   4.965   3.774  1.1198  0.3933 -0.3812
   33MOL    H6835691   4.621   5.093   3.865 -1.0313 -0.8897  0.1143
   33MOL    H6935692   4.672   4.955   3.951 -0.5639  1.9339  1.3270
   33MOL    H7035693   5.018   5.012   4.006 -1.0753  1.7173  0.5101
   33MOL    H7135694   4.900   4.887   3.991  4.2605 -1.4966  0.3826
   33MOL    H7235695   4.981   4.944   3.849 -0.4472 -1.2178 -0.4916
   33MOL    H7335696   4.888   4.976   4.207 -0.0114  0.3809 -0.4706
   33MOL    H7435697   4.863   5.090   4.412 -1.8567 -0.6697  0.2691
   33MOL    H7535698   4.661   5.416   4.220 -0.2674 -0.1349  0.7268
   33MOL    H7635699   4.698   5.313   3.996  0.0942 -1.0662 -0.7418
   33MOL    H7735700   4.722   5.201   3.709 -0.4518  0.0159  0.3180
   33MOL    H7835701   4.797   5.414   3.594  0.3699 -0.5459 -1.2078
   33MOL    H7935702   5.234   5.562   3.547  1.0418 -1.2082 -1.5699
   33MOL    H8035703   5.254   5.626   3.305  1.0102 -0.3979  0.4826
   33MOL    H8135704   5.344   5.620   2.979  2.3241 -0.9846  0.3216
   33MOL    H8235705   5.500   5.459   2.965  0.0465 -0.8353 -1.1580
   33MOL    H8335706   4.758   5.276   4.520 -1.8232 -0.7894 -0.1947
   34MOL     C135707   4.128   1.029   7.486  0.4152  0.0614  0.8481
   34MOL     C235708   4.001   1.065   7.536  0.0439 -0.2368  0.1939
   34MOL     C335709   3.978   1.074   7.672  0.2867  0.4154  0.0591
   34MOL     C435710   4.077   1.038   7.766 -0.7219  0.5122  0.2276
   34MOL     S535711   4.050   1.064   7.940  0.1833 -0.2989  0.0164
   34MOL     O635712   4.035   1.208   7.962  0.1652  0.1574 -0.1181
   34MOL     O735713   4.157   0.988   8.014 -0.3500 -0.1385  0.1079
   34MOL     C835714   3.900   0.982   7.977  0.6225 -0.5330 -0.2821
   34MOL     C935715   3.772   1.045   7.963  0.9970  0.4574 -0.2243
   34MOL    C1035716   3.656   0.970   7.995  0.7608  0.2620 -0.2682
   34MOL    C1135717   3.668   0.832   8.050 -0.3924 -0.5044  0.3653
   34MOL    O1235718   3.559   0.758   8.077  0.0858 -0.5060 -0.4026
   34MOL    C1335719   3.489   0.722   7.965  0.5755  0.5361  0.4266
   34MOL    C1435720   3.539   0.632   7.869 -0.8454  0.4095 -0.5086
   34MOL    C1535721   3.466   0.599   7.757  1.1151  0.5624 -0.4191
   34MOL    C1635722   3.346   0.664   7.720  0.3638 -0.2425  0.0105
   34MOL    C1735723   3.268   0.645   7.586 -1.2197 -0.5139 -0.0750
   34MOL    C1835724   3.322   0.515   7.519 -0.2384  0.1596 -0.0816
   34MOL    C1935725   3.112   0.627   7.613  0.0164 -0.1843  0.3672
   34MOL    C2035726   3.286   0.760   7.492 -0.0592 -0.1127  1.2631
   34MOL    C2135727   3.247   0.746   7.356 -0.4495  1.1333 -0.4805
   34MOL    C2235728   3.261   0.854   7.264 -0.5611 -0.0311 -0.3959
   34MOL    C2335729   3.310   0.976   7.305 -0.2316  0.3221  0.4071
   34MOL    O2435730   3.316   1.076   7.212 -0.2930 -0.0979 -0.4237
   34MOL    C2535731   3.352   0.988   7.436 -0.5160  0.4201 -1.6810
   34MOL    C2635732   3.345   0.879   7.529  0.2190 -0.2418 -0.3152
   34MOL    C2735733   3.293   0.760   7.812  0.0573 -0.4149 -0.0924
   34MOL    C2835734   3.361   0.779   7.939  0.1846 -0.3462 -0.3053
   34MOL    C2935735   3.795   0.779   8.066  0.5160 -0.4925  0.6339
   34MOL    C3035736   3.908   0.854   8.040 -1.5264  0.2561 -0.1152
   34MOL    C3135737   4.203   0.987   7.719 -0.1217  0.7870  0.2202
   34MOL    C3235738   4.232   0.988   7.580 -0.4914 -0.5278 -0.9251
   34MOL    H3335739   3.923   1.095   7.469 -0.3052  0.1371  0.7666
   34MOL    H3435740   3.889   1.118   7.715 -0.2968  0.1578 -0.8685
   34MOL    H3535741   3.760   1.145   7.925  2.9047  1.4791  1.7642
   34MOL    H3635742   3.556   1.007   7.981  0.7730 -0.0162 -1.1873
   34MOL    H3735743   3.629   0.575   7.887 -0.2389  0.7962 -2.2392
   34MOL    H3835744   3.506   0.519   7.696 -1.6493  0.7080 -2.5425
   34MOL    H3935745   3.273   0.479   7.429 -1.3107  0.1956  0.4779
   34MOL    H4035746   3.310   0.435   7.592 -1.8417 -0.8820 -1.4620
   34MOL    H4135747   3.427   0.507   7.490 -0.5614  0.7777 -1.4853
   34MOL    H4235748   3.086   0.552   7.688 -1.4209 -1.8435 -1.7533
   34MOL    H4335749   3.071   0.722   7.645 -0.0035  0.5031 -1.6741
   34MOL    H4435750   3.058   0.588   7.527 -1.7288 -1.8092  2.1156
   34MOL    H4535751   3.210   0.654   7.314  0.4008  1.3417 -1.7157
   34MOL    H4635752   3.227   0.841   7.162 -1.7021 -0.3846  0.0152
   34MOL    H4735753   3.398   1.081   7.465 -0.0498 -0.8782  1.9912
   34MOL    H4835754   3.382   0.902   7.628  1.5134 -0.5747 -0.7058
   34MOL    H4935755   3.208   0.819   7.783  0.3796  0.4917  0.7852
   34MOL    H5035756   3.332   0.849   8.015  1.6507  0.1813 -0.2116
   34MOL    H5135757   3.819   0.679   8.101 -2.3155 -1.6175 -0.4947
   34MOL    H5235758   4.007   0.817   8.061 -1.5729  0.6433  0.7995
   34MOL    H5335759   4.274   0.958   7.796 -1.5922  0.8988  1.6394
   34MOL    H5435760   4.327   0.953   7.541  1.1468  1.6106  0.9984
   34MOL    H5535761   4.141   1.033   7.379  2.0589  1.7696  1.0962
   34MOL    C5635762   3.264   1.193   7.252 -0.0265 -0.3997  0.6547
   34MOL    C5735763   3.345   1.303   7.213  0.1948  0.3663  0.2493
   34MOL    C5835764   3.309   1.430   7.255 -0.0237  0.3484 -0.3308
   34MOL    C5935765   3.184   1.452   7.322 -0.2988 -0.0419 -0.2712
   34MOL    S6035766   3.151   1.615   7.376 -0.2023  0.1922  0.2008
   34MOL    O6135767   3.193   1.709   7.274 -0.1732 -0.2945 -0.3015
   34MOL    O6235768   3.209   1.627   7.509 -0.0344  0.6510 -0.7397
   34MOL    C6335769   2.978   1.634   7.399  0.3926  0.0313 -0.5197
   34MOL    C6435770   2.889   1.572   7.308 -0.2605  0.0758 -1.0319
   34MOL    C6535771   2.752   1.582   7.317  0.5179  0.2286 -0.1979
   34MOL    C6635772   2.704   1.636   7.435 -0.5310 -0.5090 -0.5103
   34MOL    O6735773   2.570   1.641   7.455 -0.7931  0.5383  0.4429
   34MOL    C6835774   2.505   1.521   7.444 -0.0936 -0.6211 -0.0973
   34MOL    C6935775   2.422   1.498   7.335 -0.1374 -0.3275  0.6811
   34MOL    C7035776   2.349   1.374   7.340  0.3237 -0.5189  0.8453
   34MOL    C7135777   2.365   1.282   7.450 -0.8357  0.2834 -0.1121
   34MOL    C7235778   2.293   1.144   7.440  0.2370  0.3517 -0.5224
   34MOL    C7335779   2.304   1.087   7.300 -0.0487  0.2385 -0.8168
   34MOL    C7435780   2.352   1.036   7.533  0.1645 -0.0609  0.8154
   34MOL    C7535781   2.144   1.151   7.485  0.5762 -0.0180  0.1569
   34MOL    C7635782   2.115   1.212   7.610  0.5342  0.7141  0.0805
   34MOL    C7735783   1.983   1.222   7.647  0.7386  0.1003  0.1227
   34MOL    C7835784   1.880   1.164   7.567  0.4545 -0.2951 -0.0491
   34MOL    O7935785   1.751   1.189   7.603  0.0559  0.0972 -0.2658
   34MOL    C8035786   1.908   1.102   7.443  0.7620  0.6537  1.0373
   34MOL    C8135787   2.042   1.101   7.397 -0.0493  0.0960 -0.3426
   34MOL    C8235788   2.438   1.320   7.568 -0.4280  0.1261  0.3370
   34MOL    C8335789   2.506   1.439   7.560 -0.0646 -0.1220  0.1191
   34MOL    C8435790   2.787   1.695   7.532 -0.1026 -0.0443 -0.1168
   34MOL    C8535791   2.928   1.700   7.510 -0.7361  0.2411  0.3181
   34MOL    C8635792   3.095   1.344   7.346 -0.4116 -0.2559 -0.3109
   34MOL    C8735793   3.136   1.213   7.309 -0.1718 -0.4950 -0.7246
   34MOL    H8835794   3.432   1.285   7.151 -0.3891  0.4123 -0.5970
   34MOL    H8935795   3.368   1.513   7.219  1.1743 -1.1813 -1.9954
   34MOL    H9035796   2.928   1.516   7.224 -0.7769  1.2125 -2.0414
   34MOL    H9135797   2.688   1.538   7.242  2.7798 -2.8671 -0.4171
   34MOL    H9235798   2.415   1.568   7.252  0.1863 -1.2038 -0.0971
   34MOL    H9335799   2.278   1.350   7.263  1.7378  0.1314 -0.7055
   34MOL    H9435800   2.411   1.080   7.280 -0.3639 -2.1889 -1.8663
   34MOL    H9535801   2.268   1.150   7.219  3.0002  0.6801 -1.9015
   34MOL    H9635802   2.264   0.986   7.292 -3.1232  1.1089  2.5324
   34MOL    H9735803   2.348   1.073   7.636  0.5519 -0.2565  0.9031
   34MOL    H9835804   2.297   0.943   7.521 -2.0940  1.1581  1.4233
   34MOL    H9935805   2.456   1.008   7.513 -0.1283  1.0938 -2.6018
   34MOL   H10035806   2.189   1.259   7.672 -0.7465  1.0068  1.4294
   34MOL   H10135807   1.952   1.266   7.740  0.7058 -0.2803  0.2933
   34MOL   H10235808   1.820   1.077   7.386  1.1544 -1.3716  1.2728
   34MOL   H10335809   2.057   1.061   7.298 -0.8829 -1.9536  0.3336
   34MOL   H10435810   2.445   1.261   7.658 -0.7291 -0.2029  0.1482
   34MOL   H10535811   2.561   1.478   7.644  0.0335 -0.7489  0.3491
   34MOL   H10635812   2.739   1.730   7.622  0.5003  1.9612 -0.5518
   34MOL   H10735813   2.993   1.741   7.586 -1.7583 -0.0564  1.3749
   34MOL   H10835814   2.998   1.350   7.393  0.1482 -2.0218  1.1206
   34MOL   H10935815   3.070   1.130   7.330 -0.3232  0.0435  0.9701
   34MOL   C11035816   1.702   1.131   7.719  0.3813  0.1446 -0.2781
   34MOL   C11135817   1.666   0.994   7.710 -1.1558  0.0981  0.0984
   34MOL   C11235818   1.623   0.926   7.826 -0.1346  0.5695  0.3690
   34MOL   C11335819   1.597   0.999   7.941  0.2280  0.2332 -0.5781
   34MOL   S11435820   1.531   0.905   8.079 -0.1573 -0.1817 -0.1563
   34MOL   O11535821   1.620   0.788   8.097  0.2049 -0.0557  0.0411
   34MOL   O11635822   1.388   0.886   8.045  0.0637  0.4311  0.2150
   34MOL   C11735823   1.549   1.006   8.227  0.1450  0.2830 -0.2641
   34MOL   C11835824   1.675   1.025   0.040  0.7949 -0.1161  1.2414
   34MOL   C11935825   1.684   1.106   0.157 -0.1167 -0.2031 -0.2424
   34MOL   C12035826   1.565   1.156   0.211  0.1996 -0.4500 -0.4998
   34MOL   O12135827   1.572   1.229   0.323  0.3485 -0.1109 -0.4309
   34MOL   C12235828   1.566   1.177   0.452 -0.2615 -0.2985  1.6075
   34MOL   C12335829   1.676   1.110   0.508 -0.0986 -0.6141 -0.3085
   34MOL   C12435830   1.659   1.042   0.630 -0.4443 -0.8219 -0.0721
   34MOL   C12535831   1.536   1.048   0.703 -0.3754  0.6983  0.2784
   34MOL   C12635832   1.512   0.985   0.843  1.2248 -0.1139 -0.2512
   34MOL   C12735833   1.388   0.881   0.828 -0.5255  0.1575 -0.0938
   34MOL   C12835834   1.644   0.910   0.892  0.1357 -0.2276 -0.2618
   34MOL   C12935835   1.479   1.100   0.937 -0.3292 -0.6343 -0.1126
   34MOL   C13035836   1.372   1.094   1.034 -0.0715  0.4013 -0.1160
   34MOL   C13135837   1.350   1.203   1.123  1.0350 -0.0435  0.4096
   34MOL   C13235838   1.426   1.318   1.109 -0.1648  0.3320  0.4583
   34MOL   O13335839   1.401   1.420   1.194 -0.0303 -0.1552 -0.5985
   34MOL   C13435840   1.526   1.329   1.010  0.5294  1.3487 -0.0428
   34MOL   C13535841   1.553   1.218   0.926 -0.3522  0.1536  0.4643
   34MOL   C13635842   1.429   1.126   0.649 -0.4521 -0.5240  0.3244
   34MOL   C13735843   1.443   1.189   0.522  0.2716  0.3693  0.0511
   34MOL   C13835844   1.448   1.139   0.140  0.1314 -0.1009  0.0463
   34MOL   C13935845   1.433   1.069   0.019  0.2479  0.1372 -1.2777
   34MOL   C14035846   1.630   1.139   7.949  0.7308 -0.0403 -0.0079
   34MOL   C14135847   1.683   1.205   7.839  0.4076 -0.4206 -0.2733
   34MOL   H14235848   1.686   0.939   7.620  1.1259  0.9461  0.0453
   34MOL   H14335849   1.619   0.818   7.827  2.4056  0.4552  1.0061
   34MOL   H14435850   1.759   0.984   8.238  0.4602 -0.3017  0.8649
   34MOL   H14535851   1.782   1.132   0.195  0.0445  0.0644 -0.8407
   34MOL   H14635852   1.767   1.108   0.449 -0.1264  0.4142 -0.3971
   34MOL   H14735853   1.739   0.979   0.666 -0.0872 -1.3712 -1.7898
   34MOL   H14835854   1.420   0.804   0.757 -0.3470  0.1649 -0.0203
   34MOL   H14935855   1.292   0.914   0.786 -0.8067 -0.5297 -0.0029
   34MOL   H15035856   1.363   0.826   0.919 -0.6102  1.2847  0.5721
   34MOL   H15135857   1.720   0.981   0.925  1.4009 -1.6918 -0.0098
   34MOL   H15235858   1.627   0.854   0.984  0.8398  1.2710  0.8009
   34MOL   H15335859   1.696   0.850   0.818  1.3623 -1.0428  1.2432
   34MOL   H15435860   1.314   1.004   1.046  1.9780 -0.8632  0.5202
   34MOL   H15535861   1.266   1.205   1.191 -0.1388 -0.6468 -0.9897
   34MOL   H15635862   1.569   1.428   1.013  1.4170  0.9848 -0.7819
   34MOL   H15735863   1.641   1.219   0.863 -1.0062 -0.3538 -0.4536
   34MOL   H15835864   1.336   1.147   0.699 -1.4799  0.5101 -1.9132
   34MOL   H15935865   1.353   1.240   0.490  0.3673 -0.2876 -1.2886
   34MOL   H16035866   1.357   1.175   0.186  0.6034  0.0580  0.8573
   34MOL   H16135867   1.334   1.054   8.234 -0.6723 -2.5144  1.8562
   34MOL   H16235868   1.601   1.201   8.033  1.3705 -0.0161  0.1978
   34MOL   H16335869   1.690   1.312   7.848 -1.2292 -0.3474  0.2600
   34MOL   C16435870   1.428   1.394   1.325  0.5794  0.0249  0.7169
   34MOL   C16535871   1.564   1.398   1.363  1.0059  0.3186  0.1353
   34MOL   C16635872   1.604   1.367   1.495 -0.0026  0.0330  0.9951
   34MOL   C16735873   1.503   1.349   1.590  0.2333  0.1658 -0.3125
   34MOL   S16835874   1.553   1.320   1.768  0.0988 -0.0479 -0.1921
   34MOL   O16935875   1.560   1.175   1.796  0.8669 -0.0788  0.3183
   34MOL   O17035876   1.473   1.404   1.856  0.5745  0.0679  0.2989
   34MOL   C17135877   1.715   1.389   1.782  0.9514  0.2200 -0.1972
   34MOL   C17235878   1.738   1.508   1.853 -0.4907  0.6581 -0.5274
   34MOL   C17335879   1.865   1.574   1.855  0.7292  0.7674 -0.0528
   34MOL   C17435880   1.966   1.517   1.783  0.4967 -0.2526  0.2941
   34MOL   O17535881   2.087   1.581   1.789  0.3258  0.6615 -0.0108
   34MOL   C17635882   2.090   1.712   1.743 -0.2595 -0.3596 -0.2590
   34MOL   C17735883   2.129   1.821   1.826 -0.1272  0.3264 -0.3941
   34MOL   C17835884   2.153   1.949   1.777  0.0914 -0.1320 -0.1242
   34MOL   C17935885   2.145   1.975   1.639  0.5311  0.0899 -0.1432
   34MOL   C18035886   2.179   2.117   1.589 -0.2258  0.1759  0.3228
   34MOL   C18135887   2.170   2.238   1.685  0.0116 -0.2484 -0.7206
   34MOL   C18235888   2.332   2.114   1.543  0.0135  0.1930  0.1871
   34MOL   C18335889   2.087   2.153   1.471  0.0642 -0.1893  0.4860
   34MOL   C18435890   2.129   2.204   1.350 -0.0580 -0.1680 -0.2704
   34MOL   C18535891   2.041   2.236   1.248 -0.5230  0.6853 -0.1492
   34MOL   C18635892   1.903   2.218   1.261  0.3652  0.9988  0.2747
   34MOL   O18735893   1.825   2.246   1.153  0.3548  0.4202  0.6993
   34MOL   C18835894   1.857   2.179   1.388 -0.3003  0.3347 -0.5338
   34MOL   C18935895   1.949   2.147   1.492  0.5350 -0.5762 -0.5265
   34MOL   C19035896   2.111   1.868   1.551 -0.2662 -0.4707 -0.0795
   34MOL   C19135897   2.072   1.745   1.609 -0.2341  0.4557 -0.6208
   34MOL   C19235898   1.953   1.392   1.717 -0.0856  0.4266  0.8364
   34MOL   C19335899   1.827   1.324   1.721  0.5087 -0.1487  0.3539
   34MOL   C19435900   1.370   1.342   1.551 -0.1814  0.1582 -0.2810
   34MOL   C19535901   1.330   1.363   1.420 -0.6040 -0.0138 -0.4354
   34MOL   H19635902   1.639   1.429   1.290 -0.5072 -0.8189 -1.9605
   34MOL   H19735903   1.710   1.369   1.513  0.3997 -1.9732 -1.0517
   34MOL   H19835904   1.659   1.551   1.913  0.1928 -0.0333  0.8998
   34MOL   H19935905   1.873   1.660   1.920 -1.4690 -0.0909  1.3777
   34MOL   H20035906   2.139   1.797   1.930 -0.4002  0.9006 -0.2333
   34MOL   H20135907   2.184   2.028   1.844 -1.1005  0.4428 -0.2318
   34MOL   H20235908   2.073   2.243   1.734  1.1170  2.9345  1.2477
   34MOL   H20335909   2.190   2.335   1.639  2.1988 -1.4643 -2.4572
   34MOL   H20435910   2.230   2.237   1.776 -0.4355 -0.0378 -0.4244
   34MOL   H20535911   2.346   2.038   1.467 -0.7126 -0.7142  0.9447
   34MOL   H20635912   2.360   2.213   1.508  0.1430 -0.5930 -1.9914
   34MOL   H20735913   2.392   2.092   1.632 -1.8794  0.1138  1.4774
   34MOL   H20835914   2.234   2.204   1.326 -0.0353 -1.6262 -0.2045
   34MOL   H20935915   2.085   2.264   1.154 -0.6927 -0.2329 -0.5076
   34MOL   H21035916   1.751   2.171   1.409 -0.1031 -2.1273 -0.3410
   34MOL   H21135917   1.912   2.123   1.590 -0.3363  0.9273 -0.4765
   34MOL   H21235918   2.106   1.891   1.445  0.9387  1.7707  0.3179
   34MOL   H21335919   2.046   1.671   1.535 -0.1196  1.6457 -1.8688
   34MOL   H21435920   2.032   1.347   1.659 -0.0460  1.2011  0.2805
   34MOL   H21535921   1.806   1.225   1.684 -0.0549  0.8336 -2.0966
   34MOL   H21635922   1.303   1.302   1.625 -0.9087 -0.1476 -1.1074
   34MOL   H21735923   1.226   1.358   1.391 -0.4821  0.7752 -1.0418
   34MOL   C21835924   1.707   2.325   1.164 -0.7379  0.2266 -0.0560
   34MOL   C21935925   1.616   2.314   1.057  0.2336  0.2767  0.4860
   34MOL   C22035926   1.494   2.383   1.063  0.1005 -0.9464  0.6403
   34MOL   C22135927   1.464   2.463   1.172 -0.2678  0.8362 -1.0208
   34MOL   S22235928   1.323   2.575   1.161  0.0890  0.2118 -0.1044
   34MOL   O22335929   1.350   2.676   1.266 -0.3884 -0.4159 -0.0018
   34MOL   O22435930   1.199   2.496   1.155  0.7382 -0.1744 -0.7457
   34MOL   C22535931   1.340   2.657   0.996 -0.4921  0.1218  0.4180
   34MOL   C22635932   1.232   2.687   0.914  0.1598 -0.1200 -0.0151
   34MOL   C22735933   1.247   2.765   0.794  0.5553  0.0717  0.3147
   34MOL   C22835934   1.374   2.781   0.746 -0.1227  0.0672 -0.0021
   34MOL   O22935935   1.390   2.849   0.629  0.1564 -0.2796  0.0563
   34MOL   C23035936   1.470   2.794   0.533 -0.1473 -0.9702  0.6581
   34MOL   C23135937   1.462   2.661   0.497 -0.4631 -0.4521  0.2669
   34MOL   C23235938   1.563   2.608   0.412  0.7122  0.7429  0.1295
   34MOL   C23335939   1.662   2.689   0.359 -0.0694 -0.1490 -0.0703
   34MOL   C23435940   1.771   2.627   0.268  0.2731 -0.3426 -0.1075
   34MOL   C23535941   1.833   2.725   0.172  0.1100 -0.3205  0.4407
   34MOL   C23635942   1.898   2.584   0.349  0.0588 -0.2543 -0.1757
   34MOL   C23735943   1.707   2.511   0.177 -0.3585  0.0065  0.1452
   34MOL   C23835944   1.589   2.543   0.106 -0.5777  0.4055 -0.6031
   34MOL   C23935945   1.515   2.440   0.032  0.3990  0.4383 -0.3200
   34MOL   C24035946   1.554   2.309   0.041  0.0243  0.5780  0.0437
   34MOL   O24135947   1.475   2.211   8.233  0.4700 -0.2058  0.0365
   34MOL   C24235948   1.677   2.275   0.099 -0.6707  0.2711  0.3448
   34MOL   C24335949   1.749   2.373   0.173 -0.2870 -1.0093 -0.0535
   34MOL   C24435950   1.655   2.825   0.386 -0.6248  0.4702  0.4763
   34MOL   C24535951   1.558   2.883   0.472 -0.2251 -0.4106 -0.1597
   34MOL   C24635952   1.490   2.738   0.820  0.2527  0.7798  0.1585
   34MOL   C24735953   1.471   2.686   0.949 -0.1933 -0.3719 -0.0035
   34MOL   C24835954   1.559   2.482   1.272  0.0460 -0.0608 -0.3370
   34MOL   C24935955   1.677   2.406   1.273  0.5459  0.1290 -0.4472
   34MOL   H25035956   1.629   2.252   0.970 -0.6814 -0.1110  0.6202
   34MOL   H25135957   1.427   2.377   0.979  0.7763  0.6323 -0.0313
   34MOL   H25235958   1.132   2.649   0.929  0.5721 -1.4578 -0.6586
   34MOL   H25335959   1.164   2.782   0.727 -0.1174 -1.5056  0.7214
   34MOL   H25435960   1.390   2.602   0.551  0.1137 -2.0003 -0.6290
   34MOL   H25535961   1.578   2.503   0.395 -0.2830  0.4718  0.8648
   34MOL   H25635962   1.908   2.681   0.106 -0.1694 -0.2511  0.0786
   34MOL   H25735963   1.883   2.806   0.225  0.1063 -0.1336  0.1602
   34MOL   H25835964   1.761   2.772   0.105 -0.1128 -2.0466 -0.5641
   34MOL   H25935965   1.977   2.547   0.284  0.3758 -0.5820  0.3969
   34MOL   H26035966   1.939   2.672   0.400 -1.3795  0.5505 -0.3724
   34MOL   H26135967   1.858   2.511   0.419 -0.0613 -0.2517 -0.2421
   34MOL   H26235968   1.548   2.642   0.114 -2.3285 -0.2746 -0.8516
   34MOL   H26335969   1.421   2.466   8.238  0.1754 -0.9483 -0.6576
   34MOL   H26435970   1.717   2.174   0.102  0.0113  0.5211 -0.2962
   34MOL   H26535971   1.830   2.338   0.235 -0.0620  0.0459  0.2572
   34MOL   H26635972   1.734   2.881   0.338  0.0897 -2.1184 -1.4924
   34MOL   H26735973   1.548   2.990   0.477  0.0766 -0.2500 -2.4908
   34MOL   H26835974   1.589   2.758   0.780  0.1289  1.1424  0.0339
   34MOL   H26935975   1.554   2.653   1.009 -0.7325 -1.7324  0.0160
   34MOL   H27035976   1.534   2.547   1.354  0.1274  0.9412 -1.1070
   34MOL   H27135977   1.744   2.426   1.356 -1.3692 -1.4905  1.5796
   34MOL   C27235978   1.447   2.217   8.097 -0.6622  0.5841  0.3620
   34MOL   C27335979   1.547   2.176   8.005 -0.1368 -0.1712 -0.4936
   34MOL   C27435980   1.521   2.183   7.866 -0.0558 -0.0579 -0.1088
   34MOL   C27535981   1.392   2.216   7.819 -0.2921 -0.4804 -0.0882
   34MOL   S27635982   1.365   2.209   7.643  0.1153 -0.2438  0.2421
   34MOL   O27735983   1.448   2.110   7.576  0.1754  0.5884 -0.3105
   34MOL   O27835984   1.379   2.347   7.593  0.5540 -0.1232  0.1424
   34MOL   C27935985   1.195   2.159   7.616 -0.3989 -0.6723 -0.4788
   34MOL   C28035986   1.088   2.242   7.654 -0.0565  0.9513 -0.3066
   34MOL   C28135987   0.954   2.197   7.632 -0.2062  0.3206 -1.0464
   34MOL   C28235988   0.927   2.066   7.576  0.2864 -0.4329  0.4270
   34MOL   O28335989   0.797   2.026   7.558 -0.1209  0.1485  0.1742
   34MOL   C28435990   0.711   2.109   7.496 -0.4217  0.9686 -0.4960
   34MOL   C28535991   0.757   2.181   7.383  0.3569 -0.1373 -0.7149
   34MOL   C28635992   0.671   2.274   7.318 -0.1751 -0.1231 -0.0544
   34MOL   C28735993   0.528   2.274   7.349 -0.6075  0.1561  0.3516
   34MOL   C28835994   0.430   2.385   7.302 -0.7794  0.2892  0.1068
   34MOL   C28935995   0.487   2.522   7.316  0.2946  0.0084  0.5916
   34MOL   C29035996   0.411   2.372   7.148 -0.0592 -0.3695 -0.4683
   34MOL   C29135997   0.296   2.375   7.376 -0.0146 -0.9189  0.2448
   34MOL   C29235998   0.258   2.464   7.474 -0.1144  0.5385 -0.1900
   34MOL   C29335999   0.123   2.456   7.530  0.0762 -0.1254  0.2006
   34MOL   C29436000   0.035   2.356   7.484  0.4956 -0.2254  0.2439
   34MOL   O29536001   8.162   2.360   7.532 -0.3734 -0.0396  0.2353
   34MOL   C29636002   0.067   2.281   7.374 -0.4712 -0.2220  0.0816
   34MOL   C29736003   0.202   2.281   7.328 -0.0822  0.4054 -0.2602
   34MOL   C29836004   0.485   2.181   7.453 -0.2173  0.5815  0.1227
   34MOL   C29936005   0.576   2.103   7.528 -0.1854  0.8375 -0.8506
   34MOL   C30036006   1.035   1.978   7.546  0.6625 -0.1241  0.4164
   34MOL   C30136007   1.171   2.025   7.571  0.7393 -0.8628 -0.2549
   34MOL   C30236008   1.295   2.254   7.911  0.1725  0.4936 -0.0455
   34MOL   C30336009   1.315   2.246   8.049 -0.5339 -0.1216  0.3885
   34MOL   H30436010   1.645   2.152   8.044  0.6618  1.0619 -1.7185
   34MOL   H30536011   1.595   2.157   7.791  1.3811  0.7371  1.0001
   34MOL   H30636012   1.107   2.344   7.685 -1.7841  1.9383 -2.3967
   34MOL   H30736013   0.880   2.270   7.661 -0.0249 -0.1115  0.5401
   34MOL   H30836014   0.857   2.166   7.343  0.9194 -1.6850  1.1748
   34MOL   H30936015   0.699   2.342   7.238  1.2488  1.3279  1.6427
   34MOL   H31036016   0.506   2.538   7.422  1.9231  2.3215 -0.0219
   34MOL   H31136017   0.409   2.596   7.293 -0.5492 -0.6775  1.1956
   34MOL   H31236018   0.585   2.544   7.274 -0.2897  1.2508 -0.1445
   34MOL   H31336019   0.337   2.445   7.114 -0.6056 -0.9149 -0.4402
   34MOL   H31436020   0.506   2.400   7.101 -0.2760  0.5511 -0.3757
   34MOL   H31536021   0.386   2.276   7.104  0.8334 -0.7667 -0.1212
   34MOL   H31636022   0.325   2.535   7.520  1.3948 -1.1348  0.2407
   34MOL   H31736023   0.090   2.527   7.605  0.4800 -1.3297  1.5318
   34MOL   H31836024   8.253   2.212   7.326  0.9675 -0.3490 -1.8147
   34MOL   H31936025   0.220   2.228   7.235  2.1921  2.5303 -1.0767
   34MOL   H32036026   0.380   2.165   7.470  0.0988 -2.2304 -0.4105
   34MOL   H32136027   0.545   2.040   7.610 -0.3334  1.7285 -0.2100
   34MOL   H32236028   1.013   1.881   7.505  1.3603 -0.2536  0.3440
   34MOL   H32336029   1.257   1.961   7.556  1.1303 -0.7835  1.5037
   34MOL   H32436030   1.198   2.291   7.882  0.1253  0.5183  0.1403
   34MOL   H32536031   1.231   2.273   8.112 -1.2249  2.2047 -1.4948
   34MOL   C32636032   8.077   2.457   7.482  0.2813 -0.0704  0.1233
   34MOL   C32736033   7.948   2.463   7.542 -0.2585  1.1214  0.0505
   34MOL   C32836034   7.856   2.567   7.500  0.1908  0.1330  1.3185
   34MOL   C32936035   7.891   2.659   7.394 -0.5851 -0.4395  0.3816
   34MOL   S33036036   7.778   2.793   7.361  0.1608  0.2026  0.2617
   34MOL   O33136037   7.841   2.880   7.260 -0.2016 -0.3754  0.0368
   34MOL   O33236038   7.737   2.847   7.489 -0.1503 -0.2224 -0.1692
   34MOL   C33336039   7.639   2.700   7.293 -0.1657  0.0983 -0.4476
   34MOL   C33436040   7.669   2.627   7.177 -0.2740  0.2584 -0.3622
   34MOL   C33536041   7.574   2.531   7.131 -0.2505 -0.4456  0.4467
   34MOL   C33636042   7.443   2.533   7.180  0.1772  0.2634 -1.1373
   34MOL   O33736043   7.348   2.449   7.133  0.7409 -0.3507 -0.5423
   34MOL   C33836044   7.363   2.318   7.170  0.3303  0.2511  0.0344
   34MOL   C33936045   7.430   2.224   7.083 -0.4935  0.2278  0.5459
   34MOL   C34036046   7.450   2.090   7.131  0.0967 -1.1953 -0.6744
   34MOL   C34136047   7.409   2.046   7.260  0.1502  0.2814  0.2166
   34MOL   C34236048   7.443   1.903   7.308  0.6639 -0.0090 -0.8257
   34MOL   C34336049   7.431   1.893   7.461 -0.2167 -0.5638 -0.0868
   34MOL   C34436050   7.335   1.808   7.249 -0.5902  0.2571 -0.2527
   34MOL   C34536051   7.582   1.869   7.259 -0.3773 -0.1388 -0.1878
   34MOL   C34636052   7.615   1.749   7.195  0.2814 -0.2308 -0.1820
   34MOL   C34736053   7.748   1.718   7.165  0.9651 -0.6697  0.2361
   34MOL   C34836054   7.850   1.789   7.221 -0.3726 -0.7610  0.1890
   34MOL   O34936055   7.977   1.741   7.192 -0.3385  0.3493 -0.2004
   34MOL   C35036056   7.821   1.914   7.280  0.2073 -0.2930 -0.3575
   34MOL   C35136057   7.691   1.951   7.297  0.3358 -0.2656 -0.7554
   34MOL   C35236058   7.342   2.140   7.342 -0.0761 -0.6324  0.8426
   34MOL   C35336059   7.312   2.274   7.294  0.4481 -0.0031  0.3961
   34MOL   C35436060   7.416   2.622   7.289  0.7801 -0.7849 -0.4663
   34MOL   C35536061   7.514   2.701   7.352 -0.0787 -0.1810  0.5164
   34MOL   C35636062   8.018   2.651   7.329  0.5850  0.0361 -0.2397
   34MOL   C35736063   8.102   2.541   7.367  0.0697 -0.2172  0.0561
   34MOL   H35836064   7.923   2.391   7.619 -0.8416 -0.4767 -1.5814
   34MOL   H35936065   7.769   2.589   7.560  0.9672  1.8211  1.8538
   34MOL   H36036066   7.772   2.634   7.146  0.0395 -0.3008  0.5203
   34MOL   H36136067   7.602   2.469   7.047 -1.4633  0.5657 -0.7312
   34MOL   H36236068   7.469   2.253   6.987 -0.5401 -1.1670  0.0943
   34MOL   H36336069   7.501   2.021   7.066  0.5245 -1.5418  0.0214
   34MOL   H36436070   7.326   1.893   7.491 -0.4155 -0.9312 -0.7807
   34MOL   H36536071   7.483   1.968   7.520 -0.1725 -1.8348  1.5247
   34MOL   H36636072   7.464   1.792   7.485  0.4847 -0.2116  0.4598
   34MOL   H36736073   7.357   1.704   7.272 -2.4464 -0.3861 -1.3086
   34MOL   H36836074   7.235   1.824   7.290  0.4723 -1.5527  3.2529
   34MOL   H36936075   7.337   1.818   7.141  1.0152  0.3350 -0.2368
   34MOL   H37036076   7.542   1.685   7.148 -1.0522  1.7188 -0.8219
   34MOL   H37136077   7.767   1.627   7.110  0.7389 -1.2953  1.1726
   34MOL   H37236078   7.906   1.973   7.313 -0.3772  1.6538 -2.2158
   34MOL   H37336079   7.676   2.046   7.347  2.9098 -0.2283  0.0279
   34MOL   H37436080   7.298   2.112   7.436 -1.4915 -0.6931  0.1884
   34MOL   H37536081   7.259   2.338   7.363  0.0570  0.2066 -0.0963
   34MOL   H37636082   7.314   2.623   7.326  1.0385  0.7095  0.2703
   34MOL   H37736083   7.483   2.761   7.437  0.9179  2.5298 -0.9609
   34MOL   H37836084   8.044   2.725   7.255 -3.1008  0.3934 -1.2893
   34MOL   H37936085   8.201   2.535   7.323 -0.3402 -0.2869 -0.8692
   34MOL   C38036086   8.074   1.766   7.287 -0.2250 -0.2736  0.3320
   34MOL   C38136087   8.044   1.730   7.417  0.5296 -0.9168 -1.0838
   34MOL   C38236088   8.139   1.754   7.519 -0.6677 -0.2310  0.4286
   34MOL   C38336089   0.004   1.821   7.490 -0.5239  0.2758 -0.2264
   34MOL   S38436090   0.135   1.852   7.621  0.0549  0.1364  0.1556
   34MOL   O38536091   0.255   1.875   7.542  0.3517 -0.1103  0.1021
   34MOL   O38636092   0.135   1.738   7.717 -0.1845 -0.1275 -0.2745
   34MOL   C38736093   0.087   2.000   7.715  0.0756 -0.0240  0.1277
   34MOL   C38836094   0.178   2.109   7.716 -0.0988 -0.7271  0.2282
   34MOL   C38936095   0.142   2.225   7.794 -0.1665 -0.6907  0.6113
   34MOL   C39036096   0.027   2.224   7.875 -0.2800 -0.5818  0.0273
   34MOL   O39136097   0.003   2.332   7.960  0.6911 -0.1108  0.1763
   34MOL   C39236098   8.132   2.400   7.952 -0.6374  0.3621 -0.3321
   34MOL   C39336099   8.038   2.374   8.048 -0.6651 -0.3822 -0.3510
   34MOL   C39436100   7.929   2.454   8.061 -0.2498 -0.1243  0.5602
   34MOL   C39536101   7.898   2.553   7.966  0.3990  0.4943  0.3313
   34MOL   C39636102   7.772   2.637   7.982 -0.0379 -0.4982 -0.1026
   34MOL   C39736103   7.760   2.750   7.880  0.1926  0.3068  0.0887
   34MOL   C39836104   7.643   2.549   7.979 -0.3637 -0.7023 -0.4032
   34MOL   C39936105   7.776   2.711   8.118  0.6581 -0.1663 -1.5692
   34MOL   C40036106   7.657   2.742   8.185  0.3652 -0.3820  0.3484
   34MOL   C40136107   7.661   2.817   0.055  0.1283  0.5280 -0.1196
   34MOL   C40236108   7.783   2.850   0.117 -0.1045 -0.0235  0.4656
   34MOL   O40336109   7.792   2.905   0.245  0.5566 -0.1891  0.2518
   34MOL   C40436110   7.903   2.824   0.050 -0.3395 -0.4856  0.5230
   34MOL   C40536111   7.899   2.753   8.180  0.1498  0.0120  0.3632
   34MOL   C40636112   7.989   2.569   7.861  0.4720  0.2035  0.3052
   34MOL   C40736113   8.106   2.498   7.852 -0.7878 -0.7548  0.2289
   34MOL   C40836114   8.185   2.118   7.864 -0.0254 -0.4059  0.3738
   34MOL   C40936115   8.219   2.006   7.786 -0.5506 -0.3479 -0.6070
   34MOL   C41036116   0.025   1.857   7.354  0.0554 -0.2503 -0.3334
   34MOL   C41136117   8.189   1.830   7.249  0.0794 -0.1574  0.2771
   34MOL   H41236118   7.948   1.685   7.439 -0.3011  1.1156 -0.3363
   34MOL   H41336119   8.120   1.725   7.622 -1.6799 -0.4216  0.1932
   34MOL   H41436120   0.270   2.099   7.661 -0.4228  0.0898 -0.4720
   34MOL   H41536121   0.210   2.307   7.809 -0.4651 -0.6038  1.4960
   34MOL   H41636122   8.048   2.301   8.127  0.3861  0.7706  0.5895
   34MOL   H41736123   7.866   2.428   8.145 -0.4493 -1.5580 -0.0184
   34MOL   H41836124   7.768   2.716   7.777  0.0223 -0.3911  0.3012
   34MOL   H41936125   7.842   2.819   7.894 -0.0157  0.3374  1.2501
   34MOL   H42036126   7.663   2.798   7.890 -1.1488 -2.1996 -0.3125
   34MOL   H42136127   7.549   2.604   7.976 -1.3892 -2.2410  2.1596
   34MOL   H42236128   7.645   2.499   7.882  1.4203 -0.0042 -0.7617
   34MOL   H42336129   7.640   2.481   8.064 -3.4413 -0.7310 -0.5044
   34MOL   H42436130   7.558   2.723   8.146  0.6630 -1.8972  0.3077
   34MOL   H42536131   7.563   2.829   0.098 -0.2458 -2.0554 -0.1411
   34MOL   H42636132   7.999   2.853   0.090 -0.2041 -0.3740  0.1177
   34MOL   H42736133   7.994   2.747   8.129 -0.4422 -1.3685 -0.6046
   34MOL   H42836134   7.967   2.641   7.783 -0.1849 -1.9303 -1.5329
   34MOL   H42936135   8.178   2.517   7.774  0.8029 -1.8908  1.3971
   34MOL   H43036136   8.095   2.130   7.922 -0.6808 -1.7000 -0.3644
   34MOL   H43136137   8.149   1.923   7.789 -0.4385 -0.3963  1.1507
   34MOL   H43236138   0.109   1.921   7.332 -0.0039 -1.0682 -3.2520
   34MOL   H43336139   8.209   1.855   7.146  0.0751 -1.9914 -0.1932
   34MOL   C43436140   7.729   2.840   0.346 -0.4402 -0.5115 -0.1720
   34MOL   C43536141   7.650   2.917   0.433  0.2712 -0.1326  0.3655
   34MOL   C43636142   7.572   2.854   0.530 -0.1164 -0.3658  0.3435
   34MOL   C43736143   7.586   2.714   0.551 -0.0935 -0.6238 -0.0619
   34MOL   S43836144   7.491   2.634   0.669  0.0365  0.1122 -0.2098
   34MOL   O43936145   7.415   2.532   0.606  0.9639 -0.4511 -0.1914
   34MOL   O44036146   7.428   2.736   0.757  0.9979 -0.3373  0.0597
   34MOL   C44136147   7.605   2.535   0.769 -0.4131  0.0270 -0.4667
   34MOL   C44236148   7.544   2.447   0.858  0.4842  0.0180 -0.0886
   34MOL   C44336149   7.621   2.369   0.942 -0.4722  1.0417 -0.4522
   34MOL   C44436150   7.764   2.366   0.929  0.2608  0.8788 -0.5150
   34MOL   O44536151   7.857   2.308   1.014 -0.4098 -0.0179 -0.4367
   34MOL   C44636152   7.849   2.179   1.042  0.3760  0.3418  0.1532
   34MOL   C44736153   7.786   2.088   0.956 -0.4587 -0.3046  0.8142
   34MOL   C44836154   7.772   1.950   0.995  0.0221 -0.2156  0.4828
   34MOL   C44936155   7.794   1.907   1.131  0.0744  0.6288  0.2463
   34MOL   C45036156   7.763   1.762   1.178 -0.0460 -0.1298 -0.5064
   34MOL   C45136157   7.870   1.669   1.114 -0.4720  0.0530  0.1718
   34MOL   C45236158   7.775   1.753   1.337 -0.8883 -0.0118 -0.0404
   34MOL   C45336159   7.620   1.729   1.135 -0.2650 -0.3739  0.4829
   34MOL   C45436160   7.591   1.617   1.058  0.2818 -0.0203 -0.1472
   34MOL   C45536161   7.464   1.600   1.004 -0.7010 -0.2031 -0.4507
   34MOL   C45636162   7.363   1.696   1.037 -0.3440 -0.4586 -0.0351
   34MOL   O45736163   7.239   1.685   0.982 -0.0810 -0.2802 -0.9526
   34MOL   C45836164   7.395   1.812   1.116  0.2849  0.2559  0.2418
   34MOL   C45936165   7.523   1.819   1.169 -0.0275  0.5227 -0.6480
   34MOL   C46036166   7.859   2.007   1.213  0.3113  0.6587 -0.4487
   34MOL   C46136167   7.892   2.136   1.167 -0.0784 -0.4133 -0.4852
   34MOL   C46236168   7.822   2.452   0.826 -0.1252  0.3290 -0.4265
   34MOL   C46336169   7.742   2.534   0.748 -0.0135 -0.3790  0.5765
   34MOL   C46436170   7.660   2.636   0.453 -0.4775  0.6994  0.0366
   34MOL   C46536171   7.729   2.703   0.351 -0.1635  0.6128  0.4856
   34MOL   H46636172   7.636   3.022   0.411  2.6153  0.3055  0.7801
   34MOL   H46736173   7.507   2.907   0.598  0.1245  1.6877 -0.9676
   34MOL   H46836174   7.443   2.473   0.887  0.1655 -1.5048  0.2276
   34MOL   H46936175   7.578   2.315   1.025  0.0633 -1.9053 -1.9902
   34MOL   H47036176   7.767   2.118   0.854  0.2499  0.1964  0.8244
   34MOL   H47136177   7.743   1.884   0.915  1.5917  0.8840 -1.0448
   34MOL   H47236178   7.971   1.698   1.141  0.2529 -2.3220  0.1574
   34MOL   H47336179   7.860   1.678   1.006  1.3492 -0.8498 -0.0939
   34MOL   H47436180   7.859   1.562   1.131 -1.0278 -0.0756 -0.9618
   34MOL   H47536181   7.718   1.830   1.389 -0.2406  0.0904  0.5270
   34MOL   H47636182   7.742   1.654   1.367 -0.2211 -0.2736 -0.1523
   34MOL   H47736183   7.883   1.758   1.351 -0.7307  0.5926 -1.3743
   34MOL   H47836184   7.655   1.534   1.031 -0.7865 -1.4274  1.5947
   34MOL   H47936185   7.440   1.510   0.947 -0.4043 -1.5525  1.5181
   34MOL   H48036186   7.330   1.896   1.137  1.0903  0.8286  0.4430
   34MOL   H48136187   7.548   1.905   1.228  1.7592  0.1427 -0.8260
   34MOL   H48236188   7.874   1.969   1.312 -0.0692  0.3015 -0.5248
   34MOL   H48336189   7.945   2.193   1.242  1.0464 -2.3211  0.2139
   34MOL   H48436190   7.929   2.462   0.821 -0.0457  0.3096  1.1380
   34MOL   H48536191   7.778   2.609   0.678 -0.7908  0.8856  1.5166
   34MOL   H48636192   7.663   2.528   0.456 -0.4471  0.6569 -1.3421
   34MOL   H48736193   7.781   2.648   0.273  0.7489  0.2058  1.3764
   34MOL   C48836194   7.159   1.607   1.063 -0.0074 -0.3926  1.2123
   34MOL   C48936195   7.145   1.472   1.028  0.6341 -0.3180 -0.0399
   34MOL   C49036196   7.036   1.400   1.076  0.0571  0.8461  0.3480
   34MOL   C49136197   6.944   1.455   1.164  0.6383  0.1335  0.5933
   34MOL   S49236198   6.799   1.364   1.215  0.2537  0.0766  0.2370
   34MOL   O49336199   6.802   1.235   1.147 -0.1438 -0.2071  0.4954
   34MOL   O49436200   6.675   1.445   1.204 -0.0583 -0.6833  0.5174
   34MOL   C49536201   6.817   1.332   1.391 -0.0966  0.5912  0.4562
   34MOL   C49636202   6.751   1.416   1.485  0.4342  0.3517 -0.0074
   34MOL   C49736203   6.771   1.399   1.623 -0.8827 -0.8518  0.2403
   34MOL   C49836204   6.865   1.302   1.670 -0.0263  0.0435 -0.0358
   34MOL   O49936205   6.886   1.277   1.803  0.6035  0.2214 -0.0841
   34MOL   C50036206   6.791   1.209   1.880 -0.2920  0.1185  0.0005
   34MOL   C50136207   6.716   1.284   1.974 -0.5295 -0.5144 -0.5240
   34MOL   C50236208   6.624   1.214   2.052 -0.0292 -0.0708  0.3838
   34MOL   C50336209   6.621   1.075   2.063 -0.4970 -0.4601 -0.2127
   34MOL   C50436210   6.539   1.003   2.168  0.2299  0.0511  0.1474
   34MOL   C50536211   6.470   1.103   2.269 -0.0231 -0.0394 -0.4461
   34MOL   C50636212   6.431   0.937   2.080 -0.1842  0.4294 -0.0177
   34MOL   C50736213   6.620   0.908   2.257 -0.6517 -0.2476 -0.1340
   34MOL   C50836214   6.740   0.955   2.320 -0.6355  0.4743  0.5244
   34MOL   C50936215   6.809   0.864   2.408  0.1139  0.5767 -0.3168
   34MOL   C51036216   6.752   0.742   2.450  0.0581  0.0365  0.1917
   34MOL   O51136217   6.815   0.671   2.549 -0.3974  0.3409 -0.4529
   34MOL   C51236218   6.643   0.689   2.372  0.1193 -0.5376 -0.6604
   34MOL   C51336219   6.584   0.774   2.275  1.0613  0.3283  0.1728
   34MOL   C51436220   6.711   0.999   1.985  0.0596 -0.6139 -0.0291
   34MOL   C51536221   6.796   1.069   1.892  0.6682  0.6014 -0.2041
   34MOL   C51636222   6.930   1.222   1.575  0.0387  0.1482  0.3827
   34MOL   C51736223   6.912   1.242   1.436 -0.4866 -0.4784 -0.4646
   34MOL   C51836224   6.953   1.589   1.193 -0.6347 -0.1330  0.4126
   34MOL   C51936225   7.072   1.661   1.161 -0.7329 -0.4355  0.3384
   34MOL   H52036226   7.214   1.441   0.951 -0.4284  1.1894 -1.6476
   34MOL   H52136227   7.020   1.300   1.040 -1.2067  0.8917  0.7617
   34MOL   H52236228   6.688   1.498   1.452 -3.1381 -2.4273 -0.5023
   34MOL   H52336229   6.717   1.451   1.701 -1.6827 -0.5338 -0.5283
   34MOL   H52436230   6.728   1.390   1.988 -2.0575 -0.5202  0.9735
   34MOL   H52536231   6.573   1.281   2.119  0.0146 -0.3271  0.6745
   34MOL   H52636232   6.398   1.172   2.224  1.2944  1.3285 -0.4973
   34MOL   H52736233   6.544   1.164   2.321  0.1400 -0.0671 -0.6489
   34MOL   H52836234   6.412   1.035   2.331  0.6316 -0.3008 -0.1149
   34MOL   H52936235   6.369   1.011   2.030  0.7322  1.6132  0.5756
   34MOL   H53036236   6.475   0.877   2.000  0.6879  0.3225  0.5382
   34MOL   H53136237   6.364   0.868   2.133  1.6955 -1.1401  0.3949
   34MOL   H53236238   6.792   1.049   2.310 -0.1144  0.1441  0.1170
   34MOL   H53336239   6.902   0.895   2.453  0.8732 -1.0770 -0.7066
   34MOL   H53436240   6.604   0.592   2.399  1.3662 -0.2886  2.2225
   34MOL   H53536241   6.498   0.728   2.230  1.8895 -1.7706  0.6905
   34MOL   H53636242   6.717   0.893   2.002  0.5305 -0.5557  0.1831
   34MOL   H53736243   6.862   1.011   1.829  1.4029  0.1394  0.9594
   34MOL   H53836244   7.006   1.150   1.604 -0.3979  0.4322  2.2807
   34MOL   H53936245   6.968   1.186   1.363  1.0914  0.0658  0.2946
   34MOL   H54036246   6.879   1.625   1.262 -0.6439  1.9014 -0.6229
   34MOL   H54136247   7.077   1.768   1.173  1.5537 -0.2177 -1.9981
   34MOL   C54236248   6.785   0.695   2.684  0.4856  0.2391 -0.5700
   34MOL   C54336249   6.852   0.625   2.785  0.0842 -0.3556 -0.0396
   34MOL   C54436250   6.824   0.647   2.921 -0.3625  0.6801 -0.2960
   34MOL   C54536251   6.727   0.742   2.960 -0.8838  0.0484 -0.8547
   34MOL   S54636252   6.685   0.795   3.133  0.2553  0.3316 -0.0344
   34MOL   O54736253   6.700   0.941   3.134  0.6432  0.0369  0.1903
   34MOL   O54836254   6.754   0.707   3.229  0.0824 -0.7021 -0.3907
   34MOL   C54936255   6.508   0.758   3.137  0.2601  0.7644 -0.1826
   34MOL   C55036256   6.466   0.625   3.167 -0.0389  0.4876  0.6083
   34MOL   C55136257   6.328   0.596   3.169  0.3899 -0.3115  0.0888
   34MOL   C55236258   6.230   0.701   3.165  0.7813 -0.3342 -0.0817
   34MOL   O55336259   6.094   0.679   3.179 -0.0009  0.1700  0.4814
   34MOL   C55436260   6.045   0.565   3.233  0.1019  1.0776  0.7634
   34MOL   C55536261   6.038   0.542   3.371 -0.0385  0.6788  0.3404
   34MOL   C55636262   5.991   0.422   3.428 -0.2003  0.4028 -0.2646
   34MOL   C55736263   5.966   0.309   3.340  0.3112  0.8886  0.2277
   34MOL   C55836264   5.933   0.172   3.392  0.2920 -0.6598  0.3521
   34MOL   C55936265   5.917   0.168   3.551 -0.4610 -0.3294  0.0947
   34MOL   C56036266   5.794   0.135   3.345  0.1041  0.3774 -0.3402
   34MOL   C56136267   6.051   0.077   3.354  0.4926 -0.0318 -0.2041
   34MOL   C56236268   6.041   8.231   3.258  0.0754  0.4168 -0.4213
   34MOL   C56336269   6.146   8.146   3.216 -0.0169  0.3492  0.1794
   34MOL   C56436270   6.277   8.179   3.268  0.5469  0.2724 -0.2324
   34MOL   O56536271   6.392   8.119   3.224 -0.1206 -0.3072  1.4067
   34MOL   C56636272   6.287   0.028   3.367 -0.3347 -0.6547 -0.4893
   34MOL   C56736273   6.179   0.097   3.415  0.3403 -0.8001 -0.0045
   34MOL   C56836274   5.980   0.331   3.199 -0.2178 -0.0365  0.2511
   34MOL   C56936275   6.017   0.460   3.144  0.4223  0.3340  0.3549
   34MOL   C57036276   6.274   0.832   3.141 -0.6792 -0.1100  0.0414
   34MOL   C57136277   6.412   0.864   3.129  1.0703  0.0648  0.5081
   34MOL   C57236278   6.664   0.821   2.861  0.0284  0.0689 -0.6706
   34MOL   C57336279   6.694   0.792   2.726  0.3686 -0.1501  0.1460
   34MOL   H57436280   6.916   0.543   2.756  0.3594 -0.5253  1.0316
   34MOL   H57536281   6.870   0.590   3.001 -0.4991  1.2469  0.1904
   34MOL   H57636282   6.548   0.557   3.186 -0.0757 -0.4828 -2.4161
   34MOL   H57736283   6.295   0.498   3.200  2.2106 -0.5347  1.4619
   34MOL   H57836284   6.050   0.631   3.431  1.0866  0.1438  0.9223
   34MOL   H57936285   5.996   0.407   3.534 -1.5368 -1.5344 -0.4638
   34MOL   H58036286   5.829   0.222   3.584 -0.7274 -0.4667 -0.3839
   34MOL   H58136287   6.007   0.207   3.597 -0.7917  0.0038  0.4567
   34MOL   H58236288   5.899   0.069   3.593  0.6400 -0.6663 -0.2183
   34MOL   H58336289   5.719   0.202   3.387 -1.2957 -1.1182 -0.4162
   34MOL   H58436290   5.779   0.138   3.237 -0.9295  1.9617 -0.1708
   34MOL   H58536291   5.761   0.039   3.383  0.0504  0.3186 -0.5359
   34MOL   H58636292   5.945   8.217   3.211 -0.3930  0.8668  0.3959
   34MOL   H58736293   6.131   8.059   3.154 -0.2161 -0.4507  1.3465
   34MOL   H58836294   6.389   0.057   3.390 -0.7972  2.2677 -1.8940
   34MOL   H58936295   6.207   0.162   3.497 -0.4718 -0.6935  0.1887
   34MOL   H59036296   5.959   0.254   3.126 -0.3705  0.4632 -0.2388
   34MOL   H59136297   6.046   0.463   3.040 -2.0500 -1.7879 -0.4549
   34MOL   H59236298   6.203   0.912   3.135 -0.4397  0.0095 -1.2632
   34MOL   H59336299   6.447   0.966   3.117 -0.4521  0.5916  0.4789
   34MOL   H59436300   6.594   0.898   2.890 -1.3009 -1.4748  0.2868
   34MOL   H59536301   6.632   0.845   2.654 -1.0067 -0.0787  1.3445
   34MOL   C59636302   6.394   8.011   3.151 -0.1475  0.1050  0.5632
   34MOL   C59736303   6.397   8.018   3.007  0.5806  0.3570 -0.2641
   34MOL   C59836304   6.416   7.901   2.931  0.2434  0.8612  0.1055
   34MOL   C59936305   6.430   7.779   2.995 -0.2404 -0.1096 -0.2647
   34MOL   S60036306   6.447   7.614   2.910  0.2905 -0.3332 -0.0971
   34MOL   O60136307   6.443   7.645   2.760  0.7973  0.3950 -0.7222
   34MOL   O60236308   6.362   7.511   2.967 -0.2433  0.2607 -0.3018
   34MOL   C60336309   6.620   7.562   2.938  0.0841  0.1887  0.2180
   34MOL   C60436310   6.725   7.654   2.930 -0.7582 -0.5388  0.2346
   34MOL   C60536311   6.852   7.615   2.969 -0.6938  0.8839  0.0469
   34MOL   C60636312   6.879   7.485   3.011  0.3258  0.6510  0.6781
   34MOL   O60736313   7.002   7.443   3.054 -0.0337  0.6244  0.3478
   34MOL   C60836314   7.114   7.460   2.978 -0.0384  0.1177  0.3165
   34MOL   C60936315   7.151   7.384   2.871  0.5352  0.3246  0.0716
   34MOL   C61036316   7.267   7.406   2.790  0.5472 -0.4239 -0.2570
   34MOL   C61136317   7.355   7.509   2.824  0.3398  0.1319  0.0567
   34MOL   C61236318   7.491   7.534   2.750  0.0517 -0.0922  0.1854
   34MOL   C61336319   7.600   7.522   2.857  0.3649 -0.4342 -0.0075
   34MOL   C61436320   7.527   7.428   2.639 -0.3021  0.0213 -0.8493
   34MOL   C61536321   7.496   7.672   2.689 -0.1300 -0.5000 -0.3686
   34MOL   C61636322   7.375   7.734   2.650 -0.4822 -0.0786 -0.0253
   34MOL   C61736323   7.384   7.859   2.589 -0.6936  0.3450  0.1333
   34MOL   C61836324   7.500   7.940   2.586  0.6919 -0.5367  0.3496
   34MOL   O61936325   7.504   8.066   2.536 -0.6460  0.7988  0.1048
   34MOL   C62036326   7.620   7.875   2.628  0.2855 -0.9489 -0.2828
   34MOL   C62136327   7.613   7.746   2.678  0.6215  0.4889 -0.6399
   34MOL   C62236328   7.321   7.584   2.935 -0.0362 -0.1563  0.1534
   34MOL   C62336329   7.202   7.566   3.008  0.6790  0.3706  0.5551
   34MOL   C62436330   6.779   7.393   3.001  0.1367  0.0687  0.1087
   34MOL   C62536331   6.648   7.433   2.973 -0.2085 -0.0176  0.4103
   34MOL   C62636332   6.419   7.766   3.134 -0.3701 -0.2188 -0.8468
   34MOL   C62736333   6.408   7.884   3.214 -0.1991  0.1637  0.7300
   34MOL   H62836334   6.383   8.109   2.950 -2.5275  0.3778  0.4841
   34MOL   H62936335   6.419   7.913   2.824  0.1955  0.2782  0.0403
   34MOL   H63036336   6.702   7.756   2.903 -0.0007 -1.0426 -2.4652
   34MOL   H63136337   6.924   7.695   2.968  0.0481  0.2163 -1.2676
   34MOL   H63236338   7.080   7.306   2.849 -0.4667  1.4588 -0.8455
   34MOL   H63336339   7.298   7.338   2.712  3.9885  0.5663  0.1648
   34MOL   H63436340   7.581   7.441   2.928 -0.8204  1.1462  1.4872
   34MOL   H63536341   7.589   7.614   2.913 -0.3944  0.1178 -1.0575
   34MOL   H63636342   7.701   7.516   2.816  0.1023  2.2418 -1.1577
   34MOL   H63736343   7.523   7.327   2.679 -1.6946  0.5240  0.3356
   34MOL   H63836344   7.459   7.439   2.554  1.0865 -1.2666 -2.1439
   34MOL   H63936345   7.630   7.438   2.606 -0.1280 -1.2338 -0.7091
   34MOL   H64036346   7.284   7.677   2.651 -1.4413  1.4280  0.3501
   34MOL   H64136347   7.294   7.909   2.555 -0.8965  0.3346  0.6508
   34MOL   H64236348   7.710   7.932   2.611 -0.0899 -0.1803  0.2853
   34MOL   H64336349   7.704   7.701   2.716  0.4359  0.1558 -0.5857
   34MOL   H64436350   7.390   7.658   2.974 -2.3798  3.2896 -1.8643
   34MOL   H64536351   7.178   7.618   3.100 -4.4407 -0.7078  0.0209
   34MOL   H64636352   6.792   7.291   3.033  2.5611  0.7138  1.2981
   34MOL   H64736353   6.565   7.364   2.983  0.3008 -0.6621  0.2144
   34MOL   H64836354   6.427   7.662   3.163 -1.9142 -0.8094 -2.4493
   34MOL   H64936355   6.399   7.879   3.322 -0.3752  2.1509  0.8311
   34MOL   C65036356   7.397   8.138   2.575 -0.6883  0.4537 -1.0195
   34MOL   C65136357   7.285   8.160   2.500 -0.2223 -1.1459  0.5662
   34MOL   C65236358   7.186   8.246   2.525  0.3226  1.5024  0.2071
   34MOL   C65336359   7.207   0.079   2.633 -0.2342  0.3649  0.9191
   34MOL   S65436360   7.090   0.217   2.656 -0.2267  0.3082  0.5534
   34MOL   O65536361   7.148   0.301   2.763  0.0862 -0.0159  0.7784
   34MOL   O65636362   6.952   0.169   2.666  0.5249 -0.3034  0.2607
   34MOL   C65736363   7.094   0.311   2.500  0.4285 -0.5964  0.3570
   34MOL   C65836364   7.199   0.309   2.408 -0.7309 -0.4605 -0.5017
   34MOL   C65936365   7.201   0.387   2.290  0.6672  0.1602 -0.2973
   34MOL   C66036366   7.082   0.464   2.262 -0.4059 -0.2786 -0.8105
   34MOL   O66136367   7.050   0.520   2.139  0.0629  0.1218  0.2260
   34MOL   C66236368   7.095   0.640   2.105  0.0207  0.2280  0.7052
   34MOL   C66336369   7.226   0.642   2.054  0.2509 -0.5373  0.1319
   34MOL   C66436370   7.274   0.762   1.996  0.1563  1.0701 -0.5766
   34MOL   C66536371   7.194   0.881   1.980  0.0357 -0.0090 -0.4005
   34MOL   C66636372   7.242   1.008   1.897 -0.7422 -0.0206  0.0899
   34MOL   C66736373   7.146   1.131   1.912 -0.8729  0.5486 -0.1505
   34MOL   C66836374   7.378   1.064   1.951  0.5226 -0.0726 -0.5633
   34MOL   C66936375   7.255   0.956   1.753  0.3412 -0.4708 -0.7775
   34MOL   C67036376   7.382   0.914   1.706  0.1884  0.0248  1.0215
   34MOL   C67136377   7.395   0.880   1.570 -0.0932  0.1867 -0.2142
   34MOL   C67236378   7.286   0.896   1.480 -0.2179  0.4335  0.8039
   34MOL   O67336379   7.309   0.867   1.345 -0.0802  0.1292 -0.0518
   34MOL   C67436380   7.156   0.928   1.532 -0.2747 -0.5893 -0.3705
   34MOL   C67536381   7.142   0.942   1.673  0.2792 -0.5368  0.3931
   34MOL   C67636382   7.069   0.878   2.039  0.3515 -0.3007 -0.4686
   34MOL   C67736383   7.021   0.759   2.107  0.2531  0.0174 -0.4903
   34MOL   C67836384   6.982   0.471   2.358 -0.3511  0.5502  0.6907
   34MOL   C67936385   6.989   0.405   2.477 -0.3174 -0.5996 -0.3959
   34MOL   C68036386   7.314   0.061   2.720 -0.0034 -0.0233 -0.1447
   34MOL   C68136387   7.405   8.210   2.698  0.1584  0.1187 -0.4271
   34MOL   H68236388   7.278   8.102   2.409  0.7143 -0.8346  0.2918
   34MOL   H68336389   7.097   0.011   2.466  1.0968  1.4901 -0.9894
   34MOL   H68436390   7.283   0.245   2.431 -1.6810 -1.6340 -0.2378
   34MOL   H68536391   7.272   0.369   2.211  1.8171 -1.0728  0.9983
   34MOL   H68636392   7.273   0.547   2.037  0.7788 -0.2933  0.2285
   34MOL   H68736393   7.363   0.746   1.937  0.2064 -1.7380  0.1641
   34MOL   H68836394   7.196   1.219   1.873  0.2373 -0.4043 -0.9223
   34MOL   H68936395   7.109   1.158   2.011 -1.0135  2.2396 -0.6595
   34MOL   H69036396   7.054   1.115   1.856 -0.0109  0.9469 -1.6935
   34MOL   H69136397   7.367   1.105   2.051 -1.1906  1.6968 -1.4410
   34MOL   H69236398   7.457   0.990   1.965 -0.9833 -1.1705  2.7124
   34MOL   H69336399   7.410   1.150   1.892  1.9599  1.5541  2.4458
   34MOL   H69436400   7.466   0.910   1.773 -2.5892 -0.2700  4.6643
   34MOL   H69536401   7.490   0.853   1.526  1.3373 -0.1676  2.9642
   34MOL   H69636402   7.062   0.927   1.479 -0.6026  0.0373  0.2022
   34MOL   H69736403   7.046   0.961   1.719  1.0979  0.3822  1.7658
   34MOL   H69836404   7.003   0.963   2.036  1.7204  0.8657  1.7597
   34MOL   H69936405   6.932   0.754   2.167  1.6845  0.8017  1.7649
   34MOL   H70036406   6.895   0.531   2.334 -1.1830 -1.2127 -0.8058
   34MOL   H70136407   6.904   0.399   2.543  0.1498 -1.9171  0.1169
   34MOL   H70236408   7.330   0.131   2.801 -1.2402  0.4213 -0.2803
   34MOL   H70336409   7.491   8.209   2.762  0.1568  0.3948 -0.4169
   34MOL   C70436410   7.221   0.891   1.246  0.2545 -0.5291 -0.8182
   34MOL   C70536411   7.234   1.008   1.171  0.1433  0.5857  0.0515
   34MOL   C70636412   7.158   1.033   1.058  0.4303 -0.4453  0.3265
   34MOL   C70736413   7.051   0.942   1.024 -0.2044  0.0901 -0.5295
   34MOL   S70836414   6.957   0.965   0.875  0.4585 -0.1181 -0.5225
   34MOL   O70936415   7.023   0.892   0.768 -0.1393 -0.1365 -0.0305
   34MOL   O71036416   6.938   1.109   0.863 -0.2250  0.4850 -0.2513
   34MOL   C71136417   6.791   0.900   0.898 -0.0632 -0.4514 -0.2305
   34MOL   C71236418   6.726   0.835   0.795 -0.4847  0.1870  0.1285
   34MOL   C71336419   6.595   0.785   0.807 -0.1260  1.4282 -0.9200
   34MOL   C71436420   6.521   0.800   0.931  0.0292  0.4813 -0.0487
   34MOL   O71536421   6.394   0.748   0.952  0.3417 -0.1508  0.3387
   34MOL   C71636422   6.312   0.745   0.836 -0.1558  0.5252 -0.0811
   34MOL   C71736423   6.252   0.623   0.808  0.2123  0.1472  0.2203
   34MOL   C71836424   6.159   0.626   0.701  0.0710  0.1064 -0.1203
   34MOL   C71936425   6.129   0.737   0.621  0.1039  0.0534  0.4470
   34MOL   C72036426   6.044   0.712   0.496 -0.2606  0.6168  0.2443
   34MOL   C72136427   5.996   0.851   0.435  0.2064 -0.0994  0.9509
   34MOL   C72236428   6.140   0.645   0.390  0.2114  0.1724  0.0349
   34MOL   C72336429   5.919   0.633   0.533 -0.6123  0.5833  0.5911
   34MOL   C72436430   5.838   0.684   0.648 -0.3622  0.1940 -0.3303
   34MOL   C72536431   5.716   0.614   0.679 -0.5716  0.9711  0.0756
   34MOL   C72636432   5.686   0.495   0.613  0.3143 -0.2645 -0.1066
   34MOL   O72736433   5.568   0.433   0.639  0.3992 -0.2505  0.0731
   34MOL   C72836434   5.776   0.439   0.514 -1.0600  0.5923  0.3208
   34MOL   C72936435   5.891   0.506   0.478 -0.9777  0.8240 -0.5807
   34MOL   C73036436   6.194   0.855   0.654 -0.3766  0.2458  0.2146
   34MOL   C73136437   6.291   0.859   0.756  0.5379 -1.2823  0.1742
   34MOL   C73236438   6.588   0.869   1.036 -0.6043  0.1231  0.3907
   34MOL   C73336439   6.724   0.909   1.022 -0.0755  0.0318 -0.3333
   34MOL   C73436440   7.040   0.823   1.105 -0.9301  0.4741  0.1612
   34MOL   C73536441   7.125   0.791   1.213  0.1466  0.4280 -0.2526
   34MOL   H73636442   7.303   1.077   1.219 -0.8908  0.7041  1.3967
   34MOL   H73736443   7.168   1.121   0.996 -1.0392 -1.3936 -1.2988
   34MOL   H73836444   6.785   0.813   0.708  0.0770  0.3167  0.4762
   34MOL   H73936445   6.549   0.742   0.719 -0.4456 -1.2107  0.5042
   34MOL   H74036446   6.254   0.539   0.876  0.1523  0.4954  0.6472
   34MOL   H74136447   6.096   0.542   0.674 -1.2363  1.4417 -1.3868
   34MOL   H74236448   5.935   0.827   0.349  0.0999 -3.5088  1.8736
   34MOL   H74336449   6.076   0.911   0.392 -0.1187 -1.0694 -1.0529
   34MOL   H74436450   5.937   0.903   0.511 -0.0675  0.9786 -0.0013
   34MOL   H74536451   6.191   0.559   0.435 -0.4727 -1.2477 -1.8637
   34MOL   H74636452   6.080   0.618   0.303  1.4400 -2.0330 -0.1494
   34MOL   H74736453   6.216   0.712   0.349 -0.9564  0.6542 -1.3792
   34MOL   H74836454   5.857   0.777   0.700 -1.4540 -0.5683  1.4560
   34MOL   H74936455   5.653   0.662   0.753 -0.3847 -1.1663  1.6699
   34MOL   H75036456   5.753   0.341   0.473 -1.5474  0.0411  1.8758
   34MOL   H75136457   5.947   0.460   0.398  1.6160  2.2040  0.3780
   34MOL   H75236458   6.176   0.949   0.603 -0.6642 -1.6937 -3.4460
   34MOL   H75336459   6.335   0.955   0.780 -2.7201 -0.4226  3.0482
   34MOL   H75436460   6.540   0.885   1.131 -0.8285  0.9512  0.1412
   34MOL   H75536461   6.770   0.963   1.103 -0.3532 -0.9516  0.4840
   34MOL   H75636462   6.966   0.755   1.063 -2.4628  2.4498 -0.4141
   34MOL   H75736463   7.128   0.692   1.256 -1.2298 -0.1296 -1.3921
   34MOL   C75836464   5.452   0.507   0.612  0.4050  0.3504  0.1049
   34MOL   C75936465   5.333   0.465   0.682 -0.1287 -0.8286 -0.3733
   34MOL   C76036466   5.208   0.531   0.666 -0.4053 -0.3274  0.2906
   34MOL   C76136467   5.211   0.650   0.593  0.0519  0.3867  0.1161
   34MOL   S76236468   5.066   0.756   0.596 -0.3331  0.0761 -0.5102
   34MOL   O76336469   4.954   0.688   0.660 -0.1861 -0.5873  0.0896
   34MOL   O76436470   5.054   0.812   0.463  0.2895  0.0002  0.5822
   34MOL   C76536471   5.118   0.902   0.692  0.2620 -0.3114  0.8768
   34MOL   C76636472   5.235   0.898   0.765 -0.3394 -0.1686 -0.0656
   34MOL   C76736473   5.294   1.020   0.818 -0.0577  0.0823 -0.2383
   34MOL   C76836474   5.220   1.139   0.796  0.4948  0.1688 -0.1731
   34MOL   O76936475   5.267   1.257   0.852 -0.0628  0.4434  0.0429
   34MOL   C77036476   5.185   1.315   0.940 -0.3017 -0.0867 -0.2268
   34MOL   C77136477   5.140   1.447   0.914 -0.0480  0.5648  0.3296
   34MOL   C77236478   5.040   1.502   1.002  0.0577  0.6169  0.0215
   34MOL   C77336479   4.987   1.431   1.115 -0.1613  0.2272 -0.2184
   34MOL   C77436480   4.870   1.486   1.206  0.3423 -0.3841  0.4638
   34MOL   C77536481   4.761   1.386   1.216  0.3643  0.7041 -0.4298
   34MOL   C77636482   4.926   1.499   1.345 -0.6088 -0.2958  0.3661
   34MOL   C77736483   4.818   1.621   1.162 -0.4080 -0.2495 -0.1408
   34MOL   C77836484   4.854   1.747   1.221  0.4560  0.6937  0.0445
   34MOL   C77936485   4.816   1.871   1.172 -0.0261  0.3301 -0.6991
   34MOL   C78036486   4.740   1.878   1.050  0.6622  0.7959 -0.4292
   34MOL   O78136487   4.708   1.993   0.989 -0.0974  0.3790 -0.0119
   34MOL   C78236488   4.701   1.755   0.991 -0.7202 -0.0922  0.2583
   34MOL   C78336489   4.743   1.630   1.045 -0.2384 -0.6014 -0.3045
   34MOL   C78436490   5.042   1.303   1.136  0.5559 -0.4947  0.0392
   34MOL   C78536491   5.142   1.247   1.056  0.6239  0.9909 -0.6447
   34MOL   C78636492   5.100   1.141   0.717  0.2793  0.6608  0.6463
   34MOL   C78736493   5.046   1.020   0.669  0.1721 -0.5283 -0.6901
   34MOL   C78836494   5.327   0.693   0.523  0.8221  0.6408 -0.5559
   34MOL   C78936495   5.444   0.615   0.527  0.5204 -0.1235  0.1705
   34MOL   H79036496   5.336   0.384   0.753  0.2032  0.6338  1.3059
   34MOL   H79136497   5.121   0.502   0.722  1.5788 -1.5934  2.8535
   34MOL   H79236498   5.288   0.804   0.775  0.2888  0.3688  1.9034
   34MOL   H79336499   5.386   1.022   0.874  0.3772 -0.9814 -0.8843
   34MOL   H79436500   5.184   1.497   0.828 -2.0415  2.1013  0.1621
   34MOL   H79536501   5.004   1.601   0.979  0.9622  1.8073  3.4351
   34MOL   H79636502   4.686   1.433   1.279  0.2157 -1.1927  0.8568
   34MOL   H79736503   4.775   1.285   1.255 -0.4512  1.3761  1.7131
   34MOL   H79836504   4.713   1.363   1.121  2.1616 -1.8481 -0.7695
   34MOL   H79936505   4.842   1.534   1.404  0.1007  3.0327 -0.5318
   34MOL   H80036506   4.957   1.401   1.383 -1.6909 -0.1855  1.5434
   34MOL   H80136507   5.010   1.567   1.346 -0.2096 -0.7887  1.3169
   34MOL   H80236508   4.910   1.755   1.312 -0.5496  1.2922  0.6243
   34MOL   H80336509   4.850   1.966   1.211 -2.4077  0.5999  0.8062
   34MOL   H80436510   4.642   1.755   0.901  0.1028  0.2360 -0.2798
   34MOL   H80536511   4.706   1.548   0.986  1.0531 -2.0032  0.7847
   34MOL   H80636512   5.006   1.245   1.220 -1.6190 -0.5439 -0.8828
   34MOL   H80736513   5.181   1.150   1.083  1.9789  1.6918 -0.0719
   34MOL   H80836514   5.055   1.238   0.707 -0.8620  0.3567  2.5114
   34MOL   H80936515   4.970   1.022   0.592 -0.0849 -0.1193 -0.4303
   34MOL   H81036516   5.311   0.770   0.450  0.6947  0.5475 -0.6258
   34MOL   H81136517   5.528   0.648   0.468 -0.0961 -0.8093 -1.1130
   34MOL   C81236518   4.793   2.057   0.897  0.2721  0.1414 -0.7336
   34MOL   C81336519   4.924   2.018   0.874 -0.3252  0.4732 -0.5200
   34MOL   C81436520   5.014   2.084   0.782 -0.5479 -0.3219  0.0136
   34MOL   C81536521   4.961   2.186   0.708 -0.1176 -0.1887  1.5598
   34MOL   S81636522   5.055   2.253   0.569 -0.1619  0.5994  0.1166
   34MOL   O81736523   4.995   2.385   0.532 -0.2547  0.4087 -0.0694
   34MOL   O81836524   5.068   2.146   0.469 -0.9787 -0.2205  0.0791
   34MOL   C81936525   5.217   2.290   0.634 -0.3066  0.5088 -0.7977
   34MOL   C82036526   5.336   2.248   0.575 -0.2360  0.3199 -0.1290
   34MOL   C82136527   5.459   2.292   0.623  0.2215  0.5453 -0.2789
   34MOL   C82236528   5.459   2.379   0.735 -0.7925 -0.6264  0.7164
   34MOL   O82336529   5.582   2.421   0.785 -0.3243  0.4196  0.2548
   34MOL   C82436530   5.625   2.373   0.906  0.0741 -0.7702 -0.0714
   34MOL   C82536531   5.737   2.285   0.907 -0.4551 -0.1782 -0.0830
   34MOL   C82636532   5.791   2.245   1.033 -0.2894  0.1109  0.1336
   34MOL   C82736533   5.751   2.308   1.151  0.0199 -0.2202  0.7866
   34MOL   C82836534   5.826   2.284   1.281  0.0911 -0.0363 -0.0246
   34MOL   C82936535   5.962   2.204   1.267 -0.2247  0.7935 -0.2870
   34MOL   C83036536   5.878   2.424   1.337 -0.0407 -0.2913 -0.2675
   34MOL   C83136537   5.727   2.218   1.384  0.0383  0.8446  0.3765
   34MOL   C83236538   5.669   2.098   1.337  0.6544 -0.6998  0.1767
   34MOL   C83336539   5.568   2.032   1.406 -0.5929 -0.0859 -0.4198
   34MOL   C83436540   5.520   2.086   1.529 -0.5476 -0.0036  0.3027
   34MOL   O83536541   5.415   2.025   1.591  0.0011  0.5675  0.0337
   34MOL   C83636542   5.576   2.204   1.581  0.6762  0.4656  0.0079
   34MOL   C83736543   5.668   2.274   1.504  0.0582 -0.1035  1.2775
   34MOL   C83836544   5.637   2.394   1.146  0.2027 -0.1116  0.6874
   34MOL   C83936545   5.581   2.431   1.029  0.0061  0.1938  0.3457
   34MOL   C84036546   5.343   2.419   0.800  0.5948 -0.1658  0.3685
   34MOL   C84136547   5.220   2.374   0.751  0.0943 -0.0904 -0.0931
   34MOL   C84236548   4.830   2.228   0.731 -0.0990 -0.7573 -0.0540
   34MOL   C84336549   4.754   2.173   0.834  0.4466 -0.3233  0.0679
   34MOL   H84436550   4.956   1.929   0.925 -0.5450  0.6794 -0.0118
   34MOL   H84536551   5.111   2.040   0.766 -1.2617 -1.0796 -2.4573
   34MOL   H84636552   5.325   2.191   0.484 -2.3878  0.6947 -0.1350
   34MOL   H84736553   5.547   2.270   0.565  0.7597 -1.6166  1.3279
   34MOL   H84836554   5.773   2.236   0.818  0.8008 -3.0027  1.8882
   34MOL   H84936555   5.867   2.168   1.032 -0.3887  0.0235 -2.0521
   34MOL   H85036556   5.944   2.103   1.231 -0.0696  0.0258  1.7464
   34MOL   H85136557   6.026   2.205   1.355 -1.0629 -3.2157  0.4764
   34MOL   H85236558   6.029   2.235   1.187  1.4243  0.0817  0.8023
   34MOL   H85336559   5.921   2.408   1.436 -1.0225 -1.1574  0.0322
   34MOL   H85436560   5.960   2.469   1.281  1.8227 -0.7297  2.0344
   34MOL   H85536561   5.808   2.508   1.338  0.8702  0.4711  1.4574
   34MOL   H85636562   5.696   2.053   1.242  0.3962 -0.8216  0.1606
   34MOL   H85736563   5.519   1.948   1.359  0.2763 -0.6634 -0.2925
   34MOL   H85836564   5.542   2.243   1.675  1.3193  0.2744  0.3223
   34MOL   H85936565   5.704   2.370   1.539  0.0624  0.1272  0.6359
   34MOL   H86036566   5.605   2.445   1.235 -1.0887  0.8854 -0.3213
   34MOL   H86136567   5.515   2.516   1.029 -0.2499  0.0215 -1.5574
   34MOL   H86236568   5.345   2.486   0.885 -1.6869 -0.7430  0.9259
   34MOL   H86336569   5.126   2.411   0.789  0.2972  1.2130 -0.8262
   34MOL   H86436570   4.795   2.310   0.670  3.2296  0.6045 -0.2576
   34MOL   H86536571   4.656   2.213   0.857  1.7310  1.7562  2.0891
   34MOL   C86636572   5.311   2.097   1.642  0.2527  0.7908  0.8571
   34MOL   C86736573   5.264   2.217   1.583 -0.6257 -0.2337  0.2583
   34MOL   C86836574   5.163   2.292   1.641  0.0539  0.0882 -0.1004
   34MOL   C86936575   5.103   2.248   1.759  0.2010 -0.0073  0.4795
   34MOL   S87036576   4.979   2.354   1.846  0.3568  0.7116  0.1737
   34MOL   O87136577   5.049   2.478   1.869  0.4106  0.5026  0.2998
   34MOL   O87236578   4.926   2.278   1.963 -0.0384  0.0271 -0.1055
   34MOL   C87336579   4.850   2.396   1.726  0.0102  0.6031  0.6376
   34MOL   C87436580   4.821   2.528   1.671  0.3093  0.2322 -0.1179
   34MOL   C87536581   4.714   2.532   1.579  0.3033  0.2529  0.4101
   34MOL   C87636582   4.634   2.423   1.549  0.6344 -0.0080 -0.9915
   34MOL   O87736583   4.529   2.442   1.460  0.7324 -0.3603  0.0055
   34MOL   C87836584   4.402   2.464   1.512 -0.2402 -0.2271  0.4494
   34MOL   C87936585   4.356   2.414   1.636  0.1600  0.4664  0.4006
   34MOL   C88036586   4.229   2.449   1.685  0.2957  0.5116 -0.7071
   34MOL   C88136587   4.144   2.540   1.611  0.4850 -0.2479  0.2025
   34MOL   C88236588   4.014   2.579   1.680 -0.1944 -0.4233  0.5702
   34MOL   C88336589   4.061   2.673   1.800  0.2864  1.3106 -0.1632
   34MOL   C88436590   3.918   2.663   1.591  0.0719 -0.2312 -0.0282
   34MOL   C88536591   3.947   2.452   1.733 -0.4012 -0.5538 -0.0542
   34MOL   C88636592   3.904   2.361   1.637 -0.2373 -0.2956  0.4455
   34MOL   C88736593   3.846   2.242   1.670 -0.1730  0.2188 -0.4173
   34MOL   C88836594   3.818   2.220   1.808  0.1259 -0.6445 -0.3870
   34MOL   O88936595   3.758   2.106   1.844 -0.3949  0.0377  0.5741
   34MOL   C89036596   3.866   2.312   1.907  0.9268  0.3058  0.1915
   34MOL   C89136597   3.930   2.426   1.866  1.3217  0.1146 -0.1741
   34MOL   C89236598   4.189   2.589   1.486  0.2277 -0.1510 -0.1566
   34MOL   C89336599   4.317   2.552   1.433 -0.3766 -0.6686 -0.0067
   34MOL   C89436600   4.665   2.296   1.599 -0.6839 -0.1961  0.2045
   34MOL   C89536601   4.771   2.283   1.690 -0.5885  0.0207 -0.5215
   34MOL   C89636602   5.155   2.131   1.819  0.1775  0.1327  0.6384
   34MOL   C89736603   5.260   2.058   1.759  0.6597  0.3506 -0.6148
   34MOL   H89836604   5.314   2.256   1.495 -0.2266  2.6068  1.6718
   34MOL   H89936605   5.122   2.374   1.584 -0.3134 -1.1971 -1.7340
   34MOL   H90036606   4.882   2.614   1.692  1.6761 -0.9558  0.8616
   34MOL   H90136607   4.685   2.622   1.525 -1.1237  0.1305  0.9486
   34MOL   H90236608   4.424   2.356   1.696  0.0489 -0.6534 -0.5461
   34MOL   H90336609   4.199   2.429   1.787  0.2507 -0.2251 -0.8600
   34MOL   H90436610   4.112   2.762   1.763  1.2068  0.1853 -1.6665
   34MOL   H90536611   4.122   2.614   1.868 -2.7197  0.6597  2.0775
   34MOL   H90636612   3.970   2.699   1.855 -0.2076 -0.5233 -0.0696
   34MOL   H90736613   3.896   2.610   1.498 -1.5634  2.2395 -1.0742
   34MOL   H90836614   3.825   2.690   1.640  0.9976  0.9314  1.0986
   34MOL   H90936615   3.965   2.758   1.565 -0.9957  0.1622 -0.5544
   34MOL   H91036616   3.925   2.386   1.534  0.4676  1.6275  1.0279
   34MOL   H91136617   3.810   2.173   1.595  3.4170  0.0013 -2.0266
   34MOL   H91236618   3.852   2.304   2.014  0.6566  0.9520  0.2022
   34MOL   H91336619   3.959   2.491   1.947  0.2413 -0.1467  0.4367
   34MOL   H91436620   4.132   2.666   1.437  0.7733 -0.0352 -0.6165
   34MOL   H91536621   4.349   2.593   1.339 -1.6205  0.5530  0.0693
   34MOL   H91636622   4.607   2.207   1.578  0.2449 -0.7596 -0.0056
   34MOL   H91736623   4.789   2.185   1.732  1.1952 -0.0128 -1.3465
   34MOL   H91836624   5.113   2.081   1.904 -0.8826  1.5838  0.9988
   34MOL   H91936625   5.303   1.969   1.803  0.4944 -0.2872 -1.7071
   34MOL   C92036626   3.659   2.117   1.938  0.2128  0.0036  0.2861
   34MOL   C92136627   3.680   2.070   2.069  0.4359 -0.3120 -0.3009
   34MOL   C92236628   3.567   2.068   2.161  0.8496 -0.0345 -0.5101
   34MOL   C92336629   3.446   2.131   2.120  0.6925 -0.1015 -0.2528
   34MOL   S92436630   3.313   2.143   2.234  0.3835 -0.2278 -0.0751
   34MOL   O92536631   3.352   2.058   2.345  0.3991 -0.1773 -0.2164
   34MOL   O92636632   3.183   2.125   2.162  0.0358  0.0389  0.3029
   34MOL   C92736633   3.309   2.308   2.290 -0.7386 -0.7252 -0.1558
   34MOL   C92836634   3.425   2.386   2.301 -0.6088  0.2938  0.8447
   34MOL   C92936635   3.419   2.520   2.339 -0.3502 -0.3780 -0.9506
   34MOL   C93036636   3.295   2.584   2.365  0.0763 -0.2911 -0.4258
   34MOL   O93136637   3.288   2.714   2.414  0.5731 -0.1188  0.3876
   34MOL   C93236638   3.310   2.730   2.548  0.3786 -0.2197  0.8626
   34MOL   C93336639   3.256   2.639   2.646  0.2668  0.3582  0.0860
   34MOL   C93436640   3.271   2.672   2.784  0.1252  0.6511 -0.4548
   34MOL   C93536641   3.332   2.793   2.829 -0.3360  0.2538  0.5355
   34MOL   C93636642   3.346   2.827   2.982 -0.0620  0.4473 -0.2811
   34MOL   C93736643   3.449   2.725   3.041  0.9793  0.1353  0.0521
   34MOL   C93836644   3.397   2.970   3.014  0.3979  0.0182  0.6634
   34MOL   C93936645   3.209   2.804   3.057 -0.0232 -0.3531 -0.3742
   34MOL   C94036646   3.172   2.676   3.112 -0.2824 -0.3241  0.6330
   34MOL   C94136647   3.052   2.650   3.175  0.1001  0.5131  0.2706
   34MOL   C94236648   2.955   2.753   3.170  0.1637  0.3996  0.6670
   34MOL   O94336649   2.833   2.730   3.223 -0.0151  0.1539  0.3781
   34MOL   C94436650   2.975   2.874   3.101  0.2981  0.2687 -0.8054
   34MOL   C94536651   3.100   2.896   3.051 -0.1257  0.0494  0.1324
   34MOL   C94636652   3.392   2.874   2.728  0.3210 -0.0965  0.2615
   34MOL   C94736653   3.373   2.847   2.592 -0.6021  0.4603 -0.2008
   34MOL   C94836654   3.177   2.510   2.356  0.1192  0.6096  0.1749
   34MOL   C94936655   3.184   2.374   2.325  0.4100  0.6700 -0.2138
   34MOL   C95036656   3.429   2.173   1.986 -0.3151 -0.2491  0.5520
   34MOL   C95136657   3.539   2.169   1.896 -0.7156  0.0606  0.4228
   34MOL   H95236658   3.775   2.026   2.096  0.4906  0.0244  0.0582
   34MOL   H95336659   3.578   2.039   2.265 -2.6012 -1.7130 -0.5529
   34MOL   H95436660   3.524   2.346   2.285 -0.6628 -0.0089  1.2647
   34MOL   H95536661   3.511   2.572   2.362 -0.8891 -0.6258  1.8569
   34MOL   H95636662   3.214   2.543   2.621  0.7425 -0.4616  2.3164
   34MOL   H95736663   3.240   2.604   2.862  0.1068  0.4575 -0.6313
   34MOL   H95836664   3.547   2.742   2.996  0.5327 -0.6462 -1.2605
   34MOL   H95936665   3.436   2.622   3.007  0.8007 -0.1373  0.9236
   34MOL   H96036666   3.455   2.724   3.150 -0.3218 -3.2602  0.1500
   34MOL   H96136667   3.335   3.050   2.974  0.3525 -0.4239 -0.1785
   34MOL   H96236668   3.414   2.996   3.118 -1.7329 -1.8286  1.5075
   34MOL   H96336669   3.497   2.982   2.971  1.1154 -3.2897  1.2536
   34MOL   H96436670   3.240   2.594   3.094  0.3672  0.4135 -0.3319
   34MOL   H96536671   3.033   2.559   3.231 -1.9991  1.6318  1.4390
   34MOL   H96636672   2.902   2.954   3.093  1.5042  1.4705  0.0093
   34MOL   H96736673   3.119   2.990   3.001 -0.8172  0.1269  0.0025
   34MOL   H96836674   3.426   2.974   2.753  0.6656 -0.2972  0.6025
   34MOL   H96936675   3.405   2.921   2.520  1.2747  1.2597  1.4178
   34MOL   H97036676   3.085   2.557   2.387 -1.8257 -1.6471 -1.8922
   34MOL   H97136677   3.093   2.316   2.323  0.5847  0.4344 -2.2659
   34MOL   H97236678   3.335   2.214   1.953  0.7636  2.3110  0.5641
   34MOL   H97336679   3.535   2.210   1.797  0.9637  1.8867  1.0732
   34MOL   C97436680   2.783   2.607   3.220  0.4173  0.6097  0.7136
   34MOL   C97536681   2.765   2.532   3.341 -0.7405 -0.9963 -0.0461
   34MOL   C97636682   2.717   2.399   3.336  0.8042 -0.5151 -0.1888
   34MOL   C97736683   2.681   2.342   3.219  0.4854  0.9420  0.3821
   34MOL   S97836684   2.611   2.180   3.214  0.0052  0.0180 -0.2008
   34MOL   O97936685   2.552   2.175   3.082  0.4669 -0.0069 -0.2429
   34MOL   O98036686   2.525   2.160   3.331  0.0317 -0.6467  0.2370
   34MOL   C98136687   2.756   2.064   3.225  0.7129 -0.8523 -0.3419
   34MOL   C98236688   2.820   2.048   3.344  0.1267  0.9381  0.3712
   34MOL   C98336689   2.922   1.952   3.360  0.3681 -0.6537  0.4718
   34MOL   C98436690   2.956   1.871   3.242  0.1978  0.1629 -0.5625
   34MOL   O98536691   3.057   1.774   3.244  0.1234  0.0702  0.5546
   34MOL   C98636692   3.184   1.811   3.266  0.4796 -0.0389  0.7004
   34MOL   C98736693   3.273   1.708   3.302  0.9416 -0.8389 -0.6051
   34MOL   C98836694   3.400   1.738   3.359 -0.2200 -0.6593  0.9052
   34MOL   C98936695   3.460   1.866   3.346  0.5635  0.1215 -0.0444
   34MOL   C99036696   3.604   1.897   3.384 -0.0369 -0.1927  0.3324
   34MOL   C99136697   3.615   2.021   3.477 -0.0251  0.4597  0.2978
   34MOL   C99236698   3.674   1.783   3.450 -0.1008 -0.8555  0.1726
   34MOL   C99336699   3.684   1.931   3.253 -0.1213 -0.5002  0.1857
   34MOL   C99436700   3.651   1.895   3.125  0.5883 -0.5559 -0.2315
   34MOL   C99536701   3.747   1.902   3.025  0.5447 -0.4207  0.0550
   34MOL   C99636702   3.877   1.959   3.042  0.6011  0.2370  0.5127
   34MOL   O99736703   3.973   1.966   2.941  0.2106 -0.6357  0.1563
   34MOL   C99836704   3.906   2.014   3.170 -0.1320  0.0804  0.6646
   34MOL   C99936705   3.816   1.980   3.270  0.1966 -0.6511  0.3212
   34MOL     C136706   3.376   1.966   3.292 -0.5282 -0.0191  0.0073
   34MOL     C236707   3.238   1.945   3.258  1.1140  0.6548 -0.0723
   34MOL     C336708   2.902   1.897   3.116  0.2137 -0.0303  0.2655
   34MOL     C436709   2.798   1.996   3.108  0.8459 -1.1887 -0.3181
   34MOL     C536710   2.692   2.416   3.098  0.3196 -0.8397 -0.2964
   34MOL     C636711   2.738   2.550   3.098  0.3932  0.1655 -0.6332
   34MOL     H736712   2.805   2.580   3.429  0.5878 -0.1397 -1.1034
   34MOL     H836713   2.698   2.340   3.424  1.8374 -2.1066 -1.0119
   34MOL     H936714   2.786   2.101   3.432  2.1836  0.3573  1.5338
   34MOL    H1036715   2.975   1.941   3.453  1.9488  0.0638 -0.3197
   34MOL    H1136716   3.224   1.612   3.304 -1.5454  0.4216  1.8142
   34MOL    H1236717   3.473   1.662   3.381  1.3783  0.0356 -1.7627
   34MOL    H1336718   3.710   2.027   3.529 -0.1691  0.3845  0.5740
   34MOL    H1436719   3.546   2.000   3.559  0.3117  1.6160  0.8776
   34MOL    H1536720   3.574   2.113   3.436 -0.1475  1.3344  2.3408
   34MOL    H1636721   3.771   1.807   3.493  0.0957 -1.0588 -0.1609
   34MOL    H1736722   3.627   1.741   3.539 -1.7465 -0.5375 -0.5183
   34MOL    H1836723   3.689   1.705   3.376 -0.9552 -1.3280  0.4896
   34MOL    H1936724   3.550   1.861   3.113 -0.1271  1.8043 -1.3068
   34MOL    H2036725   3.730   1.857   2.928  2.5318  2.0696 -1.5093
   34MOL    H2136726   4.004   2.058   3.184  0.0248 -0.3210  0.8443
   34MOL    H2236727   3.844   1.996   3.373 -1.3657 -1.6601  0.9218
   34MOL    H2336728   3.411   2.068   3.284 -1.2896  0.2692  0.2245
   34MOL    H2436729   3.178   2.026   3.221  3.1031  2.1656 -0.0294
   34MOL    H2536730   2.922   1.836   3.029 -0.6609  1.1267 -0.7605
   34MOL    H2636731   2.747   2.014   3.014  1.6671  2.5041 -0.1452
   34MOL    H2736732   2.663   2.368   3.006 -1.3958 -1.3971  0.5158
   34MOL    H2836733   2.757   2.600   3.004  0.4366  1.0824 -0.1410
   34MOL    C2936734   4.074   1.874   2.939  0.1336  0.7095 -0.5890
   34MOL    C3036735   4.080   1.756   3.017  0.2648  0.6745  0.5074
   34MOL    C3136736   4.196   1.673   3.006  0.2354 -0.3344 -0.0971
   34MOL    C3236737   4.296   1.710   2.907  0.3821 -0.1143 -0.3364
   34MOL    S3336738   4.434   1.596   2.863  0.0581  0.2790 -0.2941
   34MOL    O3436739   4.516   1.668   2.762 -0.7636 -0.2666  0.2901
   34MOL    O3536740   4.377   1.465   2.826 -0.6976  0.2579  0.0628
   34MOL    C3636741   4.545   1.570   3.010  0.1672 -0.3859 -0.2510
   34MOL    C3736742   4.653   1.480   2.999  0.1308 -0.2479 -0.4482
   34MOL    C3836743   4.737   1.456   3.108 -0.5192 -0.2693 -0.9158
   34MOL    C3936744   4.724   1.533   3.224 -0.5160  0.0675  0.7272
   34MOL    O4036745   4.821   1.521   3.317  0.0827  0.4914  0.4963
   34MOL    C4136746   4.946   1.552   3.274 -1.0023 -0.5944 -0.4571
   34MOL    C4236747   4.982   1.675   3.212  0.3177  0.1406  0.8850
   34MOL    C4336748   5.117   1.704   3.186  0.2496  0.1110 -0.4122
   34MOL    C4436749   5.224   1.620   3.219 -0.3840  0.2019  0.6394
   34MOL    C4536750   5.367   1.668   3.213 -0.8831 -0.2269 -0.1312
   34MOL    C4636751   5.394   1.745   3.344 -0.4485  0.1783  0.1812
   34MOL    C4736752   5.464   1.550   3.194 -0.2589 -0.4463  0.6617
   34MOL    C4836753   5.388   1.756   3.087 -0.0320  0.1737 -0.1028
   34MOL    C4936754   5.344   1.712   2.961  0.1002  0.2964 -0.0304
   34MOL    C5036755   5.371   1.786   2.845  0.8625  0.5198  0.5736
   34MOL    C5136756   5.431   1.909   2.855  0.3844 -0.2131  0.3801
   34MOL    O5236757   5.466   1.969   2.740  0.1069  0.7032  0.2824
   34MOL    C5336758   5.463   1.966   2.986 -0.4453  0.2221  0.7156
   34MOL    C5436759   5.452   1.881   3.097  0.4264  0.4412 -0.0063
   34MOL    C5536760   5.184   1.496   3.273  0.4708  0.0985  0.0870
   34MOL    C5636761   5.051   1.459   3.303 -0.1728  0.1257  0.0350
   34MOL    C5736762   4.615   1.622   3.230 -0.4629  1.6615 -0.7450
   34MOL    C5836763   4.523   1.639   3.128 -0.1997 -0.1775  0.2414
   34MOL    C5936764   4.291   1.832   2.836 -0.2211  0.2080 -0.1596
   34MOL    C6036765   4.183   1.916   2.861 -0.1730  0.0756  0.2496
   34MOL    H6136766   4.004   1.715   3.082 -0.5533 -2.3369 -2.2049
   34MOL    H6236767   4.203   1.580   3.061 -0.4711  1.1953  2.6793
   34MOL    H6336768   4.675   1.434   2.903  0.8027 -0.2723 -0.2805
   34MOL    H6436769   4.826   1.396   3.097 -1.0216 -1.2227  0.1148
   34MOL    H6536770   4.905   1.750   3.204  0.4440  0.5591  3.3136
   34MOL    H6636771   5.147   1.798   3.143 -0.8220 -0.0808 -1.5948
   34MOL    H6736772   5.327   1.831   3.351 -0.6095  0.1043 -0.4253
   34MOL    H6836773   5.500   1.767   3.360 -0.6613  0.5175  1.1830
   34MOL    H6936774   5.367   1.682   3.429  2.1437 -3.1460 -1.3720
   34MOL    H7036775   5.460   1.473   3.270 -1.0159 -1.5040 -0.4295
   34MOL    H7136776   5.452   1.501   3.097 -1.4552 -0.5802  0.8651
   34MOL    H7236777   5.568   1.583   3.189 -0.1034 -1.0415 -0.1539
   34MOL    H7336778   5.296   1.616   2.948  0.6594  0.1719 -1.1941
   34MOL    H7436779   5.345   1.759   2.744  1.1944  1.8094  0.1359
   34MOL    H7536780   5.509   2.063   2.998  2.9804 -1.1049 -0.9962
   34MOL    H7636781   5.492   1.924   3.188 -2.4137  0.7808  1.1399
   34MOL    H7736782   5.254   1.417   3.295  1.1206  0.7852  0.5105
   34MOL    H7836783   5.032   1.362   3.346  2.8247  0.2547  1.7432
   34MOL    H7936784   4.597   1.672   3.324 -3.1655 -2.3547  1.0234
   34MOL    H8036785   4.437   1.698   3.155 -0.7132 -0.8526  0.0918
   34MOL    H8136786   4.359   1.868   2.760  1.0594 -0.9108  0.4413
   34MOL    H8236787   4.178   2.010   2.808  0.4153  1.0536  1.8986
   34MOL    H8336788   5.449   2.062   2.733  0.2486  0.7225  0.2005
   35MOL     C136789   2.977   8.162   6.506 -0.0561 -0.4540 -0.1047
   35MOL     C236790   2.946   8.134   6.372 -0.2012  0.6100  0.2287
   35MOL     C336791   3.042   8.143   6.272  0.0748  0.0847  0.3025
   35MOL     C436792   3.165   8.203   6.303  0.3004 -0.3099  0.6098
   35MOL     S536793   3.290   8.234   6.182 -0.3507 -0.3850  0.2215
   35MOL     O636794   3.275   8.130   6.079 -0.3896  0.7793  0.0815
   35MOL     O736795   3.423   0.004   6.246  0.2135 -0.1043  0.1506
   35MOL     C836796   3.243   0.134   6.103  0.5540 -0.8598 -0.1060
   35MOL     C936797   3.104   0.176   6.107 -0.1556  0.2737  0.7581
   35MOL    C1036798   3.074   0.312   6.062 -0.1107  0.9579 -0.7018
   35MOL    C1136799   3.166   0.403   6.008  0.2629  0.7262 -0.3087
   35MOL    O1236800   3.125   0.522   5.969 -0.7979 -0.6336  0.4417
   35MOL    C1336801   3.170   0.630   6.034  0.4207 -0.2657 -0.2913
   35MOL    C1436802   3.117   0.683   6.155  0.0123  0.2830  0.7027
   35MOL    C1536803   3.166   0.804   6.210  0.0456  0.6099 -0.8103
   35MOL    C1636804   3.273   0.871   6.151 -0.1315 -0.1029  0.5044
   35MOL    C1736805   3.315   1.008   6.212  0.4673 -1.5268 -0.2886
   35MOL    C1836806   3.191   1.090   6.266  0.1834  0.3167  0.4210
   35MOL    C1936807   3.397   0.979   6.338  0.4201 -0.5797  0.1103
   35MOL    C2036808   3.389   1.094   6.109  0.0036  0.4680 -0.7186
   35MOL    C2136809   3.521   1.140   6.138 -0.2263 -0.5326 -0.5422
   35MOL    C2236810   3.579   1.232   6.050  0.4224  0.4077 -0.1976
   35MOL    C2336811   3.520   1.263   5.926 -0.6796 -0.0754 -0.3292
   35MOL    O2436812   3.574   1.335   5.826 -0.2404 -0.1484 -0.4127
   35MOL    C2536813   3.393   1.207   5.893  0.0867 -0.2940 -0.7073
   35MOL    C2636814   3.326   1.130   5.989  0.6132 -1.2326 -0.2137
   35MOL    C2736815   3.321   0.820   6.023 -1.1579  0.3250 -0.5099
   35MOL    C2836816   3.268   0.699   5.973 -0.6310  0.1526  0.2491
   35MOL    C2936817   3.298   0.358   6.002  0.3741 -0.6944  0.3770
   35MOL    C3036818   3.342   0.227   6.054 -0.2016 -0.2754  0.0974
   35MOL    C3136819   3.195   8.248   6.432  0.4746 -0.0034 -0.3304
   35MOL    C3236820   3.101   8.229   6.532 -0.5220  0.8211 -0.2335
   35MOL    H3336821   2.849   8.090   6.357  0.5126 -0.4650 -1.3771
   35MOL    H3436822   3.026   8.108   6.171  0.9886  1.8569 -0.4732
   35MOL    H3536823   3.025   0.111   6.140  0.1043 -0.2024  0.4444
   35MOL    H3636824   2.970   0.338   6.072 -0.5370 -0.6783 -0.8027
   35MOL    H3736825   3.041   0.627   6.208  0.9330  0.0489  1.7902
   35MOL    H3836826   3.115   0.840   6.298 -1.7188 -2.6833 -0.4079
   35MOL    H3936827   3.105   1.103   6.200  0.0814  2.1053  0.8853
   35MOL    H4036828   3.212   1.196   6.279 -2.1983  0.7780  0.7343
   35MOL    H4136829   3.153   1.051   6.361 -0.5867  0.9853  0.3977
   35MOL    H4236830   3.423   1.064   6.402  0.9811  0.0754 -0.9767
   35MOL    H4336831   3.337   0.925   6.411  1.2081 -2.4521 -0.6068
   35MOL    H4436832   3.490   0.925   6.318  1.5060  1.3369 -0.1451
   35MOL    H4536833   3.579   1.115   6.225  0.3191  1.8068 -0.1841
   35MOL    H4636834   3.672   1.279   6.079 -0.4340  0.2537  2.9543
   35MOL    H4736835   3.346   1.233   5.799 -2.4664  0.6709  0.7943
   35MOL    H4836836   3.220   1.109   5.981  0.4452 -0.9591  1.1456
   35MOL    H4936837   3.398   0.861   5.960 -1.2679  2.7679  0.8968
   35MOL    H5036838   3.301   0.669   5.875 -0.7720  0.7463  0.0134
   35MOL    H5136839   3.372   0.428   5.965 -0.7526  0.4256  0.2306
   35MOL    H5236840   3.447   0.204   6.060 -0.7029 -2.2404  1.9129
   35MOL    H5336841   3.288   0.040   6.463 -0.6237  1.2938  1.1562
   35MOL    H5436842   3.123   0.015   6.631 -1.3470 -1.7541  1.0153
   35MOL    H5536843   2.899   8.148   6.579  0.2396 -0.3009  0.2433
   35MOL    C5636844   3.679   1.285   5.755 -0.2468 -0.5479 -0.1431
   35MOL    C5736845   3.656   1.273   5.616 -0.1271 -0.4832  0.2026
   35MOL    C5836846   3.754   1.234   5.523 -0.5488  0.5402 -0.5580
   35MOL    C5936847   3.886   1.228   5.576  0.2765 -0.4521  0.4361
   35MOL    S6036848   4.030   1.199   5.473  0.1229 -0.1295 -0.1481
   35MOL    O6136849   4.123   1.111   5.545  0.4405  0.3195  1.5067
   35MOL    O6236850   4.082   1.334   5.435 -0.1639 -0.1810 -0.3522
   35MOL    C6336851   3.980   1.119   5.321  0.2605  0.3644  0.3901
   35MOL    C6436852   3.954   0.981   5.321  0.1207 -0.2202 -0.1578
   35MOL    C6536853   3.889   0.923   5.216  0.1341  0.0687  0.4236
   35MOL    C6636854   3.868   0.991   5.092  0.2714 -0.6034 -0.8241
   35MOL    O6736855   3.810   0.932   4.987  0.3164  0.5300 -0.6700
   35MOL    C6836856   3.678   0.882   5.002 -0.3118  1.1367  0.5903
   35MOL    C6936857   3.643   0.747   4.973 -0.6894  0.6804  0.3739
   35MOL    C7036858   3.514   0.698   5.004  0.4197  0.0855  0.0984
   35MOL    C7136859   3.409   0.786   5.046 -0.4221  0.0813  0.8145
   35MOL    C7236860   3.257   0.743   5.052 -0.6531  0.6541  0.2468
   35MOL    C7336861   3.202   0.687   4.920 -0.1372 -0.5567 -0.3288
   35MOL    C7436862   3.232   0.621   5.150  0.1797 -0.1804 -0.6951
   35MOL    C7536863   3.167   0.867   5.097  0.0086 -0.0940  0.0446
   35MOL    C7636864   3.147   0.896   5.235  0.1090  0.1406  0.1306
   35MOL    C7736865   3.064   1.002   5.278  0.4298  0.2319  0.0095
   35MOL    C7836866   3.008   1.085   5.184  0.8854 -1.3619 -0.0769
   35MOL    O7936867   2.922   1.183   5.235 -0.0443  0.6863  0.6597
   35MOL    C8036868   3.025   1.058   5.047 -0.5072 -0.2769 -0.1571
   35MOL    C8136869   3.104   0.948   5.003  0.0595 -0.0165  0.0343
   35MOL    C8236870   3.447   0.922   5.059  0.3408  0.4245 -0.1644
   35MOL    C8336871   3.578   0.975   5.043 -0.5451 -0.1029 -0.1968
   35MOL    C8436872   3.916   1.124   5.087  0.5272 -0.2810 -0.9040
   35MOL    C8536873   3.966   1.191   5.200  0.5388  0.1055 -0.8575
   35MOL    C8636874   3.912   1.241   5.718 -0.0859 -0.2014  0.1067
   35MOL    C8736875   3.803   1.259   5.809 -0.3140 -0.1698  0.6186
   35MOL    H8836876   3.554   1.296   5.589  0.5725 -0.5407 -2.6787
   35MOL    H8936877   3.735   1.238   5.417 -0.3664  2.5424 -0.5392
   35MOL    H9036878   3.964   0.923   5.411 -2.3957 -1.4852 -0.6548
   35MOL    H9136879   3.860   0.823   5.245 -0.2917  0.3165  0.8701
   35MOL    H9236880   3.709   0.675   4.927 -0.4214  1.1535  0.0070
   35MOL    H9336881   3.480   0.596   4.992 -0.8853  0.4185  0.8016
   35MOL    H9436882   3.214   0.759   4.840  1.6223 -1.2509 -0.7042
   35MOL    H9536883   3.093   0.679   4.930 -0.2481 -0.1403 -1.1916
   35MOL    H9636884   3.243   0.593   4.882  2.6167  0.8112 -0.8192
   35MOL    H9736885   3.291   0.533   5.124 -1.6496 -1.0502 -2.0284
   35MOL    H9836886   3.264   0.648   5.251  0.8425  1.6317 -1.3564
   35MOL    H9936887   3.130   0.584   5.153 -0.4342  1.4813 -0.4052
   35MOL   H10036888   3.202   0.839   5.309 -1.0931  0.8892  1.6391
   35MOL   H10136889   3.045   1.008   5.384  1.7519 -1.3534  0.3444
   35MOL   H10236890   2.980   1.120   4.970 -2.1414 -2.2731 -0.8524
   35MOL   H10336891   3.118   0.943   4.896  0.0507  0.0936  0.0287
   35MOL   H10436892   3.368   0.986   5.096  1.5917  0.5640  2.4012
   35MOL   H10536893   3.598   1.078   5.069  1.3967 -0.2972 -0.8863
   35MOL   H10636894   3.919   1.173   4.990 -2.7049  1.4754 -0.2005
   35MOL   H10736895   4.013   1.288   5.201 -0.0150  0.3732 -0.1871
   35MOL   H10836896   4.014   1.230   5.751  0.8447  0.8827 -2.3034
   35MOL   H10936897   3.827   1.255   5.914 -1.2741  1.1851  0.9026
   35MOL   C11036898   2.790   1.151   5.263 -0.6217  0.7259  0.0774
   35MOL   C11136899   2.695   1.098   5.170 -0.0364 -0.3919 -0.4280
   35MOL   C11236900   2.568   1.058   5.216  0.0720  0.4116  0.7769
   35MOL   C11336901   2.533   1.055   5.351 -0.7595  0.3367  0.0700
   35MOL   S11436902   2.389   0.968   5.408  0.3048 -0.3596  0.2860
   35MOL   O11536903   2.332   1.035   5.528 -0.1493  0.6065 -0.6899
   35MOL   O11636904   2.417   0.825   5.415 -0.6731  0.6295  0.1133
   35MOL   C11736905   2.268   1.014   5.284  0.8182  0.2452  0.5002
   35MOL   C11836906   2.213   0.917   5.195  0.4756  0.2433 -0.0235
   35MOL   C11936907   2.133   0.957   5.094 -0.4701  0.7351  0.0773
   35MOL   C12036908   2.092   1.088   5.086 -0.0453  0.3508  0.1114
   35MOL   O12136909   1.997   1.123   4.993  0.0316  0.4149 -0.0236
   35MOL   C12236910   1.865   1.072   5.004 -0.3556 -0.4271  1.2101
   35MOL   C12336911   1.839   0.953   4.938  0.5480 -0.4911  0.5911
   35MOL   C12436912   1.713   0.894   4.952 -0.7195  0.5847  0.4011
   35MOL   C12536913   1.607   0.950   5.032  0.0631  0.2823  0.3328
   35MOL   C12636914   1.479   0.866   5.063  0.2337 -0.0724  0.2849
   35MOL   C12736915   1.514   0.761   5.174  0.1442 -0.4437  0.4450
   35MOL   C12836916   1.359   0.952   5.109 -0.1944 -0.4581 -0.8784
   35MOL   C12936917   1.420   0.803   4.934  0.2286  0.7324  0.2034
   35MOL   C13036918   1.414   0.871   4.813 -0.3356 -0.5567  0.6417
   35MOL   C13136919   1.363   0.818   4.699  0.2620 -0.3190 -0.2902
   35MOL   C13236920   1.325   0.680   4.697 -0.3710 -0.5064 -0.4614
   35MOL   O13336921   1.280   0.624   4.576 -0.1901 -0.2776  0.5808
   35MOL   C13436922   1.324   0.604   4.821 -0.2388  0.0049  0.4713
   35MOL   C13536923   1.365   0.670   4.940  0.5240  0.7547  1.1248
   35MOL   C13636924   1.641   1.071   5.094  0.2402 -0.8188 -0.3270
   35MOL   C13736925   1.771   1.135   5.079 -0.0646 -0.2640  0.0905
   35MOL   C13836926   2.153   1.189   5.161 -0.6011 -0.6772 -0.5790
   35MOL   C13936927   2.240   1.155   5.262 -0.2052 -0.5390  0.0156
   35MOL   C14036928   2.621   1.116   5.441  0.3830  0.3320 -0.2073
   35MOL   C14136929   2.742   1.168   5.402  0.2392  0.8525  0.6229
   35MOL   H14236930   2.731   1.082   5.069  3.3098  0.2994  0.5928
   35MOL   H14336931   2.510   0.999   5.146 -1.5286 -0.6123  2.9102
   35MOL   H14436932   2.247   0.814   5.192  0.8988  0.3964 -0.5343
   35MOL   H14536933   2.098   0.880   5.027  1.7144  0.0466 -0.3273
   35MOL   H14636934   1.924   0.915   4.883 -1.4009 -2.1907 -1.3959
   35MOL   H14736935   1.691   0.799   4.905 -1.4606 -0.2227  2.3217
   35MOL   H14836936   1.591   0.692   5.140  1.3944  0.7585  0.8239
   35MOL   H14936937   1.433   0.708   5.224  0.1937 -0.7710  0.1822
   35MOL   H15036938   1.571   0.822   5.244  0.4977  0.2212 -0.4191
   35MOL   H15136939   1.378   0.994   5.208 -2.2030 -0.5621 -0.4340
   35MOL   H15236940   1.348   1.035   5.040 -1.9716  0.4613  0.4682
   35MOL   H15336941   1.265   0.897   5.106 -0.3850 -0.1650 -0.3080
   35MOL   H15436942   1.445   0.974   4.813 -3.0838  0.3060  0.5608
   35MOL   H15536943   1.354   0.874   4.607 -1.2244  0.4885  0.3295
   35MOL   H15636944   1.292   0.502   4.814 -0.8582  0.3020 -1.1228
   35MOL   H15736945   1.377   0.613   5.031  1.5107 -0.7870  0.0545
   35MOL   H15836946   1.573   1.120   5.163  0.8501 -1.8657  1.0600
   35MOL   H15936947   1.781   1.230   5.131 -3.3434  0.4600 -0.4453
   35MOL   H16036948   2.135   1.293   5.138  0.4432 -0.2895  0.3077
   35MOL   H16136949   2.290   1.232   5.320 -0.4032  0.6587 -1.3792
   35MOL   H16236950   2.585   1.124   5.543 -0.3539 -1.2356 -0.3167
   35MOL   H16336951   2.808   1.212   5.475  0.7107 -0.5665  1.0873
   35MOL   C16436952   1.371   0.563   4.487  0.7350 -0.5582 -0.4363
   35MOL   C16536953   1.508   0.551   4.526 -0.1675 -0.2714  0.1651
   35MOL   C16636954   1.604   0.503   4.436  0.1353  0.3087  0.3183
   35MOL   C16736955   1.570   0.467   4.303  0.3955 -0.9661  0.3032
   35MOL   S16836956   1.703   0.427   4.184  0.1380 -0.4167 -0.4554
   35MOL   O16936957   1.829   0.487   4.221  0.4856  0.1529 -0.1687
   35MOL   O17036958   1.646   0.443   4.046 -0.5800  0.0065  0.3036
   35MOL   C17136959   1.727   0.252   4.205 -0.4614  0.2749  0.6818
   35MOL   C17236960   1.804   0.176   4.107 -0.0816  0.8335 -0.1493
   35MOL   C17336961   1.812   0.039   4.116 -0.3482  0.6819  0.4805
   35MOL   C17436962   1.763   8.224   4.231 -0.1794  0.3787 -0.2696
   35MOL   O17536963   1.797   8.092   4.252 -0.9414  0.2050  0.3465
   35MOL   C17636964   1.800   8.005   4.148 -0.5681 -0.1944  0.0723
   35MOL   C17736965   1.921   7.975   4.080 -0.4741 -0.9448  0.2434
   35MOL   C17836966   1.924   7.872   3.986 -0.4219 -0.2046 -0.5958
   35MOL   C17936967   1.812   7.795   3.956  0.1541 -0.0078  0.0602
   35MOL   C18036968   1.823   7.665   3.871  0.3202 -1.3710 -0.0239
   35MOL   C18136969   1.956   7.649   3.794  0.2417 -0.3468  0.2870
   35MOL   C18236970   1.819   7.551   3.970 -0.1877  0.4562  0.1454
   35MOL   C18336971   1.709   7.658   3.765  0.1795  0.0257  0.0444
   35MOL   C18436972   1.652   7.525   3.740  0.1536 -0.5782  0.1485
   35MOL   C18536973   1.551   7.513   3.644 -0.2313  0.4689 -0.5933
   35MOL   C18636974   1.509   7.628   3.573  1.1604  0.3016  0.6156
   35MOL   O18736975   1.402   7.613   3.485  0.5536  0.5217 -0.8349
   35MOL   C18836976   1.568   7.754   3.599 -0.2600 -0.4526 -0.3289
   35MOL   C18936977   1.663   7.773   3.697  0.4611 -0.4841  0.3771
   35MOL   C19036978   1.690   7.848   3.996  0.0411 -0.2275  0.4140
   35MOL   C19136979   1.687   7.941   4.102  0.7338 -0.0375 -0.0026
   35MOL   C19236980   1.698   0.044   4.331 -0.1850  0.2588 -0.2610
   35MOL   C19336981   1.677   0.186   4.318 -0.4228 -0.4502  0.3210
   35MOL   C19436982   1.437   0.485   4.263 -0.5816  0.0602 -0.0291
   35MOL   C19536983   1.345   0.542   4.353 -0.2795 -0.5195 -0.9689
   35MOL   H19636984   1.544   0.593   4.619  1.9169 -1.0245 -0.2756
   35MOL   H19736985   1.706   0.489   4.467  0.3414 -0.7339 -0.7919
   35MOL   H19836986   1.851   0.224   4.023  0.4016  0.0555 -0.3234
   35MOL   H19936987   1.866   8.233   4.044  1.0565  1.0038  1.2578
   35MOL   H20036988   2.016   8.021   4.107 -1.5145 -0.1774  2.7383
   35MOL   H20136989   2.021   7.835   3.956 -0.9817 -2.5502  0.3461
   35MOL   H20236990   1.954   7.730   3.721 -2.3060 -0.2827  0.3663
   35MOL   H20336991   1.952   7.559   3.732  2.2938 -1.4897  1.7761
   35MOL   H20436992   2.048   7.651   3.853  1.5141 -1.2976 -1.6084
   35MOL   H20536993   1.722   7.543   4.018 -1.5461 -1.4016 -2.8204
   35MOL   H20636994   1.825   7.449   3.932  0.1230  1.3516 -2.2856
   35MOL   H20736995   1.890   7.561   4.053  1.5657 -1.8751 -0.9884
   35MOL   H20836996   1.678   7.440   3.802 -2.0471 -1.5259 -0.1910
   35MOL   H20936997   1.501   7.421   3.618 -0.0605  0.3598 -0.5344
   35MOL   H21036998   1.547   7.839   3.536  0.0210  0.7487  1.1679
   35MOL   H21136999   1.714   7.869   3.696 -0.9204  0.2523 -0.9113
   35MOL   H21237000   1.602   7.790   3.974 -0.6233  0.4451  1.3071
   35MOL   H21337001   1.594   7.971   4.146 -0.6507 -1.3439 -1.9641
   35MOL   H21437002   1.650   8.247   4.414  2.2016 -0.8028  0.5493
   35MOL   H21537003   1.621   0.234   4.397  1.4773 -0.9325  2.0022
   35MOL   H21637004   1.400   0.469   4.162  1.0521  0.6595 -0.7349
   35MOL   H21737005   1.250   0.564   4.305 -0.1758  0.9445 -0.5511
   35MOL   C21837006   1.425   7.632   3.349 -0.2615 -0.1061 -0.0647
   35MOL   C21937007   1.549   7.593   3.290 -0.0505 -1.3585  0.4345
   35MOL   C22037008   1.564   7.604   3.151 -0.0797 -0.9381 -0.2275
   35MOL   C22137009   1.460   7.654   3.070 -0.4902  0.5261  0.1536
   35MOL   S22237010   1.487   7.660   2.892  0.0547  0.1623 -0.1700
   35MOL   O22337011   1.450   7.529   2.843 -0.0184 -0.1790  0.0819
   35MOL   O22437012   1.621   7.719   2.863  0.4214  0.0418 -0.2931
   35MOL   C22537013   1.371   7.781   2.834  0.7020  0.2565 -0.1777
   35MOL   C22637014   1.257   7.731   2.760 -0.3866 -0.3088 -0.6529
   35MOL   C22737015   1.168   7.817   2.700 -0.2226 -0.0935 -0.1631
   35MOL   C22837016   1.181   7.954   2.724  0.3838  0.2433  0.0605
   35MOL   O22937017   1.080   8.043   2.674 -0.5912  0.2396  0.9314
   35MOL   C23037018   1.109   8.110   2.560  0.9252 -0.0062 -0.0282
   35MOL   C23137019   1.215   8.081   2.473  0.1603 -0.9875 -0.2365
   35MOL   C23237020   1.228   8.147   2.349  0.4120 -0.4975 -0.0095
   35MOL   C23337021   1.140   0.004   2.315  0.1882 -0.5431  0.2429
   35MOL   C23437022   1.160   0.105   2.203 -0.0184 -1.0722  0.1972
   35MOL   C23537023   1.220   0.232   2.264  0.4614  0.6095 -0.0523
   35MOL   C23637024   1.251   0.041   2.092 -0.1135 -0.0256  1.1403
   35MOL   C23737025   1.025   0.145   2.140 -0.0718 -0.6117  0.1311
   35MOL   C23837026   0.921   0.047   2.113 -0.2464  0.3817 -0.7109
   35MOL   C23937027   0.800   0.084   2.064  0.0737  0.3432 -0.3008
   35MOL   C24037028   0.770   0.221   2.047  0.4229 -0.2675 -0.5980
   35MOL   O24137029   0.647   0.257   1.997 -1.0026  0.4285 -0.4257
   35MOL   C24237030   0.870   0.319   2.068  0.0868 -0.0809  0.2940
   35MOL   C24337031   0.995   0.279   2.108 -0.0463  0.0146 -0.4961
   35MOL   C24437032   1.030   0.027   2.403 -0.7253  0.4648  0.0677
   35MOL   C24537033   1.018   8.206   2.525  0.6581  0.0196  0.8687
   35MOL   C24637034   1.286   8.006   2.797 -0.0100 -0.5904 -0.3400
   35MOL   C24737035   1.390   7.922   2.845  0.0755  0.7279  0.5846
   35MOL   C24837036   1.341   7.689   3.134 -0.2277  0.0929  0.2727
   35MOL   C24937037   1.321   7.682   3.268 -0.3179 -0.1606 -0.3964
   35MOL   H25037038   1.628   7.552   3.351  1.9586  1.0959 -0.4266
   35MOL   H25137039   1.655   7.561   3.111  1.1699  1.1303  0.3223
   35MOL   H25237040   1.253   7.624   2.745 -0.1006 -0.3126 -0.6940
   35MOL   H25337041   1.080   7.789   2.644  1.3320 -2.6985 -1.3930
   35MOL   H25437042   1.290   8.009   2.504  1.1292  0.3900  0.6919
   35MOL   H25537043   1.310   8.104   2.293  0.8782 -1.3792  1.3169
   35MOL   H25637044   1.301   0.205   2.332 -0.2057 -0.5626  0.2891
   35MOL   H25737045   1.166   0.301   2.329  2.4827  1.2727  0.9860
   35MOL   H25837046   1.260   0.295   2.185 -1.3999  0.5734 -1.0470
   35MOL   H25937047   1.197   8.209   2.053  2.0206 -1.4778  1.2965
   35MOL   H26037048   1.271   0.103   2.004 -1.3298 -2.4496 -0.8982
   35MOL   H26137049   1.335   0.001   2.148  0.1011  0.7509  1.3877
   35MOL   H26237050   0.940   8.196   2.131 -1.0201  0.4574  0.6502
   35MOL   H26337051   0.733   0.003   2.037  0.3440  0.7098 -2.1462
   35MOL   H26437052   0.843   0.421   2.048  1.7952  0.7754  2.2422
   35MOL   H26537053   1.065   0.361   2.114  1.7715 -1.4568 -1.1959
   35MOL   H26637054   0.958   0.103   2.378 -1.6093 -0.2297  0.4910
   35MOL   H26737055   0.934   8.225   2.590  0.3465  1.3917  0.0710
   35MOL   H26837056   1.289   8.112   2.820  0.4878 -1.1323  2.1958
   35MOL   H26937057   1.477   7.959   2.897  0.2957  2.0418 -0.6994
   35MOL   H27037058   1.261   7.732   3.075  0.0874  0.5537  0.1779
   35MOL   H27137059   1.234   7.718   3.321 -1.4699 -2.7320 -0.4712
   35MOL   C27237060   0.536   0.265   2.082  0.1734 -0.4940  0.2064
   35MOL   C27337061   0.535   0.266   2.221 -0.0510 -0.0748 -0.5583
   35MOL   C27437062   0.416   0.251   2.295  0.0221  0.4965  0.3119
   35MOL   C27537063   0.293   0.254   2.229  0.2348  0.1764  0.1296
   35MOL   S27637064   0.145   0.250   2.327  0.3364 -0.0927 -0.1653
   35MOL   O27737065   0.179   0.240   2.472  0.4502  0.5655  0.4345
   35MOL   O27837066   0.062   0.148   2.260  0.4903  0.1644 -0.1459
   35MOL   C27937067   0.057   0.409   2.296 -0.1106 -0.1141 -0.6930
   35MOL   C28037068   0.102   0.526   2.358 -0.6372  0.7279 -0.7379
   35MOL   C28137069   0.053   0.651   2.321  0.1695 -0.4564  0.0504
   35MOL   C28237070   8.191   0.657   2.231 -0.1724  0.3770  0.7012
   35MOL   O28337071   8.119   0.769   2.204  0.2203  0.4758 -0.2162
   35MOL   C28437072   8.166   0.846   2.103 -0.2376 -0.4286 -0.4458
   35MOL   C28537073   8.127   0.828   1.967 -0.1950  0.2118 -0.0716
   35MOL   C28637074   8.177   0.916   1.871 -0.4039  0.1905 -0.3150
   35MOL   C28737075   0.036   1.002   1.902  0.6545  1.0882  0.1823
   35MOL   C28837076   0.101   1.096   1.798  0.3317 -0.1856 -1.1532
   35MOL   C28937077   0.063   1.059   1.651  0.3634 -0.6804  0.3011
   35MOL   C29037078   0.050   1.248   1.826 -0.5314 -0.7663 -0.6737
   35MOL   C29137079   0.254   1.085   1.819  0.3382 -0.9271  0.1542
   35MOL   C29237080   0.319   0.966   1.772 -0.0799 -0.4141  0.3764
   35MOL   C29337081   0.454   0.945   1.797  0.1814 -0.4361  0.2636
   35MOL   C29437082   0.533   1.037   1.865 -0.5036  1.0275  0.4119
   35MOL   O29537083   0.670   1.015   1.880 -0.0412  0.2977  0.0830
   35MOL   C29637084   0.480   1.164   1.897 -0.2404  0.6410 -0.0493
   35MOL   C29737085   0.339   1.188   1.869  0.0034 -0.4844 -1.0211
   35MOL   C29837086   0.081   1.003   2.036  1.0665 -0.0937  0.0580
   35MOL   C29937087   0.028   0.929   2.138  0.8732  0.0350 -0.4327
   35MOL   C30037088   8.149   0.540   2.168  0.3319  0.4437 -0.2413
   35MOL   C30137089   8.211   0.417   2.199 -0.1726 -0.0643  0.1123
   35MOL   C30237090   0.288   0.264   2.089  0.1372 -0.3600  0.4488
   35MOL   C30337091   0.409   0.266   2.018 -0.1159 -0.2846  0.4002
   35MOL   H30437092   0.627   0.264   2.277  0.2294  0.6505 -0.9929
   35MOL   H30537093   0.431   0.246   2.402  1.8606  0.0910  0.0580
   35MOL   H30637094   0.182   0.532   2.430 -2.1366  1.7523  0.8718
   35MOL   H30737095   0.063   0.742   2.378 -0.7014 -1.5428  1.9971
   35MOL   H30837096   8.046   0.758   1.952  0.1991 -0.9505  2.8238
   35MOL   H30937097   8.139   0.907   1.770  0.6304  1.2001 -0.8082
   35MOL   H31037098   0.106   1.116   1.569 -1.9736 -2.6857 -2.4688
   35MOL   H31137099   8.208   1.074   1.650  0.4526  0.0334  0.9990
   35MOL   H31237100   0.088   0.955   1.626  0.3872 -0.4351 -0.7281
   35MOL   H31337101   8.196   1.248   1.804 -0.4656  0.6955 -1.0386
   35MOL   H31437102   0.078   1.278   1.927 -0.2354 -1.9777 -0.3926
   35MOL   H31537103   0.104   1.312   1.757  0.3435 -2.9139 -2.0311
   35MOL   H31637104   0.264   0.878   1.742  0.9015 -0.6483 -0.8090
   35MOL   H31737105   0.501   0.852   1.768 -1.1801 -1.0425 -0.0663
   35MOL   H31837106   0.546   1.235   1.944 -0.3318  0.0111  1.0430
   35MOL   H31937107   0.304   1.286   1.897 -1.8922 -0.8290 -2.1274
   35MOL   H32037108   0.164   1.068   2.059  1.7346 -0.1950 -1.9195
   35MOL   H32137109   0.055   0.925   2.243 -0.1768 -1.1319 -0.1989
   35MOL   H32237110   8.070   0.543   2.094 -0.5508  0.3794  0.6967
   35MOL   H32337111   8.175   0.328   2.149 -0.7806  0.2972 -0.0957
   35MOL   H32437112   0.190   0.268   2.044 -0.7559  0.2245  2.3668
   35MOL   H32537113   0.409   0.267   1.910  3.2985 -0.9200  0.3432
   35MOL   C32637114   0.743   1.001   1.760 -0.4191  0.2482  0.4773
   35MOL   C32737115   0.780   1.123   1.687 -0.0165  0.1277 -0.5586
   35MOL   C32837116   0.835   1.115   1.552  0.0888  0.1974 -1.1166
   35MOL   C32937117   0.851   0.980   1.500  0.1124 -0.3267 -0.6053
   35MOL   S33037118   0.933   0.957   1.345 -0.2863 -0.0011 -0.2352
   35MOL   O33137119   0.944   1.085   1.278 -0.0825 -0.2172 -0.1769
   35MOL   O33237120   0.875   0.845   1.274 -0.2107  0.0649 -0.5134
   35MOL   C33337121   1.097   0.914   1.394 -0.1007 -0.1699 -0.1661
   35MOL   C33437122   1.201   1.014   1.408  0.7340  0.2699 -0.0531
   35MOL   C33537123   1.333   0.975   1.430 -0.0644  0.5666  0.4339
   35MOL   C33637124   1.366   0.843   1.429  0.7580 -0.1927  0.8182
   35MOL   O33737125   1.493   0.810   1.452 -0.1016 -0.1934  0.1897
   35MOL   C33837126   1.596   0.892   1.399  0.0114 -0.0962 -0.5420
   35MOL   C33937127   1.658   0.843   1.285 -0.1860 -0.0461  0.2523
   35MOL   C34037128   1.782   0.898   1.245  0.0985 -0.0871  0.0673
   35MOL   C34137129   1.831   1.014   1.304  0.1179  0.6933 -0.4268
   35MOL   C34237130   1.967   1.075   1.247  0.0460 -0.2887 -0.1861
   35MOL   C34337131   2.058   1.030   1.359  0.4734  0.6355  0.7496
   35MOL   C34437132   2.025   1.019   1.117 -0.3229  0.8795  0.0925
   35MOL   C34537133   1.950   1.227   1.228 -0.3983 -0.0035  0.1275
   35MOL   C34637134   1.848   1.273   1.146 -0.0707  0.5785 -0.5621
   35MOL   C34737135   1.830   1.417   1.139 -0.1078  0.0059 -0.2495
   35MOL   C34837136   1.904   1.506   1.212 -0.0940  0.2587 -0.3708
   35MOL   O34937137   1.869   1.640   1.208  0.7975  0.4118  0.5523
   35MOL   C35037138   2.011   1.459   1.294  0.7150 -0.0937  0.6928
   35MOL   C35137139   2.040   1.319   1.295 -0.3295 -0.4717  0.5072
   35MOL   C35237140   1.768   1.063   1.428 -0.3064 -0.8240 -0.2781
   35MOL   C35337141   1.651   0.994   1.475 -0.6371 -0.9646 -0.7354
   35MOL   C35437142   1.265   0.747   1.418 -0.3295  0.3722  0.8531
   35MOL   C35537143   1.128   0.781   1.400  0.2647  0.7087 -0.4424
   35MOL   C35637144   0.829   0.863   1.581 -0.2965 -0.1085 -0.6522
   35MOL   C35737145   0.775   0.877   1.711  0.5827  0.0065  0.7933
   35MOL   H35837146   0.758   1.219   1.730  0.2711  0.4496 -1.1235
   35MOL   H35937147   0.864   1.203   1.495 -1.6583  0.4974 -1.5995
   35MOL   H36037148   1.174   1.119   1.405 -2.4412 -0.3958  2.1739
   35MOL   H36137149   1.407   1.053   1.432 -0.8109  1.2968 -0.3003
   35MOL   H36237150   1.613   0.754   1.243  0.6275 -0.6599  0.6657
   35MOL   H36337151   1.833   0.857   1.159 -0.4577  3.3811 -2.0233
   35MOL   H36437152   2.155   1.064   1.324 -0.4095  1.5497 -0.8441
   35MOL   H36537153   2.066   0.921   1.364 -0.4819  0.5718  1.0249
   35MOL   H36637154   2.036   1.066   1.459  2.0590  1.0503  0.9706
   35MOL   H36737155   1.957   1.037   1.033 -2.1998 -0.6178  1.2529
   35MOL   H36837156   2.120   1.069   1.099  1.1679 -1.5997  0.9338
   35MOL   H36937157   2.055   0.914   1.118  1.5372  1.3808 -0.4043
   35MOL   H37037158   1.787   1.207   1.086 -2.2432  1.2106  0.9120
   35MOL   H37137159   1.755   1.462   1.076  0.4138 -0.1750 -1.0023
   35MOL   H37237160   2.073   1.520   1.359  0.8303 -0.4745  0.9371
   35MOL   H37337161   2.120   1.289   1.360 -0.7453 -0.6173  0.9535
   35MOL   H37437162   1.815   1.143   1.483 -1.6343 -0.0804 -0.2063
   35MOL   H37537163   1.598   1.034   1.560  1.6833  1.1610 -0.2500
   35MOL   H37637164   1.283   0.640   1.415  0.0585  0.4742 -0.9419
   35MOL   H37737165   1.051   0.708   1.380  0.2128  0.5525  0.3138
   35MOL   H37837166   0.858   0.764   1.549  2.5002  0.3941  0.1717
   35MOL   H37937167   0.753   0.790   1.771 -0.6211 -0.0169  0.3482
   35MOL   C38037168   1.929   1.716   1.114  0.5133 -0.2187  0.7004
   35MOL   C38137169   1.968   1.665   0.987 -0.6937  0.2467 -0.0805
   35MOL   C38237170   2.022   1.752   0.893  0.6042 -0.1068  0.4899
   35MOL   C38337171   2.050   1.883   0.928  0.0798 -0.0168  0.2655
   35MOL   S38437172   2.113   1.990   0.797  0.1872  0.4847  0.4236
   35MOL   O38537173   2.167   2.105   0.875 -0.4267 -0.2867  0.2842
   35MOL   O38637174   2.002   2.006   0.703 -0.4061  0.3132  0.0839
   35MOL   C38737175   2.249   1.901   0.715 -0.0074 -0.3667 -0.4099
   35MOL   C38837176   2.334   1.809   0.775 -0.4477 -0.4130  0.0142
   35MOL   C38937177   2.428   1.738   0.695  0.1640  0.2557  0.9852
   35MOL   C39037178   2.427   1.740   0.554 -0.0603 -0.0986  0.6074
   35MOL   O39137179   2.521   1.674   0.490  0.4572 -0.4469  0.4158
   35MOL   C39237180   2.497   1.550   0.443 -0.4393  0.4473  0.7397
   35MOL   C39337181   2.549   1.516   0.318  0.0421 -0.3958 -0.4963
   35MOL   C39437182   2.528   1.390   0.268  0.1820 -0.0719  0.0026
   35MOL   C39537183   2.449   1.292   0.333 -0.2653 -0.0761  0.1503
   35MOL   C39637184   2.423   1.150   0.274  0.3251 -0.0544  0.3422
   35MOL   C39737185   2.563   1.079   0.267 -0.0581  0.5811 -0.1064
   35MOL   C39837186   2.346   1.062   0.369  0.5946 -0.3361  0.5975
   35MOL   C39937187   2.358   1.155   0.137 -0.0793  0.7868  0.1693
   35MOL   C40037188   2.286   1.264   0.090 -0.4735 -0.0167 -0.1154
   35MOL   C40137189   2.224   1.263   8.216  0.8278 -0.2480 -0.4193
   35MOL   C40237190   2.221   1.150   8.130 -0.5872 -0.1043 -0.3601
   35MOL   O40337191   2.157   1.151   8.013 -0.2320 -0.4342 -0.1262
   35MOL   C40437192   2.290   1.038   8.180 -0.4553 -0.5276  0.3602
   35MOL   C40537193   2.354   1.040   0.056  0.4772 -0.1768  0.0055
   35MOL   C40637194   2.389   1.331   0.463  0.4857 -0.7630  0.2018
   35MOL   C40737195   2.422   1.456   0.516  0.5187  0.4555  0.4173
   35MOL   C40837196   2.344   1.840   0.496 -0.7713 -0.5036  0.1634
   35MOL   C40937197   2.258   1.925   0.574  0.0827  0.1835 -0.2612
   35MOL   C41037198   2.006   1.939   1.047  0.3906 -0.2998  0.1463
   35MOL   C41137199   1.939   1.854   1.139  0.0618  0.1174 -0.2424
   35MOL   H41237200   1.960   1.559   0.970  0.8265  0.2129 -0.6968
   35MOL   H41337201   2.045   1.712   0.796  0.2197  0.6056  0.1036
   35MOL   H41437202   2.336   1.784   0.881  3.0100  1.5331  0.4642
   35MOL   H41537203   2.501   1.680   0.749 -0.6022 -2.5365 -0.8687
   35MOL   H41637204   2.622   1.581   0.272 -0.5172 -0.3410 -1.3136
   35MOL   H41737205   2.580   1.361   0.178  1.6127 -0.6571  0.9947
   35MOL   H41837206   2.612   1.070   0.364 -0.4104 -0.1590  0.0034
   35MOL   H41937207   2.629   1.135   0.201  0.7816 -1.7882 -1.3274
   35MOL   H42037208   2.551   0.977   0.233  0.4480  0.2452  0.7162
   35MOL   H42137209   2.319   0.967   0.324  0.9219  0.0463 -0.4219
   35MOL   H42237210   2.401   1.046   0.462 -0.8808 -0.5041  1.4547
   35MOL   H42337211   2.246   1.100   0.390  0.8800  0.8128 -0.1115
   35MOL   H42437212   2.271   1.362   0.135 -1.1684 -0.7972  1.4129
   35MOL   H42537213   2.176   1.353   8.180  0.4452  0.7565  2.4591
   35MOL   H42637214   2.308   0.952   8.116  0.6231 -0.4007  0.4763
   35MOL   H42737215   2.403   0.947   0.081 -1.3409 -2.0203 -3.0175
   35MOL   H42837216   2.342   1.256   0.525 -0.4543 -1.0188 -0.7939
   35MOL   H42937217   2.394   1.475   0.618 -3.1860 -0.4705 -0.3794
   35MOL   H43037218   2.354   1.854   0.389 -0.8493 -1.5188  0.0216
   35MOL   H43137219   2.184   1.993   0.535  0.1800  0.3321 -0.1909
   35MOL   H43237220   2.018   2.041   1.081 -0.0454 -0.1356 -0.1883
   35MOL   H43337221   1.888   1.904   1.219 -0.2183 -0.5592  0.0096
   35MOL   C43437222   2.107   1.029   7.966  0.2363 -0.4222 -0.8803
   35MOL   C43537223   1.993   0.981   8.018 -0.7527 -0.1189  0.3693
   35MOL   C43637224   1.943   0.861   7.971 -0.9199  0.0256 -0.3635
   35MOL   C43737225   2.013   0.779   7.878  0.9334  0.3082  0.2500
   35MOL   S43837226   1.942   0.617   7.827  0.3749  0.0743  0.1103
   35MOL   O43937227   1.854   0.571   7.934 -0.6663  0.6388 -0.0308
   35MOL   O44037228   2.053   0.533   7.773 -0.1545  0.5694  0.3090
   35MOL   C44137229   1.838   0.660   7.694  0.6543  0.5177  1.0008
   35MOL   C44237230   1.712   0.601   7.693  0.8624  0.5140  0.4450
   35MOL   C44337231   1.637   0.599   7.571 -0.9843 -0.0674  0.5011
   35MOL   C44437232   1.682   0.662   7.453 -0.2167 -0.5065 -0.2371
   35MOL   O44537233   1.613   0.653   7.338  0.3875  0.1771 -0.0050
   35MOL   C44637234   1.572   0.531   7.295 -0.4771  0.2541  0.1721
   35MOL   C44737235   1.460   0.527   7.215  0.5670 -0.1760 -0.7498
   35MOL   C44837236   1.413   0.401   7.172  0.1124 -0.5431 -0.2498
   35MOL   C44937237   1.481   0.279   7.205  0.1386  0.0577  0.8673
   35MOL   C45037238   1.430   0.146   7.158  0.3980  0.6145  0.2885
   35MOL   C45137239   1.397   0.072   7.287  0.2226  0.0069  0.0992
   35MOL   C45237240   1.303   0.155   7.080 -0.3320  0.3846  0.0262
   35MOL   C45337241   1.536   0.067   7.077 -0.3585  0.2777  0.2943
   35MOL   C45437242   1.617   0.136   6.986  0.2374 -0.3942  0.1555
   35MOL   C45537243   1.693   0.069   6.888 -0.1573 -0.1210 -0.0381
   35MOL   C45637244   1.692   8.182   6.882 -0.1858  0.0979  0.0721
   35MOL   O45737245   1.772   8.121   6.779 -0.2998  0.0319  0.3892
   35MOL   C45837246   1.614   8.116   6.974 -0.8054  0.0557  0.0290
   35MOL   C45937247   1.533   8.177   7.071  0.3106 -0.0719  0.0301
   35MOL   C46037248   1.588   0.284   7.288  0.4797 -0.4690  0.0104
   35MOL   C46137249   1.634   0.410   7.331 -0.2382 -0.5095 -0.1191
   35MOL   C46237250   1.797   0.743   7.467  0.5002  0.1967  0.0558
   35MOL   C46337251   1.876   0.730   7.583 -0.2474 -0.2638 -0.0587
   35MOL   C46437252   2.134   0.833   7.821  0.8332 -0.0837 -0.0163
   35MOL   C46537253   2.170   0.963   7.865 -0.6090 -0.2599 -0.2067
   35MOL   H46637254   1.934   1.041   8.085 -1.1942 -0.2620  0.1141
   35MOL   H46737255   1.853   0.826   8.019 -0.1071 -0.7541  0.6167
   35MOL   H46837256   1.685   0.542   7.780 -1.2464  1.4029  0.4184
   35MOL   H46937257   1.542   0.548   7.570  0.1549 -2.2675  0.6240
   35MOL   H47037258   1.399   0.614   7.197  1.3063  0.2765 -1.0918
   35MOL   H47137259   1.316   0.397   7.123  0.9129 -1.3697 -1.7984
   35MOL   H47237260   1.330   0.136   7.344  0.4481  0.1367  0.2181
   35MOL   H47337261   1.480   0.043   7.351 -1.2334 -2.2971  1.0017
   35MOL   H47437262   1.347   8.230   7.265  0.9325 -1.1347  3.1263
   35MOL   H47537263   1.308   0.207   6.984 -3.1354  0.9424  0.1344
   35MOL   H47637264   1.271   0.052   7.062 -0.5279  0.5753 -0.7482
   35MOL   H47737265   1.223   0.202   7.137  0.1440  0.3228  0.7430
   35MOL   H47837266   1.609   0.243   6.975 -1.4320 -0.6221 -1.1399
   35MOL   H47937267   1.733   0.128   6.807  1.2084  1.0069  1.4396
   35MOL   H48037268   1.636   8.010   6.978 -0.4005  0.1216 -0.3689
   35MOL   H48137269   1.464   8.111   7.122 -1.0851  1.4170  0.1171
   35MOL   H48237270   1.644   0.202   7.330  1.1516 -0.8804 -1.6749
   35MOL   H48337271   1.718   0.416   7.400 -0.7380 -0.3006  0.4792
   35MOL   H48437272   1.822   0.792   7.374 -1.4461  0.0231 -0.5914
   35MOL   H48537273   1.972   0.779   7.586 -1.2094  1.6243  0.3818
   35MOL   H48637274   2.201   0.782   7.754  2.0033  2.2744 -0.6810
   35MOL   H48737275   2.262   1.007   7.829 -1.3187  0.1617 -1.5459
   35MOL   C48837276   1.791   7.988   6.786 -0.6994  0.4880  0.3600
   35MOL   C48937277   1.741   7.911   6.679  0.5248 -0.4665 -1.0646
   35MOL   C49037278   1.770   7.772   6.674 -0.0600 -0.6346  0.1655
   35MOL   C49137279   1.855   7.717   6.769  0.1559  0.8948  0.3611
   35MOL   S49237280   1.924   7.555   6.737 -0.1302  0.3037 -0.0034
   35MOL   O49337281   2.031   7.585   6.643 -0.0644 -0.1462  0.2360
   35MOL   O49437282   1.824   7.456   6.697  0.5578  0.3240  0.0642
   35MOL   C49537283   2.013   7.487   6.876  0.6932  0.1181  0.3310
   35MOL   C49637284   2.118   7.565   6.925 -0.1244 -0.1052 -0.7576
   35MOL   C49737285   2.192   7.517   7.039  0.1038  0.1315  0.4328
   35MOL   C49837286   2.157   7.392   7.095  0.2239  0.2570  0.0074
   35MOL   O49937287   2.229   7.339   7.201 -0.3085 -0.2382  0.2712
   35MOL   C50037288   2.360   7.373   7.209 -0.7388  0.5695 -0.1823
   35MOL   C50137289   2.452   7.331   7.109  0.5275 -0.7455  0.4963
   35MOL   C50237290   2.586   7.377   7.127 -0.0335 -0.8438 -0.1917
   35MOL   C50337291   2.630   7.440   7.244  0.1198 -0.3293  0.9998
   35MOL   C50437292   2.772   7.493   7.270 -0.3338 -0.1344 -0.1900
   35MOL   C50537293   2.867   7.479   7.148  0.0116 -0.2246 -0.4190
   35MOL   C50637294   2.771   7.651   7.313 -0.7242  0.5881 -0.3805
   35MOL   C50737295   2.833   7.421   7.388  0.8227 -0.1711  0.4959
   35MOL   C50837296   2.849   7.279   7.372  0.1772  0.3921 -0.3376
   35MOL   C50937297   2.909   7.205   7.475 -0.0234  0.5754 -0.5065
   35MOL   C51037298   2.961   7.265   7.588  0.9898  0.2443  0.3944
   35MOL   O51137299   3.013   7.182   7.686 -0.3575 -0.3744 -0.2785
   35MOL   C51237300   2.951   7.406   7.601 -0.3968  0.0448  0.1368
   35MOL   C51337301   2.890   7.482   7.496  1.2238  0.3669 -0.2036
   35MOL   C51437302   2.536   7.468   7.349 -0.0687  0.3249  0.7526
   35MOL   C51537303   2.404   7.439   7.329  0.2938 -0.1156  0.4847
   35MOL   C51637304   2.047   7.317   7.045  0.0958  0.7338  0.3692
   35MOL   C51737305   1.984   7.358   6.924 -0.0078  0.6930  0.5492
   35MOL   C51837306   1.895   7.791   6.887 -0.6878 -0.1214  0.2775
   35MOL   C51937307   1.866   7.928   6.887  0.8160 -0.5120  0.0200
   35MOL   H52037308   1.695   7.958   6.592 -0.1239  0.6554 -0.1356
   35MOL   H52137309   1.746   7.717   6.585  0.9136 -0.5044 -0.1786
   35MOL   H52237310   2.143   7.656   6.873  1.0053 -1.2157 -2.2000
   35MOL   H52337311   2.272   7.579   7.074 -0.1090  1.5989 -1.5630
   35MOL   H52437312   2.425   7.273   7.022  1.7910 -3.1600  1.6608
   35MOL   H52537313   2.654   7.354   7.047  0.1533  0.3753 -0.3964
   35MOL   H52637314   2.841   7.543   7.063  1.9718  0.7307 -0.3146
   35MOL   H52737315   2.884   7.386   7.094 -0.9694 -0.2880 -0.6253
   35MOL   H52837316   2.960   7.517   7.190 -0.0227 -2.2759  1.6259
   35MOL   H52937317   2.725   7.712   7.235  1.8896 -0.6393 -2.9889
   35MOL   H53037318   2.727   7.680   7.408 -1.0061 -0.4392 -0.1884
   35MOL   H53137319   2.876   7.681   7.315 -0.2265 -0.8957 -2.3741
   35MOL   H53237320   2.808   7.218   7.292  1.0387 -1.2115  0.4258
   35MOL   H53337321   2.915   7.098   7.461  0.3990  0.4602  0.5249
   35MOL   H53437322   2.991   7.462   7.684 -0.0846 -1.8925  1.3431
   35MOL   H53537323   2.883   7.588   7.513 -1.9614  0.1576 -0.0038
   35MOL   H53637324   2.568   7.516   7.440 -1.6397  3.0922 -0.1115
   35MOL   H53737325   2.327   7.456   7.404  1.1003 -1.7355  1.7003
   35MOL   H53837326   2.017   7.224   7.093  2.8133  0.0596  0.9006
   35MOL   H53937327   1.902   7.300   6.884  0.9618 -0.5410  0.3133
   35MOL   H54037328   1.959   7.752   6.965 -0.3063 -0.1087 -0.0276
   35MOL   H54137329   1.902   7.990   6.968  2.1709  0.1460 -1.0443
   35MOL   C54237330   2.915   7.118   7.764  0.0957 -0.6559 -0.3980
   35MOL   C54337331   2.884   6.983   7.735 -0.3964  0.3679 -0.4436
   35MOL   C54437332   2.795   6.911   7.822 -0.3810 -0.7878  0.2662
   35MOL   C54537333   2.731   6.984   7.926  0.7777 -0.4252  0.2698
   35MOL   S54637334   2.616   6.904   8.051  0.0254  0.3206  0.0153
   35MOL   O54737335   2.493   6.990   8.063 -0.1441 -0.6867  0.1216
   35MOL   O54837336   2.694   6.862   8.171  0.0579  0.5146  0.7170
   35MOL   C54937337   2.557   6.751   7.970  0.2884  0.1457 -0.3028
   35MOL   C55037338   2.470   6.773   7.862 -0.1229  0.4681 -0.1036
   35MOL   C55137339   2.433   6.662   7.787  0.2225  0.1482  0.0981
   35MOL   C55237340   2.479   6.529   7.822  0.2274  0.1631  0.0615
   35MOL   O55337341   2.441   6.419   7.757 -0.3727 -0.1914 -0.4405
   35MOL   C55437342   2.467   6.417   7.623 -0.3124 -0.2326 -0.3382
   35MOL   C55537343   2.375   6.352   7.548  0.2674 -0.6868  0.1402
   35MOL   C55637344   2.395   6.338   7.407 -0.4222 -0.0948  0.2935
   35MOL   C55737345   2.513   6.385   7.337 -0.1449  0.3056 -0.6024
   35MOL   C55837346   2.520   6.394   7.188  0.0753 -0.3979  0.0378
   35MOL   C55937347   2.664   6.350   7.147  0.7064  0.4045 -0.3412
   35MOL   C56037348   2.413   6.308   7.115 -0.0845  0.7744 -0.2210
   35MOL   C56137349   2.493   6.536   7.142  0.2400 -0.1229 -0.3279
   35MOL   C56237350   2.552   6.602   7.030 -0.5441 -0.0478  0.3897
   35MOL   C56337351   2.509   6.729   6.989  0.2802 -0.2338 -0.6728
   35MOL   C56437352   2.419   6.804   7.067  0.0714  0.1626 -0.1069
   35MOL   O56537353   2.382   6.929   7.030  0.3148  0.1436  0.2644
   35MOL   C56637354   2.372   6.744   7.185 -0.2565 -0.7593 -0.3339
   35MOL   C56737355   2.409   6.615   7.223  0.2795 -0.2476 -0.2307
   35MOL   C56837356   2.607   6.454   7.420 -0.1802  0.0901  0.1170
   35MOL   C56937357   2.586   6.465   7.561  0.1214 -0.4046  0.4224
   35MOL   C57037358   2.555   6.508   7.937  0.3513  0.6929 -0.4811
   35MOL   C57137359   2.600   6.625   8.009 -0.1661  0.8743  0.6980
   35MOL   C57237360   2.752   7.119   7.945 -0.1852  0.0805  0.0833
   35MOL   C57337361   2.838   7.190   7.861  0.7267 -0.1446  0.1488
   35MOL   H57437362   2.940   6.935   7.655  1.4707  2.1250 -0.2367
   35MOL   H57537363   2.764   6.808   7.819 -1.1321 -0.5694  0.2312
   35MOL   H57637364   2.439   6.870   7.827  1.3378  1.4925  1.3676
   35MOL   H57737365   2.376   6.664   7.695 -2.0785 -0.0512  1.5062
   35MOL   H57837366   2.290   6.303   7.594  0.7616 -0.4008  1.3768
   35MOL   H57937367   2.324   6.275   7.355 -0.1518 -2.0352  2.2051
   35MOL   H58037368   2.740   6.416   7.190 -0.3131  2.5290 -1.7028
   35MOL   H58137369   2.683   6.331   7.041  0.9131 -2.7098  0.1975
   35MOL   H58237370   2.684   6.251   7.188 -1.2153 -1.5006 -3.7958
   35MOL   H58337371   2.426   6.202   7.132  0.2710  0.9389  0.5554
   35MOL   H58437372   2.315   6.342   7.149 -0.3364  0.1697 -0.3492
   35MOL   H58537373   2.414   6.324   7.007 -0.5937 -2.0973 -0.6860
   35MOL   H58637374   2.620   6.547   6.966  0.4327 -0.2867  1.6216
   35MOL   H58737375   2.550   6.773   6.899 -0.0225  3.1830  0.7930
   35MOL   H58837376   2.321   6.807   7.256  1.8976  1.4310 -0.6677
   35MOL   H58937377   2.375   6.581   7.319 -1.0379  1.0461 -0.2219
   35MOL   H59037378   2.697   6.497   7.379 -0.3850  2.2686  1.8578
   35MOL   H59137379   2.661   6.506   7.628 -0.6916 -1.2539  1.8696
   35MOL   H59237380   2.573   6.407   7.971 -0.3459  1.1279  1.2276
   35MOL   H59337381   2.676   6.612   8.084 -0.3672 -0.4625  0.6781
   35MOL   H59437382   2.711   7.164   8.035 -0.7890 -0.5188  0.1151
   35MOL   H59537383   2.861   7.293   7.883 -1.2408  0.9200 -2.4088
   35MOL   C59637384   2.277   6.948   6.947  0.0863 -0.2643  0.4467
   35MOL   C59737385   2.304   6.921   6.810  0.7041 -0.2252  0.1698
   35MOL   C59837386   2.197   6.939   6.722 -0.4499  0.4667  0.0849
   35MOL   C59937387   2.067   6.966   6.775 -0.6280  0.3622 -0.2856
   35MOL   S60037388   1.925   6.966   6.671 -0.2448  0.1392  0.4865
   35MOL   O60137389   1.831   7.055   6.737  0.0063 -0.0834 -0.4970
   35MOL   O60237390   1.896   6.828   6.637  0.6932  0.4626 -0.1664
   35MOL   C60337391   1.983   7.046   6.517 -0.8786  0.2317 -0.1875
   35MOL   C60437392   1.998   7.188   6.511  0.2743  0.1067 -0.4535
   35MOL   C60537393   2.049   7.239   6.389  0.2658  0.4847  0.3508
   35MOL   C60637394   2.087   7.156   6.278  0.1973 -0.1888 -0.1072
   35MOL   O60737395   2.117   7.208   6.153  0.3521 -0.1793 -0.0889
   35MOL   C60837396   2.010   7.241   6.069  0.5671  0.0364 -0.0060
   35MOL   C60937397   2.031   7.343   5.977  0.2934  0.1458  0.9627
   35MOL   C61037398   1.917   7.390   5.900  0.3447 -0.1856 -0.4157
   35MOL   C61137399   1.786   7.342   5.913 -0.0678  0.4232 -0.2815
   35MOL   C61237400   1.677   7.379   5.821 -0.5808 -0.2483  0.6233
   35MOL   C61337401   1.710   7.506   5.737  0.1795  0.8925  0.2468
   35MOL   C61437402   1.675   7.267   5.714  0.2744  0.5231 -0.1274
   35MOL   C61537403   1.547   7.410   5.902 -0.6470  0.1447  0.1360
   35MOL   C61637404   1.557   7.495   6.014  0.2798  0.0567  0.1125
   35MOL   C61737405   1.448   7.517   6.098  0.2621  0.8476  0.2708
   35MOL   C61837406   1.322   7.454   6.072 -0.5354 -0.0830  0.0724
   35MOL   O61937407   1.211   7.484   6.143 -0.2764 -0.4148 -0.3937
   35MOL   C62037408   1.312   7.366   5.963 -0.7594  0.7526  0.4329
   35MOL   C62137409   1.419   7.352   5.874 -0.5724  0.1387  0.2407
   35MOL   C62237410   1.770   7.240   6.011  0.1622  0.0919  0.3242
   35MOL   C62337411   1.883   7.186   6.084 -0.5565  0.0505 -0.2707
   35MOL   C62437412   2.086   7.018   6.296 -0.6614  0.1324 -0.7702
   35MOL   C62537413   2.026   6.964   6.412  0.3839 -0.1401 -0.1578
   35MOL   C62637414   2.044   6.991   6.911  0.3242  0.7100 -0.4312
   35MOL   C62737415   2.151   6.987   6.998 -1.2414  0.3054  0.2158
   35MOL   H62837416   2.401   6.892   6.772  0.1623 -1.1647 -0.4989
   35MOL   H62937417   2.213   6.929   6.616  0.8783  1.9701  0.1289
   35MOL   H63037418   1.951   7.251   6.586 -2.5107 -2.1273 -0.2423
   35MOL   H63137419   2.042   7.346   6.380  0.3706  0.7062  2.6085
   35MOL   H63237420   2.120   7.398   5.955 -0.7694  1.8240  0.7915
   35MOL   H63337421   1.948   7.465   5.828  0.6945  1.4371  1.3871
   35MOL   H63437422   1.618   7.543   5.692 -0.1208 -2.0672 -1.6735
   35MOL   H63537423   1.781   7.482   5.658  0.4011  0.0980  0.6805
   35MOL   H63637424   1.752   7.585   5.799  0.8529 -0.6131  1.7193
   35MOL   H63737425   1.617   7.283   5.623 -1.0065  0.4247  0.6428
   35MOL   H63837426   1.772   7.258   5.667 -0.1601 -1.2452 -0.7442
   35MOL   H63937427   1.629   7.179   5.761  0.0689  1.8826  2.3155
   35MOL   H64037428   1.653   7.537   6.039 -0.3952  2.1418 -0.7340
   35MOL   H64137429   1.471   7.579   6.183 -2.1880  0.5878  1.1512
   35MOL   H64237430   1.215   7.329   5.930 -0.5864  1.2707 -0.6728
   35MOL   H64337431   1.408   7.290   5.787 -2.4498 -2.0824  1.9664
   35MOL   H64437432   1.673   7.193   6.013  0.0079  0.4740  2.1911
   35MOL   H64537433   1.864   7.111   6.159  3.3615  0.6362  1.4030
   35MOL   H64637434   2.107   6.956   6.211 -0.9653 -1.6951  0.4690
   35MOL   H64737435   2.020   6.857   6.425 -3.5250  0.3074  2.7520
   35MOL   H64837436   1.942   7.022   6.932  0.0207  0.8014 -1.9658
   35MOL   H64937437   2.143   7.014   7.102  2.1341 -1.1347  0.9312
   35MOL   C65037438   1.215   7.594   6.220 -0.6165  0.3014  0.3779
   35MOL   C65137439   1.276   7.579   6.343  0.1538 -0.6960 -0.8180
   35MOL   C65237440   1.300   7.698   6.415 -0.7684 -0.3757  0.4243
   35MOL   C65337441   1.263   7.824   6.359  0.0010  0.1390  0.6257
   35MOL   S65437442   1.297   7.970   6.459  0.3453 -0.6350  0.1273
   35MOL   O65537443   1.267   8.098   6.385  0.4498  0.1348  0.2716
   35MOL   O65637444   1.438   7.946   6.510 -0.0000 -0.7019  0.4634
   35MOL   C65737445   1.179   7.954   6.593  1.4212  0.0098 -0.4514
   35MOL   C65837446   1.048   8.005   6.576  0.0232 -0.5867 -0.1555
   35MOL   C65937447   0.960   7.994   6.676  0.0223  0.0861 -0.3629
   35MOL   C66037448   0.991   7.940   6.799  0.6840 -0.3399  0.2741
   35MOL   O66137449   0.894   7.938   6.899 -0.3403  0.3523  0.1023
   35MOL   C66237450   0.901   8.016   7.012 -0.2681  0.7469 -0.4745
   35MOL   C66337451   0.918   7.958   7.138  0.0740 -0.9291 -0.0981
   35MOL   C66437452   0.912   8.032   7.256  0.7975 -0.5262  0.3040
   35MOL   C66537453   0.889   8.166   7.253 -0.1071 -0.2481 -0.1783
   35MOL   C66637454   0.874   8.246   7.383  0.3252 -0.2446 -0.2149
   35MOL   C66737455   1.016   0.005   7.434  1.1402 -0.0658  0.9936
   35MOL   C66837456   0.812   0.131   7.370  0.3752 -0.1299 -0.4289
   35MOL   C66937457   0.778   8.179   7.487 -1.0255  0.6671  1.1557
   35MOL   C67037458   0.814   8.155   7.624  0.2396 -1.1380  0.3584
   35MOL   C67137459   0.717   8.105   7.713  0.0703 -0.2019  0.4510
   35MOL   C67237460   0.587   8.061   7.673  0.0078 -0.6262  0.9082
   35MOL   O67337461   0.494   8.014   7.764  0.3747 -0.2364  0.4572
   35MOL   C67437462   0.555   8.075   7.539 -0.0602 -0.0211  0.5096
   35MOL   C67537463   0.647   8.133   7.445 -0.3968  0.6570 -0.1115
   35MOL   C67637464   0.875   8.230   7.127  0.3897  0.0668 -0.2961
   35MOL   C67737465   0.885   8.156   7.010  0.4662  0.5279  0.3491
   35MOL   C67837466   1.114   7.886   6.814 -0.7629  0.8077  0.4209
   35MOL   C67937467   1.213   7.888   6.713 -0.5995  0.2547 -0.1959
   35MOL   C68037468   1.187   7.835   6.246 -0.1725  0.5015 -0.1873
   35MOL   C68137469   1.163   7.715   6.176 -0.6980 -0.0306  0.3880
   35MOL   H68237470   1.329   7.493   6.381 -0.2920 -0.9384 -0.7407
   35MOL   H68337471   1.344   7.693   6.513  0.9534  2.4976 -0.1467
   35MOL   H68437472   1.017   8.039   6.479 -0.4417  0.7471  0.4598
   35MOL   H68537473   0.862   8.033   6.652 -0.2776  1.7173  3.2166
   35MOL   H68637474   0.933   7.852   7.151 -0.6915 -0.9418  0.7209
   35MOL   H68737475   0.922   7.982   7.351  1.9700  0.8958  0.9424
   35MOL   H68837476   1.060   8.163   7.462 -0.9664 -0.7623  1.9983
   35MOL   H68937477   1.030   0.071   7.519  5.6624 -1.1328  1.2153
   35MOL   H69037478   1.081   0.045   7.356  0.8388  2.7914  2.1363
   35MOL   H69137479   0.721   0.120   7.311  1.0150 -1.1775 -1.2477
   35MOL   H69237480   0.792   0.190   7.459  1.1226 -3.7945  2.2624
   35MOL   H69337481   0.882   0.197   7.319 -1.2591  3.0701  1.3223
   35MOL   H69437482   0.910   8.189   7.659  0.9309 -0.1630 -2.3253
   35MOL   H69537483   0.742   8.104   7.818 -1.2715  0.2889  0.7857
   35MOL   H69637484   0.460   8.040   7.503 -0.0313  1.3167 -0.9539
   35MOL   H69737485   0.605   8.158   7.349  0.3501  1.0028 -0.3564
   35MOL   H69837486   0.840   0.077   7.112 -0.2412 -0.0300  0.5014
   35MOL   H69937487   0.875   8.202   6.912  0.7133  0.4166  0.2704
   35MOL   H70037488   1.149   7.834   6.902  0.4555 -1.2436 -1.2238
   35MOL   H70137489   1.310   7.842   6.720 -1.1811 -0.8623  0.8448
   35MOL   H70237490   1.154   7.932   6.211 -1.0702 -0.3227 -1.6789
   35MOL   H70337491   1.109   7.721   6.083  0.7563  0.1506 -0.4551
   35MOL   C70437492   0.534   7.910   7.840  0.4616 -0.2388  0.1392
   35MOL   C70537493   0.557   7.781   7.785 -0.0404 -0.2329 -0.0041
   35MOL   C70637494   0.568   7.670   7.871  0.0304 -0.1862 -0.2344
   35MOL   C70737495   0.578   7.689   8.014 -0.2219 -0.3253 -0.4537
   35MOL   S70837496   0.599   7.540   8.113 -0.3769 -0.0937 -0.2320
   35MOL   O70937497   0.680   7.443   8.035  0.0433  0.0032 -0.4372
   35MOL   O71037498   0.461   7.500   8.145 -0.3340 -0.1952  0.0528
   35MOL   C71137499   0.681   7.585   0.017  0.1250  0.1379  0.7785
   35MOL   C71237500   0.611   7.585   0.146 -0.5424  0.1876  0.2916
   35MOL   C71337501   0.679   7.621   0.267  0.6307  0.8834 -0.2729
   35MOL   C71437502   0.815   7.654   0.257 -0.3266  0.0533  0.2773
   35MOL   O71537503   0.881   7.686   0.374  0.0798 -0.3148  0.5034
   35MOL   C71637504   0.969   7.786   0.373  0.1278  0.0543  0.0766
   35MOL   C71737505   0.919   7.908   0.407  0.1636 -0.7098 -0.4286
   35MOL   C71837506   1.003   8.024   0.429 -0.4573 -0.4629 -0.2164
   35MOL   C71937507   1.145   8.003   0.416  0.5036  0.6879  0.7853
   35MOL   C72037508   1.247   8.121   0.420 -0.4003  0.0582 -0.0363
   35MOL   C72137509   1.176   0.006   0.454 -0.6578  0.3623  0.0752
   35MOL   C72237510   1.352   8.104   0.532 -0.4369  0.4605 -0.3188
   35MOL   C72337511   1.314   8.148   0.279  0.2638 -0.5037 -0.1076
   35MOL   C72437512   1.231   8.169   0.166  0.2842 -0.6126 -0.5089
   35MOL   C72537513   1.283   8.190   0.036 -0.9733 -0.2178 -0.2822
   35MOL   C72637514   1.423   8.179   0.018  0.5173  0.1767 -0.0259
   35MOL   O72737515   1.483   8.204   8.149  0.0551 -0.2460  0.1758
   35MOL   C72837516   1.505   8.166   0.128 -0.1998 -0.5182  0.1272
   35MOL   C72937517   1.454   8.156   0.258 -0.0580 -0.3853  0.6600
   35MOL   C73037518   1.199   7.876   0.385  0.5828  0.0469  0.7283
   35MOL   C73137519   1.109   7.768   0.366 -0.4138  0.3235  0.1660
   35MOL   C73237520   0.881   7.651   0.134  0.0428  0.3709 -0.8041
   35MOL   C73337521   0.816   7.618   0.015 -0.1261  0.8196 -0.1977
   35MOL   C73437522   0.574   7.819   8.069 -0.7498 -0.0793  0.0881
   35MOL   C73537523   0.547   7.928   7.980 -0.1608  0.6711  0.0585
   35MOL   H73637524   0.550   7.756   7.680  0.8634 -0.5012 -0.0056
   35MOL   H73737525   0.576   7.573   7.824 -0.0606 -0.3638  0.1210
   35MOL   H73837526   0.507   7.558   0.148 -0.7871  0.9321 -1.9158
   35MOL   H73937527   0.634   7.642   0.363 -0.0221  0.8627 -0.5727
   35MOL   H74037528   0.812   7.915   0.417  0.2897  0.2263  0.3045
   35MOL   H74137529   0.966   8.124   0.442  1.4713  0.4440 -1.3535
   35MOL   H74237530   1.133   0.001   0.554 -1.3555  0.6095 -0.2161
   35MOL   H74337531   1.105   0.023   0.374 -1.3394  0.5911  0.7267
   35MOL   H74437532   1.247   0.089   0.447 -0.6518  0.6195  2.5232
   35MOL   H74537533   1.403   8.010   0.510 -0.2132  0.1837  1.2885
   35MOL   H74637534   1.429   8.181   0.530 -0.9253  0.9972  0.8637
   35MOL   H74737535   1.306   8.097   0.630 -1.6349  0.8064 -0.8529
   35MOL   H74837536   1.123   8.162   0.170  0.2242 -1.9171 -3.0715
   35MOL   H74937537   1.220   8.216   8.205 -0.2748  0.6270 -0.5511
   35MOL   H75037538   1.611   8.163   0.107  0.3047  1.1024  2.3042
   35MOL   H75137539   1.521   8.155   0.343  2.9281 -0.4911 -1.6234
   35MOL   H75237540   1.305   7.859   0.375  0.6375  0.6960  0.2096
   35MOL   H75337541   1.135   7.664   0.359 -3.9343 -0.5849 -0.6287
   35MOL   H75437542   0.985   7.681   0.126 -0.0036  0.8426  0.3205
   35MOL   H75537543   0.873   7.599   8.179  1.4935  0.8096  0.8055
   35MOL   H75637544   0.583   7.836   8.175  0.2047  0.7956 -0.1221
   35MOL   H75737545   0.528   8.025   8.024 -1.9853  0.6928 -0.7679
   35MOL   C75837546   1.430   0.033   8.055 -0.2121 -0.5847  0.2824
   35MOL   C75937547   1.338   8.233   7.961 -0.1418 -0.0999 -0.1942
   35MOL   C76037548   1.299   0.056   7.850 -0.4186  0.4140 -0.1290
   35MOL   C76137549   1.348   0.185   7.832 -0.1150 -0.1675  0.6295
   35MOL   S76237550   1.295   0.272   7.679  0.2418  0.3258 -0.3591
   35MOL   O76337551   1.323   0.171   7.575  0.3736 -0.1352  0.0174
   35MOL   O76437552   1.357   0.402   7.659 -0.0264 -0.5302 -0.0069
   35MOL   C76537553   1.113   0.294   7.684  0.5172 -0.2884  1.0154
   35MOL   C76637554   1.029   0.230   7.779 -0.2723 -0.6832  0.0066
   35MOL   C76737555   0.884   0.246   7.770 -0.4853  0.3534  0.6834
   35MOL   C76837556   0.830   0.333   7.673  0.9054 -0.2435  0.0424
   35MOL   O76937557   0.695   0.367   7.669 -0.0084  0.6345  0.1065
   35MOL   C77037558   0.625   0.385   7.785  0.0403  0.3180  0.8740
   35MOL   C77137559   0.532   0.284   7.828  1.2683 -0.1674  0.0472
   35MOL   C77237560   0.452   0.292   7.944  0.2383 -0.4453  0.6163
   35MOL   C77337561   0.475   0.398   8.028  0.4327  0.2453  0.4505
   35MOL   C77437562   0.397   0.399   8.162  0.0126 -0.4705 -0.1222
   35MOL   C77537563   0.248   0.399   8.120  0.4131  0.0839 -0.2022
   35MOL   C77637564   0.424   0.274   8.241  0.4880  0.0888 -0.0223
   35MOL   C77737565   0.412   0.532   8.251  0.2719  0.4534 -0.7305
   35MOL   C77837566   0.375   0.656   8.189 -0.4003 -0.2128  0.2568
   35MOL   C77937567   0.376   0.780   0.004 -0.1688  0.1187  0.1595
   35MOL   C78037568   0.422   0.782   0.133 -0.4611 -0.0240 -0.6167
   35MOL   O78137569   0.428   0.899   0.211  0.1292  0.0311  0.0505
   35MOL   C78237570   0.438   0.655   0.203  0.3202 -0.3508  0.2283
   35MOL   C78337571   0.438   0.533   0.135 -0.5862 -0.0241  0.3641
   35MOL   C78437572   0.572   0.493   7.993 -0.2317  0.1242 -0.1141
   35MOL   C78537573   0.645   0.492   7.873  0.0206  0.0789 -0.1536
   35MOL   C78637574   0.913   0.401   7.578 -0.3449 -0.1399 -0.6014
   35MOL   C78737575   1.054   0.373   7.580  0.6545 -0.3707  0.1105
   35MOL   C78837576   1.430   0.246   7.931 -0.5981  0.3188  0.3278
   35MOL   C78937577   1.474   0.166   8.037  0.4831 -0.3997 -0.6209
   35MOL   H79037578   1.312   8.129   7.968  0.1077 -0.0544  1.8578
   35MOL   H79137579   1.233   0.005   7.781 -0.1393  1.5266 -1.2391
   35MOL   H79237580   1.070   0.178   7.864  3.0811 -2.7922 -2.7734
   35MOL   H79337581   0.823   0.207   7.850 -2.9547  0.4434 -1.0863
   35MOL   H79437582   0.526   0.196   7.766 -1.6043 -0.6645  0.9675
   35MOL   H79537583   0.387   0.208   7.961  0.1415 -0.9132 -1.9717
   35MOL   H79637584   0.218   0.303   8.078 -1.6673 -0.8413  3.1422
   35MOL   H79737585   0.227   0.477   8.046  1.6851 -0.3341 -1.0232
   35MOL   H79837586   0.177   0.411   8.202  0.0552 -3.2068  0.0145
   35MOL   H79937587   0.398   0.185   8.183  0.7958  1.5475 -2.4550
   35MOL   H80037588   0.530   0.267   0.010  0.8283  0.8000 -1.3968
   35MOL   H80137589   0.368   0.273   0.082  0.4111 -2.0311 -0.0715
   35MOL   H80237590   0.338   0.665   8.088 -1.1565  0.6148  0.5956
   35MOL   H80337591   0.343   0.870   8.207  0.8699  0.2967 -0.2179
   35MOL   H80437592   0.471   0.665   0.305 -0.0053 -1.2581  0.4202
   35MOL   H80537593   0.453   0.440   0.187 -2.4068 -2.0401 -2.5834
   35MOL   H80637594   0.596   0.572   8.062  0.9842 -0.6551  0.3783
   35MOL   H80737595   0.724   0.563   7.853 -1.1720  1.1420 -1.1254
   35MOL   H80837596   0.859   0.456   7.502 -0.6513 -0.1524 -0.3944
   35MOL   H80937597   1.125   0.417   7.512 -0.7646  1.8886  0.0080
   35MOL   H81037598   1.486   0.336   7.912  0.7919 -0.2531  1.5520
   35MOL   H81137599   1.545   0.210   8.105 -1.4252  0.2908  0.9576
   35MOL   C81237600   0.532   0.984   0.201  0.9049 -1.5612 -0.0855
   35MOL   C81337601   0.503   1.116   0.161 -0.4673  0.6243  0.7058
   35MOL   C81437602   0.605   1.215   0.172 -0.1453 -0.4603 -0.9483
   35MOL   C81537603   0.739   1.182   0.208  0.0403 -0.1309 -0.0273
   35MOL   S81637604   0.861   1.314   0.208  0.1379  0.1168  0.0508
   35MOL   O81737605   0.951   1.300   0.320  0.2822 -0.3677 -0.6565
   35MOL   O81837606   0.800   1.443   0.175  0.1941  0.5566  0.0833
   35MOL   C81937607   0.969   1.280   0.074 -0.3632  0.4447 -0.4849
   35MOL   C82037608   0.948   1.175   8.232  0.3213  0.1659  0.0827
   35MOL   C82137609   1.037   1.154   8.126  0.5883  0.4233  0.2577
   35MOL   C82237610   1.161   1.226   8.119  0.3304  0.0279  0.0082
   35MOL   O82337611   1.266   1.191   8.034  0.0341 -0.5136  0.4488
   35MOL   C82437612   1.249   1.210   7.900 -0.6872 -0.4567 -0.4262
   35MOL   C82537613   1.223   1.105   7.810 -0.6499  0.3963  0.3964
   35MOL   C82637614   1.215   1.122   7.674  0.2620  0.3511  0.7952
   35MOL   C82737615   1.221   1.253   7.620 -0.4633 -0.0146 -0.8808
   35MOL   C82837616   1.206   1.269   7.467  0.3177  1.0985 -0.2973
   35MOL   C82937617   1.056   1.276   7.440 -0.1593  0.0222  0.7844
   35MOL   C83037618   1.261   1.402   7.415  0.3896  0.0208 -0.3957
   35MOL   C83137619   1.290   1.158   7.390 -0.2952 -0.0278  0.4118
   35MOL   C83237620   1.425   1.127   7.429 -0.2578  0.2469 -0.0179
   35MOL   C83337621   1.497   1.020   7.363 -0.2703  0.6678 -0.6293
   35MOL   C83437622   1.449   0.953   7.254 -0.4765 -0.4344 -0.3409
   35MOL   O83537623   1.529   0.858   7.187 -0.4737 -0.6062 -0.4026
   35MOL   C83637624   1.321   0.989   7.210  0.4223  0.7916  0.2729
   35MOL   C83737625   1.240   1.087   7.281  0.4672 -0.7878  0.1427
   35MOL   C83837626   1.233   1.362   7.708 -0.2000  0.1177  0.0387
   35MOL   C83937627   1.245   1.344   7.850  0.0274  0.0818  0.4703
   35MOL   C84037628   1.184   1.324   8.211  0.1711  0.3290 -0.1441
   35MOL   C84137629   1.089   1.352   0.069 -0.2370  0.5991 -0.1789
   35MOL   C84237630   0.763   1.048   0.245 -0.0614 -0.3616 -0.7924
   35MOL   C84337631   0.664   0.952   0.236  0.1280  0.0902  0.1221
   35MOL   H84437632   0.401   1.145   0.137 -0.2752  0.2769 -0.5627
   35MOL   H84537633   0.576   1.316   0.148 -0.8845 -0.0532  1.4745
   35MOL   H84637634   0.864   1.108   8.242 -1.7315  2.3998 -1.4534
   35MOL   H84737635   1.025   1.067   8.063  0.8065  1.5860 -1.4013
   35MOL   H84837636   1.223   1.002   7.841 -1.3234 -0.9409 -3.6891
   35MOL   H84937637   1.213   1.033   7.613 -0.2330  0.7060  0.2855
   35MOL   H85037638   1.047   1.298   7.333 -0.3271 -0.5631  0.6751
   35MOL   H85137639   1.011   1.358   7.496 -0.5819  0.6202 -0.4090
   35MOL   H85237640   0.999   1.183   7.440 -2.7364  1.5263  1.8583
   35MOL   H85337641   1.199   1.484   7.451  0.0649  0.2222 -1.3758
   35MOL   H85437642   1.363   1.424   7.445 -0.3003  1.3061  1.0818
   35MOL   H85537643   1.245   1.413   7.307 -1.3567 -2.2998 -0.4085
   35MOL   H85637644   1.466   1.176   7.516 -1.8253 -1.3204  1.6358
   35MOL   H85737645   1.591   0.990   7.405  0.0428  1.8205 -0.4898
   35MOL   H85837646   1.276   0.949   7.120  1.7724  1.2541 -0.6180
   35MOL   H85937647   1.139   1.097   7.244  0.4508  1.8883  0.7983
   35MOL   H86037648   1.256   1.462   7.673 -0.8117 -0.1126 -1.0256
   35MOL   H86137649   1.264   1.434   7.908  1.4165  1.4029 -1.9390
   35MOL   H86237650   1.275   1.380   8.196 -1.3788  2.6756 -1.1040
   35MOL   H86337651   1.099   1.434   0.138  1.9495  0.0709  0.1688
   35MOL   H86437652   0.865   1.026   0.276  0.1274 -0.0939 -1.2256
   35MOL   H86537653   0.681   0.852   0.274 -0.0395  0.3175  0.8118
   35MOL   C86637654   1.556   0.890   7.060  0.3135  0.3582  0.3490
   35MOL   C86737655   1.501   0.801   6.968  0.8218 -0.3375 -0.0809
   35MOL   C86837656   1.529   0.822   6.835  0.4186 -0.0907  0.1529
   35MOL   C86937657   1.618   0.918   6.787 -0.0215 -0.3361  0.2798
   35MOL   S87037658   1.646   0.935   6.619 -0.2010 -0.0097 -0.0488
   35MOL   O87137659   1.601   0.816   6.546 -0.0447  0.3961 -0.2710
   35MOL   O87237660   1.781   0.986   6.587  0.5018  1.1324  0.1299
   35MOL   C87337661   1.537   1.063   6.565  0.4564  0.0963 -0.2959
   35MOL   C87437662   1.406   1.074   6.613  0.1669  0.2684 -0.1426
   35MOL   C87537663   1.323   1.179   6.570  0.3716  0.1080  0.7131
   35MOL   C87637664   1.376   1.275   6.481  0.2990  0.3623  0.4163
   35MOL   O87737665   1.303   1.386   6.443 -0.1373 -0.0018  0.1337
   35MOL   C87837666   1.178   1.356   6.396  0.5789  0.0134 -0.8117
   35MOL   C87937667   1.061   1.359   6.474 -0.4037 -0.3519 -0.1863
   35MOL   C88037668   0.940   1.318   6.417  0.5522  0.1557  0.1744
   35MOL   C88137669   0.935   1.261   6.288  0.0139 -0.5260  0.0177
   35MOL   C88237670   0.826   1.160   6.240 -0.8641 -0.6010  0.7230
   35MOL   C88337671   0.705   1.162   6.335  0.2586 -0.2854  0.4173
   35MOL   C88437672   0.777   1.193   6.097  0.3802  0.1268 -0.1315
   35MOL   C88537673   0.879   1.018   6.253  0.4842  0.2347  0.3534
   35MOL   C88637674   0.978   0.983   6.345  0.3246 -0.9157 -0.8607
   35MOL   C88737675   1.038   0.851   6.354  0.9322 -0.4695 -0.0913
   35MOL   C88837676   0.985   0.748   6.273  0.3038  0.4625 -0.5206
   35MOL   O88937677   1.035   0.625   6.270 -0.6253  0.0505  0.7530
   35MOL   C89037678   0.884   0.778   6.181 -0.0196  0.1384 -0.3229
   35MOL   C89137679   0.831   0.908   6.173 -0.1819  0.4752  0.3543
   35MOL   C89237680   1.048   1.274   6.207 -0.4595  0.1876  0.4146
   35MOL   C89337681   1.172   1.315   6.264  0.2993 -0.6130 -0.3948
   35MOL   C89437682   1.506   1.262   6.430  0.3341 -0.4168  0.2451
   35MOL   C89537683   1.581   1.149   6.464 -0.1301 -0.1654 -0.4753
   35MOL   C89637684   1.682   1.001   6.876  0.4875  0.4462 -0.1298
   35MOL   C89737685   1.646   0.988   7.014  0.1835 -0.0396 -0.1265
   35MOL   H89837686   1.432   0.728   7.005 -0.6631  0.3407 -1.4624
   35MOL   H89937687   1.479   0.752   6.770  1.8568 -0.4342 -0.5923
   35MOL   H90037688   1.363   0.997   6.675 -2.0913  0.0576 -1.9159
   35MOL   H90137689   1.220   1.167   6.599  0.3744 -0.1390  0.6270
   35MOL   H90237690   1.057   1.386   6.578  0.1828 -0.4551 -0.1361
   35MOL   H90337691   0.851   1.311   6.477  1.7356  1.2340  2.0855
   35MOL   H90437692   0.647   1.253   6.320 -0.7078 -1.1370 -1.1136
   35MOL   H90537693   0.743   1.139   6.434  2.3143  1.6571  0.1266
   35MOL   H90637694   0.638   1.078   6.318 -0.8501  0.1330  2.5886
   35MOL   H90737695   0.740   1.294   6.085  0.6551  0.2340 -0.0754
   35MOL   H90837696   0.852   1.179   6.019 -0.7008 -0.5170 -1.0649
   35MOL   H90937697   0.694   1.130   6.064  0.8814 -1.7723  2.0574
   35MOL   H91037698   0.996   1.049   6.429 -2.6009 -1.1508  0.0282
   35MOL   H91137699   1.107   0.830   6.434  0.8004  1.1111  0.4520
   35MOL   H91237700   0.840   0.700   6.121  1.2839 -0.9971  0.1784
   35MOL   H91337701   0.762   0.928   6.092 -0.4412  1.0652  0.7198
   35MOL   H91437702   1.046   1.253   6.101  0.9772  2.5842 -0.1351
   35MOL   H91537703   1.262   1.304   6.205  0.2219  0.6254 -0.7473
   35MOL   H91637704   1.559   1.332   6.367  1.0608 -0.5504  0.7140
   35MOL   H91737705   1.682   1.133   6.428 -0.5723  1.0981 -2.3350
   35MOL   H91837706   1.750   1.074   6.836  0.5870  0.0439 -0.7087
   35MOL   H91937707   1.682   1.058   7.088 -2.1940 -0.1055  1.1207
   35MOL   C92037708   1.160   0.610   6.218 -0.3085  0.2571  0.0921
   35MOL   C92137709   1.259   0.567   6.308  0.1423 -0.9892  0.2494
   35MOL   C92237710   1.392   0.557   6.268  0.1819 -0.1611 -0.2102
   35MOL   C92337711   1.430   0.601   6.142 -0.4259  0.1880  0.3136
   35MOL   S92437712   1.599   0.619   6.099 -0.5986  0.1695 -0.4582
   35MOL   O92537713   1.668   0.537   6.200  0.2318  0.3682 -0.0824
   35MOL   O92637714   1.646   0.754   6.071 -0.3269 -0.0703 -0.3134
   35MOL   C92737715   1.614   0.528   5.947 -0.1597 -0.4968  1.0993
   35MOL   C92837716   1.701   0.566   5.840 -0.6886 -0.6459 -0.7527
   35MOL   C92937717   1.719   0.488   5.726  0.3767  0.9343 -0.1786
   35MOL   C93037718   1.651   0.363   5.711 -0.0681 -0.3533 -0.2677
   35MOL   O93137719   1.670   0.285   5.604 -0.3913 -0.0353  0.5407
   35MOL   C93237720   1.572   0.277   5.511  0.4809 -0.1903  0.5688
   35MOL   C93337721   1.494   0.158   5.511  0.0871 -0.4719 -0.3996
   35MOL   C93437722   1.373   0.168   5.435 -0.1698 -0.1938 -0.7635
   35MOL   C93537723   1.348   0.267   5.337 -0.2001  0.6076 -0.1810
   35MOL   C93637724   1.213   0.254   5.248 -0.4690  0.3655  0.1846
   35MOL   C93737725   1.162   0.397   5.218 -0.8807  0.1048 -0.5546
   35MOL   C93837726   1.247   0.178   5.115  0.7770  0.1652  0.4092
   35MOL   C93937727   1.103   0.176   5.333 -0.8026 -0.3176 -0.6265
   35MOL   C94037728   1.031   0.066   5.271 -0.6563  0.5160  0.1092
   35MOL   C94137729   0.928   0.004   5.345 -0.6390 -0.0798 -0.0792
   35MOL   C94237730   0.907   0.036   5.473  0.0003  0.3892 -0.0674
   35MOL   O94337731   0.804   8.232   5.546 -0.0612  0.0479  0.9644
   35MOL   C94437732   0.981   0.137   5.535 -0.6251 -0.6102 -0.1569
   35MOL   C94537733   1.080   0.208   5.471 -0.6817  0.3584  0.2715
   35MOL   C94637734   1.435   0.381   5.337  0.7391  0.2014 -0.6178
   35MOL   C94737735   1.542   0.380   5.424 -0.2546  0.0372  0.6042
   35MOL   C94837736   1.574   0.319   5.821  0.6424 -0.3474  1.0779
   35MOL   C94937737   1.559   0.398   5.937  0.2976  0.3452 -0.2988
   35MOL   C95037738   1.338   0.648   6.053 -0.4141 -0.5261  0.3679
   35MOL   C95137739   1.202   0.652   6.091 -0.4515  0.4243 -0.1373
   35MOL   H95237740   1.234   0.550   6.412  0.2037  2.1289  0.8289
   35MOL   H95337741   1.466   0.529   6.341 -1.1936 -0.9984  0.8976
   35MOL   H95437742   1.765   0.652   5.848 -2.5592  0.9487 -2.3468
   35MOL   H95537743   1.778   0.523   5.642 -1.9907  3.0886 -1.0190
   35MOL   H95637744   1.507   0.079   5.583  2.2111 -0.1179 -0.3798
   35MOL   H95737745   1.311   0.082   5.456  1.8386 -1.3063  0.8374
   35MOL   H95837746   1.067   0.407   5.165 -1.3831 -1.9168 -0.0891
   35MOL   H95937747   1.228   0.463   5.163  0.7583  0.1321  1.3870
   35MOL   H96037748   1.146   0.454   5.309 -0.6691  2.0991 -1.7457
   35MOL   H96137749   1.319   0.234   5.056 -0.3498 -0.6706 -1.8152
   35MOL   H96237750   1.293   0.080   5.127  0.3298 -0.0981 -0.0083
   35MOL   H96337751   1.163   0.171   5.047  0.7549  2.1589  0.2067
   35MOL   H96437752   1.044   0.044   5.166 -0.1632  1.2427  0.0135
   35MOL   H96537753   0.868   8.179   5.303 -0.2027  1.0275 -2.8486
   35MOL   H96637754   0.961   0.156   5.639 -3.4555 -0.8469 -0.6138
   35MOL   H96737755   1.133   0.288   5.520  0.8659 -0.5185  0.0592
   35MOL   H96837756   1.420   0.470   5.276  1.8828  0.9649  0.1930
   35MOL   H96937757   1.625   0.450   5.421 -2.1635  2.3603 -0.0926
   35MOL   H97037758   1.537   0.219   5.807  2.4107 -1.0571  1.3559
   35MOL   H97137759   1.495   0.353   6.011 -0.8943  1.3732 -0.6829
   35MOL   H97237760   1.379   0.686   5.961  0.0808  2.6431  1.8290
   35MOL   H97337761   1.132   0.694   6.021  1.5400  0.5399 -2.1481
   35MOL   C97437762   0.785   8.094   5.544  0.1625  0.0193  0.3938
   35MOL   C97537763   0.692   8.034   5.452 -0.3974  0.3335 -0.0596
   35MOL   C97637764   0.672   7.892   5.455  0.5853 -0.6658  0.7138
   35MOL   C97737765   0.745   7.815   5.535  0.0675  0.1861 -0.5151
   35MOL   S97837766   0.710   7.641   5.536 -0.3697 -0.2031  0.4001
   35MOL   O97937767   0.568   7.615   5.506 -0.6594 -0.3477 -0.8990
   35MOL   O98037768   0.768   7.594   5.662  0.1345  0.6928 -0.3233
   35MOL   C98137769   0.808   7.579   5.396  0.3892 -0.0863  0.3321
   35MOL   C98237770   0.947   7.611   5.387  0.4760  0.2267  0.4166
   35MOL   C98337771   1.030   7.547   5.285  0.0241 -0.2126 -0.0034
   35MOL   C98437772   0.969   7.471   5.181 -0.1206 -0.3819  0.7747
   35MOL   O98537773   1.043   7.410   5.084 -0.3960  0.3264 -0.6188
   35MOL   C98637774   1.025   7.448   4.953  0.1301 -0.3933 -0.0399
   35MOL   C98737775   1.040   7.341   4.860  0.4190  0.0641  0.1639
   35MOL   C98837776   1.031   7.368   4.724 -0.3567 -0.6667  0.5508
   35MOL   C98937777   0.999   7.501   4.680 -0.4424 -0.0251 -0.1281
   35MOL   C99037778   0.985   7.527   4.527  0.3949 -0.2327  0.1653
   35MOL   C99137779   0.959   7.403   4.448  0.4306  0.1383  0.0256
   35MOL   C99237780   0.855   7.611   4.512 -0.4386  0.1244 -0.3619
   35MOL   C99337781   1.116   7.594   4.474  0.6968 -0.5005 -0.5102
   35MOL   C99437782   1.236   7.592   4.548 -0.4019 -0.5905 -0.6509
   35MOL   C99537783   1.357   7.631   4.488  0.7321 -0.2160  0.8025
   35MOL   C99637784   1.358   7.680   4.353 -0.0583 -0.4733 -0.2797
   35MOL   O99737785   1.469   7.711   4.281 -0.3422 -0.3097  0.4226
   35MOL   C99837786   1.233   7.704   4.288 -0.1185  0.4063  0.1937
   35MOL   C99937787   1.114   7.664   4.352 -0.0365 -0.7076 -0.2560
   35MOL     C137788   0.988   7.606   4.775  0.0582 -0.0909 -0.0485
   35MOL     C237789   0.998   7.581   4.911 -0.0819  0.2128  0.0050
   35MOL     C337790   0.828   7.449   5.184 -0.0636 -0.4794  0.4404
   35MOL     C437791   0.754   7.503   5.294 -0.2922 -0.2100  0.0608
   35MOL     C537792   0.843   7.868   5.619  0.0697 -0.1379  0.0069
   35MOL     C637793   0.856   8.010   5.631  0.1372 -0.0322  0.3938
   35MOL     H737794   0.625   8.098   5.396 -0.2910  2.1627  1.8222
   35MOL     H837795   0.596   7.846   5.394 -0.3943 -1.0662  2.2210
   35MOL     H937796   0.972   7.677   5.468  1.6460  0.9337 -0.5031
   35MOL    H1037797   1.135   7.560   5.263  0.1234 -1.3532 -0.2258
   35MOL    H1137798   1.069   7.240   4.885 -0.6173  0.3766  2.6972
   35MOL    H1237799   1.059   7.292   4.653 -0.3379 -1.2048  1.1276
   35MOL    H1337800   1.055   7.352   4.444  2.0877  3.3048 -2.7602
   35MOL    H1437801   0.925   7.411   4.345 -0.6052 -0.4535  0.3148
   35MOL    H1537802   0.893   7.343   4.511 -0.4253  0.2269 -0.7928
   35MOL    H1637803   0.844   7.638   4.407  2.0883 -0.7158 -0.8836
   35MOL    H1737804   0.762   7.566   4.548  0.2097 -1.0545 -0.1381
   35MOL    H1837805   0.870   7.710   4.557  1.6058  0.8621 -2.5118
   35MOL    H1937806   1.251   7.546   4.644  0.9442 -3.3038 -2.1235
   35MOL    H2037807   1.450   7.604   4.537  0.6543  0.9502  1.6179
   35MOL    H2137808   1.237   7.731   4.183  3.9614  1.4744  0.5422
   35MOL    H2237809   1.025   7.673   4.292  1.1872  0.7570 -1.9007
   35MOL    H2337810   0.971   7.708   4.743 -0.5181  0.0051  0.5483
   35MOL    H2437811   0.991   7.657   4.988 -1.5894  0.9757 -0.8497
   35MOL    H2537812   0.790   7.388   5.104  0.0567  0.5407 -0.4119
   35MOL    H2637813   0.649   7.480   5.302 -0.5597  1.2279  0.8919
   35MOL    H2737814   0.897   7.803   5.686 -1.3669 -0.7686  0.5642
   35MOL    H2837815   0.918   8.043   5.713 -0.9239 -0.4853  1.4032
   35MOL    C2937816   1.588   7.723   4.340 -0.0896 -0.3120  0.7318
   35MOL    C3037817   1.693   7.642   4.297 -0.0341  0.1057 -0.0745
   35MOL    C3137818   1.820   7.662   4.345  0.0944  0.2592 -0.4186
   35MOL    C3237819   1.852   7.750   4.455 -0.8509  0.6995 -0.0475
   35MOL    S3337820   2.008   7.762   4.533  0.2282  0.4493  0.2676
   35MOL    O3437821   2.071   7.627   4.553 -0.1863 -0.1393  0.5089
   35MOL    O3537822   1.985   7.851   4.647  0.3618 -0.1479  0.1561
   35MOL    C3637823   2.107   7.856   4.417  0.0398 -0.1529  0.7901
   35MOL    C3737824   2.078   7.992   4.399  0.1573  0.0449 -0.4682
   35MOL    C3837825   2.163   8.067   4.317  0.2093 -0.7925 -0.1184
   35MOL    C3937826   2.271   8.013   4.240 -0.5359 -0.2779  0.4707
   35MOL    O4037827   2.349   8.084   4.152  0.5173  0.1155  0.2964
   35MOL    C4137828   2.342   8.041   4.020 -0.1332  0.4653  0.1801
   35MOL    C4237829   2.246   8.099   3.924  0.2949  0.2709 -0.4458
   35MOL    C4337830   2.247   8.062   3.794 -0.2699 -0.1595 -0.2278
   35MOL    C4437831   2.337   7.966   3.735 -0.0893  0.4187 -0.5615
   35MOL    C4537832   2.331   7.932   3.583  0.0235 -0.6074 -0.3376
   35MOL    C4637833   2.211   7.839   3.560 -0.0103 -0.2666 -0.4624
   35MOL    C4737834   2.303   8.068   3.502 -0.0925 -0.4548 -0.6361
   35MOL    C4837835   2.460   7.864   3.534 -0.1401 -0.3227 -0.4662
   35MOL    C4937836   2.467   7.721   3.503  0.6710 -0.4827  0.1426
   35MOL    C5037837   2.588   7.657   3.468  0.2632 -0.5505  0.1727
   35MOL    C5137838   2.705   7.734   3.463 -0.1353  0.0149  0.3366
   35MOL    O5237839   2.830   7.678   3.432 -0.6550 -0.1213 -0.1560
   35MOL    C5337840   2.698   7.869   3.490  0.4875  0.3179  0.3338
   35MOL    C5437841   2.577   7.934   3.526  0.4471 -0.2220 -0.0608
   35MOL    C5537842   2.425   7.901   3.829 -0.4447 -0.3869 -0.5294
   35MOL    C5637843   2.428   7.938   3.967 -0.3353 -0.2983  0.1423
   35MOL    C5737844   2.296   7.875   4.265 -0.0759 -0.0856  0.2089
   35MOL    C5837845   2.216   7.796   4.356 -0.3609 -0.2991 -0.0243
   35MOL    C5937846   1.747   7.840   4.494  0.3580 -0.4812  0.1332
   35MOL    C6037847   1.616   7.823   4.437 -0.1417 -0.0734 -0.5615
   35MOL    H6137848   1.675   7.565   4.223  0.7242 -1.1341  1.0046
   35MOL    H6237849   1.898   7.600   4.304  1.7965  1.2651  1.2128
   35MOL    H6337850   1.992   8.041   4.442  0.8512  0.9547 -0.0897
   35MOL    H6437851   2.140   8.172   4.302  2.4200 -0.7044 -3.3851
   35MOL    H6537852   2.173   8.169   3.962  1.1190  1.2582 -0.6787
   35MOL    H6637853   2.176   8.117   3.733 -0.6186  0.2543  0.5454
   35MOL    H6737854   2.204   7.825   3.452 -1.8407  3.6880 -0.9085
   35MOL    H6837855   2.121   7.893   3.586  0.0899 -0.9316  1.2875
   35MOL    H6937856   2.213   7.748   3.621  2.5157  0.5749  0.7758
   35MOL    H7037857   2.315   8.054   3.394 -0.8002 -2.6011 -0.4675
   35MOL    H7137858   2.201   8.102   3.523 -0.3253 -0.2568 -2.0297
   35MOL    H7237859   2.369   8.147   3.535  0.3201 -1.4356  0.9489
   35MOL    H7337860   2.380   7.656   3.507  0.7117 -0.6108 -0.9199
   35MOL    H7437861   2.588   7.552   3.443 -1.7447 -0.4216 -0.4655
   35MOL    H7537862   2.792   7.921   3.498  0.1588  0.8155  1.0542
   35MOL    H7637863   2.573   8.040   3.548  0.9172  0.2323 -2.0307
   35MOL    H7737864   2.499   7.831   3.793 -0.4466 -0.4235 -0.4619
   35MOL    H7837865   2.512   7.903   4.025  1.5055  0.4586 -1.9450
   35MOL    H7937866   2.387   7.841   4.218 -0.8391 -0.0399 -1.3399
   35MOL    H8037867   2.239   7.693   4.380  0.2525 -0.2298 -0.2812
   35MOL    H8137868   1.752   7.925   4.560  0.0834 -1.5515  1.5613
   35MOL    H8237869   1.542   7.886   4.483  1.2937  0.8666  0.5319
   35MOL    H8337870   2.843   7.586   3.449  1.2014 -0.0811 -1.2323
   36MOL     C137871   2.006   8.162   1.773 -0.7907 -0.6422  0.2154
   36MOL     C237872   1.897   8.187   1.689 -0.1215 -0.2306 -0.5072
   36MOL     C337873   1.924   8.214   1.555  0.5197  0.0609  0.6321
   36MOL     C437874   2.056   8.224   1.509  0.2437  0.3062  0.0452
   36MOL     S537875   2.084   0.003   1.340  0.2621  0.6710 -0.1732
   36MOL     O637876   1.972   8.207   1.257  0.4740 -0.5370 -0.1598
   36MOL     O737877   2.216   8.207   1.301  0.3349  0.4048  0.5512
   36MOL     C837878   2.091   0.186   1.326 -0.1807  0.2865  0.2377
   36MOL     C937879   2.019   0.276   1.414  0.1570  0.1257 -0.3358
   36MOL    C1037880   2.045   0.413   1.407 -0.6375  0.4063  0.2202
   36MOL    C1137881   2.140   0.461   1.310  0.9123  0.2061  0.0322
   36MOL    O1237882   2.139   0.594   1.287  0.0459 -0.1869  0.3719
   36MOL    C1337883   2.221   0.674   1.359 -0.5319 -0.1060  0.1640
   36MOL    C1437884   2.339   0.718   1.300  0.5621  0.2120  0.0641
   36MOL    C1537885   2.425   0.810   1.368 -0.1403  0.3252  0.5178
   36MOL    C1637886   2.395   0.851   1.496  0.2921 -0.3882  0.5048
   36MOL    C1737887   2.485   0.931   1.593 -0.4851 -0.8430  0.0489
   36MOL    C1837888   2.563   0.825   1.683  0.6526 -0.6438  0.1977
   36MOL    C1937889   2.600   1.007   1.519 -0.6094  0.2413  0.1953
   36MOL    C2037890   2.401   1.035   1.672 -0.5496  0.4723 -0.0590
   36MOL    C2137891   2.368   1.006   1.807  0.0383  0.3852  0.4468
   36MOL    C2237892   2.300   1.098   1.887  0.2603 -0.3521 -0.1563
   36MOL    C2337893   2.250   1.215   1.831 -0.0423  0.0418 -0.5178
   36MOL    O2437894   2.172   1.292   1.917  0.4170  0.3478 -0.3123
   36MOL    C2537895   2.274   1.249   1.699 -0.3733 -0.7458  0.9152
   36MOL    C2637896   2.357   1.161   1.621  0.6617  0.2963  0.2284
   36MOL    C2737897   2.282   0.798   1.555 -0.0585  0.4297 -0.1943
   36MOL    C2837898   2.198   0.707   1.489  0.1155 -0.5559  0.4926
   36MOL    C2937899   2.215   0.371   1.230 -0.3319 -0.1132 -0.0459
   36MOL    C3037900   2.189   0.235   1.235  0.1886 -0.4507  0.8245
   36MOL    C3137901   2.169   8.203   1.597  0.5036  0.0960 -0.1613
   36MOL    C3237902   2.139   8.166   1.733  0.4878  0.0185  0.4855
   36MOL    H3337903   1.793   8.181   1.720 -0.1022  1.3731 -0.0620
   36MOL    H3437904   1.837   8.227   1.493  0.2900  0.8701  1.1070
   36MOL    H3537905   1.958   0.241   1.496  3.1165 -3.1647  0.5950
   36MOL    H3637906   1.994   0.480   1.475 -1.2643  0.4051 -0.2491
   36MOL    H3737907   2.362   0.682   1.201  0.8577 -0.6465  0.4327
   36MOL    H3837908   2.518   0.846   1.327 -0.1185 -0.2494  0.0655
   36MOL    H3937909   2.500   0.772   1.754  3.4336 -0.5902  2.8015
   36MOL    H4037910   2.630   0.890   1.740  0.2051 -0.8443  0.9588
   36MOL    H4137911   2.617   0.759   1.615  2.3016  2.3294 -1.4902
   36MOL    H4237912   2.569   1.073   1.438 -0.0619  0.6808  0.3375
   36MOL    H4337913   2.647   1.075   1.590 -1.0586  0.0672  0.6628
   36MOL    H4437914   2.674   0.944   1.470 -0.7201  1.0203 -0.9848
   36MOL    H4537915   2.375   0.905   1.847  0.4928  0.2901  0.1260
   36MOL    H4637916   2.274   1.070   1.988  2.0108  1.0950  0.7250
   36MOL    H4737917   2.242   1.341   1.653  2.1086  1.1954  2.9669
   36MOL    H4837918   2.389   1.191   1.522 -1.3622  2.8043  0.2962
   36MOL    H4937919   2.260   0.821   1.658 -0.7158  0.9636 -0.4496
   36MOL    H5037920   2.106   0.672   1.532 -0.1105 -0.7513 -0.1391
   36MOL    H5137921   2.288   0.411   1.160 -0.2591 -1.9971 -1.0962
   36MOL    H5237922   2.245   0.174   1.166 -0.2085 -0.3072  0.3778
   36MOL    H5337923   2.271   8.214   1.564  0.5714  0.9475  0.3186
   36MOL    H5437924   2.221   8.158   1.803  0.7087  0.5828  0.2948
   36MOL    H5537925   1.983   8.157   1.878  1.1394  1.7879  0.8160
   36MOL    C5637926   2.223   1.383   2.009  0.1123 -0.2783 -0.3367
   36MOL    C5737927   2.353   1.430   2.009 -0.2445  0.1384 -0.3431
   36MOL    C5837928   2.399   1.521   2.101  0.8908  0.0905  0.8197
   36MOL    C5937929   2.304   1.592   2.184  0.8787  0.0380  0.2384
   36MOL    S6037930   2.361   1.728   2.285  0.1852 -0.3823 -0.1377
   36MOL    O6137931   2.342   1.851   2.202  0.4564 -0.3149  0.0093
   36MOL    O6237932   2.495   1.689   2.339 -0.3420 -0.2723  0.3241
   36MOL    C6337933   2.242   1.740   2.414 -0.8355  0.4418  0.7897
   36MOL    C6437934   2.142   1.837   2.407  0.5855 -0.6787  0.5389
   36MOL    C6537935   2.057   1.859   2.516 -0.2581 -0.3682  0.0588
   36MOL    C6637936   2.054   1.771   2.626 -0.1993  0.2396 -0.0427
   36MOL    O6737937   1.968   1.800   2.731 -0.5064 -0.3746 -0.1232
   36MOL    C6837938   1.875   1.709   2.784 -0.1954  0.0858  0.0796
   36MOL    C6937939   1.794   1.756   2.887 -0.5209  0.2135  0.5481
   36MOL    C7037940   1.693   1.673   2.938  0.4055  0.1808  0.3149
   36MOL    C7137941   1.677   1.539   2.899 -0.0072  0.0690  0.1533
   36MOL    C7237942   1.568   1.440   2.950 -0.6538  0.4501  0.4623
   36MOL    C7337943   1.427   1.511   2.934  0.1846 -0.5275 -0.3906
   36MOL    C7437944   1.571   1.307   2.869  0.0642 -0.2404  0.3416
   36MOL    C7537945   1.602   1.409   3.097  0.5798 -0.2855  0.2456
   36MOL    C7637946   1.684   1.303   3.132 -0.4465  0.3689 -0.1455
   36MOL    C7737947   1.715   1.281   3.267 -0.7584  0.0204 -0.1280
   36MOL    C7837948   1.654   1.360   3.370  0.2940 -0.2010  0.2431
   36MOL    O7937949   1.677   1.323   3.503 -0.7969 -0.4354 -0.1769
   36MOL    C8037950   1.571   1.469   3.331  0.6906  0.1205  0.6971
   36MOL    C8137951   1.548   1.498   3.194 -0.5253 -0.5662 -0.2315
   36MOL    C8237952   1.767   1.489   2.801 -0.1486 -0.1676  0.1598
   36MOL    C8337953   1.868   1.570   2.744  0.8339 -0.4889  0.8755
   36MOL    C8437954   2.143   1.666   2.630 -0.2729 -0.0799 -0.3084
   36MOL    C8537955   2.248   1.657   2.534 -0.1496  0.4165  0.1494
   36MOL    C8637956   2.169   1.540   2.186 -0.5313 -0.1288 -0.1723
   36MOL    C8737957   2.123   1.437   2.096 -0.6599  0.4769  0.1142
   36MOL    H8837958   2.430   1.390   1.944 -0.7927 -0.5609 -0.5728
   36MOL    H8937959   2.504   1.543   2.097  0.5705  1.6411  0.9102
   36MOL    H9037960   2.129   1.901   2.321 -1.2800 -2.1199 -0.3025
   36MOL    H9137961   1.988   1.942   2.509 -0.3437 -0.6082 -2.5195
   36MOL    H9237962   1.799   1.852   2.936 -1.4725 -0.8926  2.9200
   36MOL    H9337963   1.628   1.713   3.014 -0.6014  2.5128 -1.6870
   36MOL    H9437964   1.411   1.515   2.827  1.7823 -0.3179 -0.6388
   36MOL    H9537965   1.412   1.610   2.978  0.6582 -0.0318 -1.3435
   36MOL    H9637966   1.350   1.451   2.982 -2.5487  2.2673 -1.0937
   36MOL    H9737967   1.656   1.239   2.870  0.1429 -0.3449 -3.8611
   36MOL    H9837968   1.498   1.234   2.903  0.6392  0.0903  2.3818
   36MOL    H9937969   1.558   1.328   2.763 -1.4616 -2.8867 -0.0404
   36MOL   H10037970   1.727   1.240   3.056 -1.2741  1.0614 -1.2063
   36MOL   H10137971   1.773   1.198   3.303 -0.9070  0.7002  1.7318
   36MOL   H10237972   1.517   1.530   3.402 -0.4784  0.4235 -0.4276
   36MOL   H10337973   1.485   1.580   3.163 -2.3114 -1.6712  0.3621
   36MOL   H10437974   1.768   1.386   2.769  1.5151 -0.9106  2.4182
   36MOL   H10537975   1.929   1.526   2.666 -0.2101 -1.4438  0.5792
   36MOL   H10637976   2.138   1.600   2.716  0.0384 -1.0383 -1.0120
   36MOL   H10737977   2.329   1.587   2.543  1.3752  2.3513  1.8615
   36MOL   H10837978   2.093   1.575   2.254 -1.4209 -0.4069 -1.0165
   36MOL   H10937979   2.018   1.417   2.082 -1.0672  0.2353  3.2311
   36MOL   C11037980   1.802   1.349   3.548 -0.3583 -0.3220 -0.2759
   36MOL   C11137981   1.827   1.484   3.590  0.0582 -0.0069 -0.3711
   36MOL   C11237982   1.951   1.518   3.639  0.4553 -1.0035 -0.6640
   36MOL   C11337983   2.046   1.410   3.661  0.2434  0.2322  0.1650
   36MOL   S11437984   2.210   1.447   3.722 -0.3638 -0.4961 -0.0389
   36MOL   O11537985   2.238   1.593   3.719 -0.0555 -0.1588  0.1926
   36MOL   O11637986   2.306   1.360   3.654  0.3562 -0.0688  0.0045
   36MOL   C11737987   2.210   1.401   3.895  0.2677 -0.1003  0.5164
   36MOL   C11837988   2.239   1.497   3.995  0.1902 -0.1544  0.5564
   36MOL   C11937989   2.224   1.462   4.130 -0.3884 -0.3604 -0.6159
   36MOL   C12037990   2.190   1.331   4.163  1.0204 -0.4732  0.3170
   36MOL   O12137991   2.183   1.288   4.290  0.1770 -0.5113 -0.8195
   36MOL   C12237992   2.295   1.296   4.366  0.1582 -1.1769 -0.2575
   36MOL   C12337993   2.397   1.206   4.347 -0.7079 -0.4610 -0.1107
   36MOL   C12437994   2.518   1.219   4.420  0.3556 -0.1253 -0.2535
   36MOL   C12537995   2.532   1.320   4.514  0.4525  0.1806  0.0516
   36MOL   C12637996   2.670   1.348   4.585  0.4231  0.3417 -0.9096
   36MOL   C12737997   2.758   1.434   4.484 -0.2531 -0.3502  0.0296
   36MOL   C12837998   2.669   1.434   4.711 -0.0195 -0.0890 -0.2434
   36MOL   C12937999   2.733   1.218   4.639  0.2827 -0.8940 -0.5219
   36MOL   C13038000   2.652   1.117   4.693 -0.0664 -0.3945 -0.3360
   36MOL   C13138001   2.707   0.995   4.725 -0.1973  0.1688  0.1009
   36MOL   C13238002   2.849   0.975   4.727 -0.5474  0.0825  0.2608
   36MOL   O13338003   2.907   0.860   4.767  0.7054 -0.0643  0.2817
   36MOL   C13438004   2.927   1.079   4.676 -0.5734  0.4041 -1.0335
   36MOL   C13538005   2.870   1.200   4.632 -0.7502  0.2488  0.5039
   36MOL   C13638006   2.431   1.421   4.523 -0.3630 -0.3792 -0.4931
   36MOL   C13738007   2.316   1.408   4.450  0.0252  0.4363  0.8841
   36MOL   C13838008   2.161   1.238   4.061 -0.0674 -0.6512 -0.0446
   36MOL   C13938009   2.169   1.269   3.924 -0.2208 -0.1612  0.4070
   36MOL   C14038010   2.020   1.281   3.617  0.0398 -0.1586  0.2495
   36MOL   C14138011   1.899   1.250   3.557  0.2150 -0.6383  0.2901
   36MOL   H14238012   1.756   1.562   3.563  1.1238  0.6855 -1.2133
   36MOL   H14338013   1.978   1.621   3.660  0.3989 -1.1553  0.1754
   36MOL   H14438014   2.277   1.596   3.973  0.8556 -1.3470 -4.1753
   36MOL   H14538015   2.246   1.531   4.210  1.8126 -1.9528  0.1915
   36MOL   H14638016   2.379   1.127   4.276 -1.5570 -0.3197 -0.0604
   36MOL   H14738017   2.593   1.143   4.407  0.3751 -0.5085  2.0343
   36MOL   H14838018   2.850   1.457   4.537 -0.9280  2.2601  0.1492
   36MOL   H14938019   2.701   1.523   4.456  2.5189  1.2979 -0.6020
   36MOL   H15038020   2.791   1.379   4.395  0.4750  0.9523 -0.5274
   36MOL   H15138021   2.615   1.529   4.705 -1.0207 -0.6714 -0.5018
   36MOL   H15238022   2.607   1.379   4.782 -4.4503  3.8299 -0.8075
   36MOL   H15338023   2.771   1.442   4.750 -1.1181  1.7776  2.4239
   36MOL   H15438024   2.545   1.127   4.707  0.0899  0.1530  0.4627
   36MOL   H15538025   2.647   0.920   4.776  1.1431 -0.4326  0.8263
   36MOL   H15638026   3.034   1.063   4.680 -0.5627  0.7427  0.5126
   36MOL   H15738027   2.938   1.276   4.595  1.9422 -2.0673  0.5196
   36MOL   H15838028   2.444   1.511   4.580 -3.8573  0.5514 -1.0249
   36MOL   H15938029   2.236   1.480   4.454 -0.8428 -0.4752  0.0388
   36MOL   H16038030   2.144   1.133   4.082  2.9073 -0.7472  2.3185
   36MOL   H16138031   2.149   1.200   3.843 -3.1835 -0.8035  1.6292
   36MOL   H16238032   2.091   1.200   3.622  0.4223  0.2777  2.3370
   36MOL   H16338033   1.874   1.149   3.528 -0.2496 -0.7450  1.0364
   36MOL   C16438034   2.922   0.759   4.672  0.4466 -0.0135  0.2274
   36MOL   C16538035   3.044   0.745   4.603 -0.2767 -1.1862  0.6460
   36MOL   C16638036   3.058   0.645   4.506 -0.6528  0.4009 -0.3578
   36MOL   C16738037   2.948   0.565   4.468 -0.1405  0.0177  0.3950
   36MOL   S16838038   2.980   0.426   4.354  0.1946 -0.1130 -0.2033
   36MOL   O16938039   2.882   0.320   4.374 -0.2818  0.4066 -0.5655
   36MOL   O17038040   3.126   0.391   4.360  0.2936 -0.6796 -0.0701
   36MOL   C17138041   2.958   0.492   4.191 -0.1564  0.4574 -0.0866
   36MOL   C17238042   2.988   0.407   4.089 -0.0169  0.1332 -0.2734
   36MOL   C17338043   2.954   0.448   3.955 -0.3064  0.5793 -0.6085
   36MOL   C17438044   2.905   0.576   3.933  0.0261  0.1455  0.1475
   36MOL   O17538045   2.871   0.605   3.803 -0.2705 -0.3229 -0.0331
   36MOL   C17638046   2.972   0.641   3.722 -0.7753  0.3245  0.6605
   36MOL   C17738047   3.044   0.541   3.649  0.1735 -0.0053  0.0608
   36MOL   C17838048   3.147   0.575   3.557 -0.6211 -0.5511  0.0385
   36MOL   C17938049   3.182   0.704   3.546 -0.0582 -0.1513 -0.0877
   36MOL   C18038050   3.290   0.744   3.439  0.0261  0.5869 -0.0808
   36MOL   C18138051   3.321   0.891   3.426  0.3984 -0.5016  0.4400
   36MOL   C18238052   3.428   0.677   3.484 -0.2584 -0.3710  0.2847
   36MOL   C18338053   3.239   0.686   3.308 -0.5202 -0.9856  0.0312
   36MOL   C18438054   3.307   0.580   3.236  0.4174 -0.5143 -0.8501
   36MOL   C18538055   3.245   0.533   3.118 -0.4374  0.4800  0.9615
   36MOL   C18638056   3.127   0.590   3.062 -0.2407 -0.1537 -0.2891
   36MOL   O18738057   3.078   0.546   2.950  0.3515  0.4607  0.2201
   36MOL   C18838058   3.068   0.700   3.130 -0.4657 -0.4284  0.1832
   36MOL   C18938059   3.122   0.739   3.249  0.1098 -0.2011  0.2285
   36MOL   C19038060   3.117   0.806   3.616  0.6142 -0.6879  0.2074
   36MOL   C19138061   3.014   0.775   3.706 -0.3733 -0.3601 -0.4847
   36MOL   C19238062   2.874   0.668   4.043 -0.2602 -0.2903  0.4109
   36MOL   C19338063   2.904   0.622   4.171  0.0987 -0.4752  0.1155
   36MOL   C19438064   2.822   0.575   4.536  0.5323 -0.3759  0.0446
   36MOL   C19538065   2.808   0.677   4.640  0.1296 -0.1592 -0.0988
   36MOL   H19638066   3.126   0.803   4.644 -0.1389 -2.0553  1.6010
   36MOL   H19738067   3.158   0.632   4.466  0.2133  1.3489  1.4105
   36MOL   H19838068   3.002   0.302   4.113  2.8968  0.3648 -0.7396
   36MOL   H19938069   2.972   0.381   3.872  1.5917  0.3031 -0.0077
   36MOL   H20038070   3.021   0.438   3.670 -2.1293  0.1905 -1.3035
   36MOL   H20138071   3.203   0.497   3.508  1.8618 -0.4637  2.5956
   36MOL   H20238072   3.238   0.957   3.397  0.4258 -1.4229 -1.8290
   36MOL   H20338073   3.397   0.924   3.356  1.3586  0.1035  1.7520
   36MOL   H20438074   3.360   0.930   3.520  1.9961 -0.9245 -0.0388
   36MOL   H20538075   3.458   0.721   3.579  1.3359  0.4387 -0.5679
   36MOL   H20638076   3.418   0.576   3.522  0.3184 -0.4354  0.2694
   36MOL   H20738077   3.505   0.685   3.407 -2.4319 -0.4309 -1.9420
   36MOL   H20838078   3.396   0.528   3.269  0.6029 -0.0536 -0.6307
   36MOL   H20938079   3.288   0.451   3.062  0.2075  2.5343 -1.6427
   36MOL   H21038080   2.974   0.741   3.096 -0.5907 -0.2904  0.6902
   36MOL   H21138081   3.068   0.818   3.299 -2.4023 -2.8622  1.8787
   36MOL   H21238082   3.142   0.911   3.611 -1.1861 -0.2652 -0.0629
   36MOL   H21338083   2.969   0.859   3.757 -1.8384 -0.9329 -0.8154
   36MOL   H21438084   2.830   0.765   4.026 -1.6636 -1.2220 -1.5151
   36MOL   H21538085   2.870   0.674   4.259  1.8725 -0.7587  0.9986
   36MOL   H21638086   2.745   0.507   4.503 -1.5548  1.8942  0.1274
   36MOL   H21738087   2.710   0.691   4.681  0.7816  1.9299  0.8372
   36MOL   C21838088   3.004   0.431   2.954 -1.0518  0.2078  0.0291
   36MOL   C21938089   2.887   0.411   3.029  1.0092 -0.2997  0.2424
   36MOL   C22038090   2.823   0.285   3.028 -0.4095  0.0716 -0.1460
   36MOL   C22138091   2.879   0.181   2.959  0.2205 -0.0746 -0.3071
   36MOL   S22238092   2.811   0.017   2.981 -0.7655 -0.2146  0.0806
   36MOL   O22338093   2.904   8.166   2.946  0.1464 -0.4058 -0.1623
   36MOL   O22438094   2.675   0.016   2.916 -0.1022 -0.1582  0.3571
   36MOL   C22538095   2.792   0.008   3.163 -0.3600 -0.8940  0.2654
   36MOL   C22638096   2.664   8.232   3.223  0.7918 -0.1476  0.2910
   36MOL   C22738097   2.656   8.241   3.365  0.1922  0.4491  0.2660
   36MOL   C22838098   2.765   0.035   3.442 -0.6697  0.5367 -0.4794
   36MOL   O22938099   2.762   0.033   3.581 -0.6834  0.0098  0.2059
   36MOL   C23038100   2.666   0.110   3.639  0.1834  0.2726  0.3085
   36MOL   C23138101   2.682   0.253   3.646 -0.4994  0.2553 -0.3191
   36MOL   C23238102   2.583   0.327   3.715  0.2282 -0.7253 -0.1038
   36MOL   C23338103   2.469   0.267   3.772  0.3076 -0.1114 -0.0212
   36MOL   C23438104   2.366   0.361   3.838  0.5394  0.8850 -0.6121
   36MOL   C23538105   2.300   0.454   3.731 -0.3364  0.0066  0.3000
   36MOL   C23638106   2.241   0.280   3.899 -0.0151  0.7032 -0.7630
   36MOL   C23738107   2.427   0.429   3.959  0.1949 -0.5550  0.7927
   36MOL   C23838108   2.497   0.353   4.059  0.4625 -0.1514  0.2193
   36MOL   C23938109   2.548   0.416   4.176  0.0331 -0.1242 -0.5954
   36MOL   C24038110   2.543   0.556   4.190  0.5577  0.1485 -0.4423
   36MOL   O24138111   2.593   0.608   4.306  0.3413  0.4036 -0.5623
   36MOL   C24238112   2.490   0.634   4.088 -0.1007  0.6021  0.2767
   36MOL   C24338113   2.425   0.571   3.976  0.6765 -0.2787  0.3122
   36MOL   C24438114   2.447   0.126   3.751  0.1953 -0.1316 -0.4432
   36MOL   C24538115   2.552   0.050   3.694 -0.1108 -0.4601  0.4724
   36MOL   C24638116   2.880   0.071   3.378 -0.1778  0.2610 -0.2457
   36MOL   C24738117   2.905   0.046   3.243 -0.2111 -0.2486  0.0037
   36MOL   C24838118   2.988   0.201   2.875 -0.0584  0.0600  0.5510
   36MOL   C24938119   3.050   0.326   2.872 -0.0065 -0.7599 -0.2794
   36MOL   H25038120   2.851   0.487   3.097 -0.0613 -0.0936 -0.5407
   36MOL   H25138121   2.748   0.266   3.103 -0.1680 -0.1430  0.0447
   36MOL   H25238122   2.580   8.191   3.169  1.2415 -2.0170  0.9667
   36MOL   H25338123   2.561   8.219   3.411 -1.4934 -0.1144 -3.3892
   36MOL   H25438124   2.760   0.306   3.593 -1.1954  0.8759 -0.7337
   36MOL   H25538125   2.591   0.434   3.730 -3.7892 -0.7627  3.0867
   36MOL   H25638126   2.251   0.386   3.661 -4.2897  0.8659  2.0625
   36MOL   H25738127   2.376   0.505   3.671 -0.4029 -1.1388 -0.7698
   36MOL   H25838128   2.232   0.530   3.771  1.2633  0.9618  1.3105
   36MOL   H25938129   2.175   0.352   3.947  0.3887 -0.4283  1.6192
   36MOL   H26038130   2.178   0.233   3.824 -1.2449 -1.7523  1.6864
   36MOL   H26138131   2.273   0.200   3.966 -2.3625  0.2811 -0.0958
   36MOL   H26238132   2.496   0.246   4.042  2.0564 -0.2874  0.8801
   36MOL   H26338133   2.591   0.353   4.252  0.0067  1.0090  0.3738
   36MOL   H26438134   2.477   0.740   4.107 -1.6271  0.5413 -0.4057
   36MOL   H26538135   2.372   0.623   3.898  1.0141 -0.8817 -0.3269
   36MOL   H26638136   2.354   0.078   3.776  1.1407 -2.8711 -1.9263
   36MOL   H26738137   2.533   8.197   3.683  1.9902 -0.9437  1.4002
   36MOL   H26838138   2.962   0.114   3.435 -0.1301 -0.2409  0.0727
   36MOL   H26938139   3.004   0.066   3.206 -1.0841  2.8034 -0.7598
   36MOL   H27038140   3.030   0.121   2.816 -2.5862 -1.7756  1.1469
   36MOL   H27138141   3.145   0.339   2.823  0.3945  0.3396  0.7760
   36MOL   C27238142   2.515   0.651   4.414  0.0846  0.4833 -0.9839
   36MOL   C27338143   2.493   0.788   4.441  0.4222 -0.6341  0.4992
   36MOL   C27438144   2.432   0.827   4.561 -0.2556 -0.4686 -0.4771
   36MOL   C27538145   2.380   0.737   4.655  0.1885 -0.4937  0.1463
   36MOL   S27638146   2.308   0.788   4.814 -0.1832  0.0497  0.2255
   36MOL   O27738147   2.163   0.774   4.797  0.0723  0.3493 -0.3911
   36MOL   O27838148   2.374   0.918   4.832 -0.6374 -0.3075 -0.1836
   36MOL   C27938149   2.362   0.675   4.935  0.6461 -0.2196 -1.1544
   36MOL   C28038150   2.286   0.552   4.953  0.1767 -0.5136 -0.2975
   36MOL   C28138151   2.327   0.450   5.039 -0.2838  0.2474 -0.8737
   36MOL   C28238152   2.442   0.474   5.118 -0.1301 -0.7981  0.2047
   36MOL   O28338153   2.487   0.378   5.206 -0.0157  1.1379 -0.1568
   36MOL   C28438154   2.441   0.372   5.331 -0.2808 -0.5271  0.1983
   36MOL   C28538155   2.411   0.252   5.398 -0.5791  0.3826 -0.1598
   36MOL   C28638156   2.386   0.242   5.536 -0.1868 -0.6611 -0.1731
   36MOL   C28738157   2.387   0.364   5.601 -0.1907 -0.2394 -0.0284
   36MOL   C28838158   2.372   0.365   5.755 -0.5735  0.3294 -0.0088
   36MOL   C28938159   2.495   0.295   5.813  0.2181  0.2797 -0.7221
   36MOL   C29038160   2.374   0.510   5.814 -0.2993  0.7939  0.5571
   36MOL   C29138161   2.232   0.307   5.790 -0.2998 -0.8350 -0.0182
   36MOL   C29238162   2.210   0.218   5.901 -0.2054 -0.5613  0.0814
   36MOL   C29338163   2.080   0.167   5.934 -0.1664 -0.3176 -0.3268
   36MOL   C29438164   1.979   0.199   5.842  0.3225 -0.0241  0.3895
   36MOL   O29538165   1.850   0.164   5.870  0.4766  0.1436  0.1507
   36MOL   C29638166   1.991   0.288   5.737 -0.4441  0.4765  0.3040
   36MOL   C29738167   2.121   0.345   5.709  0.4991  0.4811  0.4079
   36MOL   C29838168   2.410   0.488   5.534 -0.3098  0.7516  0.3207
   36MOL   C29938169   2.439   0.494   5.399 -0.3116  0.7580  0.5774
   36MOL   C30038170   2.513   0.599   5.110 -0.7700  0.3944 -0.0473
   36MOL   C30138171   2.470   0.695   5.023  0.8163 -0.0310 -0.3384
   36MOL   C30238172   2.384   0.599   4.619  0.6430  0.5941  0.3281
   36MOL   C30338173   2.450   0.560   4.500  0.6001  0.1150 -0.4097
   36MOL   H30438174   2.525   0.863   4.371  0.6094 -1.0458  0.1427
   36MOL   H30538175   2.424   0.932   4.585  2.7237 -0.3137  0.0861
   36MOL   H30638176   2.198   0.538   4.893  0.9263 -0.6080 -1.3821
   36MOL   H30738177   2.274   0.356   5.045 -0.3620  0.2473 -1.5492
   36MOL   H30838178   2.420   0.156   5.350 -0.1240  0.5009 -0.3154
   36MOL   H30938179   2.375   0.151   5.593  0.5690 -0.5628  0.1335
   36MOL   H31038180   2.511   0.192   5.781 -0.1994 -0.2570  0.7488
   36MOL   H31138181   2.480   0.300   5.921 -0.6987  1.9401 -0.9129
   36MOL   H31238182   2.589   0.347   5.793 -0.4433  1.2251 -1.3635
   36MOL   H31338183   2.302   0.574   5.763  0.9698  0.9710 -1.0674
   36MOL   H31438184   2.349   0.509   5.920 -3.0791 -0.2268 -0.0815
   36MOL   H31538185   2.466   0.564   5.791 -0.6544 -0.2059 -3.4771
   36MOL   H31638186   2.293   0.198   5.966  0.2281 -1.9583 -0.8828
   36MOL   H31738187   2.060   0.097   6.014  0.8180  0.7112  0.8396
   36MOL   H31838188   1.914   0.302   5.663 -0.7166 -1.0564  0.2682
   36MOL   H31938189   2.116   0.419   5.630  4.1372  0.2569 -0.0776
   36MOL   H32038190   2.423   0.583   5.585  0.5353  1.0595 -0.4505
   36MOL   H32138191   2.466   0.588   5.354  1.6871  0.2029  0.5747
   36MOL   H32238192   2.600   0.623   5.170 -0.9176 -1.1281  0.8242
   36MOL   H32338193   2.511   0.794   5.014 -2.7320  1.5254 -0.3715
   36MOL   H32438194   2.339   0.521   4.679  3.9218 -1.7997 -0.2155
   36MOL   H32538195   2.457   0.455   4.477 -1.8526  0.2928 -2.0935
   36MOL   C32638196   1.811   0.046   5.922  0.1427  0.3437  0.0521
   36MOL   C32738197   1.732   0.042   6.043 -0.1378  0.1444 -0.5780
   36MOL   C32838198   1.695   8.167   6.083 -0.3914 -0.1749 -0.3365
   36MOL   C32938199   1.726   8.047   6.016  0.3587 -0.4610  0.3810
   36MOL   S33038200   1.660   7.888   6.077  0.6177  0.0893  0.3066
   36MOL   O33138201   1.618   7.813   5.959 -0.0425  0.0761  0.6115
   36MOL   O33238202   1.567   7.915   6.189 -0.3732  0.0569 -0.2977
   36MOL   C33338203   1.802   7.797   6.134  0.1929 -0.6474  0.1428
   36MOL   C33438204   1.804   7.743   6.262  0.1027 -0.0334  0.4927
   36MOL   C33538205   1.920   7.681   6.310 -0.8206  0.0946  0.1955
   36MOL   C33638206   2.032   7.656   6.223  0.2878 -0.1110  0.4573
   36MOL   O33738207   2.137   7.579   6.262  0.2183 -0.1325  0.1507
   36MOL   C33838208   2.253   7.647   6.294 -0.0175 -0.3845  0.5614
   36MOL   C33938209   2.366   7.629   6.209 -1.0876  0.2889  0.2286
   36MOL   C34038210   2.481   7.709   6.235  0.1847 -0.3638 -0.4328
   36MOL   C34138211   2.485   7.801   6.343 -0.5762 -0.6549 -0.0606
   36MOL   C34238212   2.611   7.887   6.362  0.6319  0.4674 -0.6297
   36MOL   C34338213   2.610   7.971   6.226  0.3873  0.5075 -0.6699
   36MOL   C34438214   2.588   7.992   6.476 -0.5849  1.0248  0.3658
   36MOL   C34538215   2.733   7.807   6.392 -0.0172  0.2554 -0.8470
   36MOL   C34638216   2.844   7.822   6.304 -0.1403  0.1529  0.0086
   36MOL   C34738217   2.962   7.754   6.336  0.9972 -0.0614  0.4754
   36MOL   C34838218   2.971   7.673   6.454  0.1718  0.5946 -0.0863
   36MOL   O34938219   3.088   7.623   6.510 -0.0002  0.1146  0.3067
   36MOL   C35038220   2.848   7.646   6.527  0.6567  0.1793  0.4550
   36MOL   C35138221   2.730   7.713   6.497  0.9515  0.0497  0.3944
   36MOL   C35238222   2.373   7.809   6.430 -0.3212  0.3083  0.0906
   36MOL   C35338223   2.262   7.726   6.406 -0.0615  0.3225 -0.3479
   36MOL   C35438224   2.021   7.700   6.093  0.0399 -0.4397  0.6359
   36MOL   C35538225   1.912   7.776   6.047 -0.0053  0.0263  0.7163
   36MOL   C35638226   1.804   8.056   5.903 -0.4942  0.1442  0.2483
   36MOL   C35738227   1.847   8.179   5.855 -0.1387 -0.5341 -0.6773
   36MOL   H35838228   1.715   0.128   6.106  1.7315  0.9274 -1.1250
   36MOL   H35938229   1.641   8.162   6.177 -0.7258 -0.7634 -0.5543
   36MOL   H36038230   1.712   7.751   6.319  0.4412  1.6518  0.8282
   36MOL   H36138231   1.922   7.650   6.413 -0.9795 -0.8446 -0.0801
   36MOL   H36238232   2.361   7.551   6.135  1.7649 -0.4780  0.7742
   36MOL   H36338233   2.567   7.679   6.177  1.7151  0.2585  1.4667
   36MOL   H36438234   2.691   8.044   6.232 -0.8225  1.8802 -0.7869
   36MOL   H36538235   2.523   8.030   6.195  0.7493  1.7402  0.5966
   36MOL   H36638236   2.614   7.906   6.139 -3.7446  0.3395 -0.8494
   36MOL   H36738237   2.588   7.950   6.577 -3.4592 -0.7593 -0.3084
   36MOL   H36838238   2.648   8.083   6.470 -2.4471  2.2936  0.4580
   36MOL   H36938239   2.489   8.038   6.471 -1.3457 -0.5843  0.3165
   36MOL   H37038240   2.835   7.882   6.214 -1.5580  1.0835  0.7440
   36MOL   H37138241   3.042   7.769   6.264  0.2381  1.5436 -0.0462
   36MOL   H37238242   2.847   7.568   6.601 -0.5334  0.6036  0.9005
   36MOL   H37338243   2.643   7.699   6.558  0.8268  0.7595  0.3867
   36MOL   H37438244   2.374   7.865   6.522  0.3173  1.5291 -0.6404
   36MOL   H37538245   2.184   7.732   6.481  0.6832 -0.7283  0.5349
   36MOL   H37638246   2.103   7.673   6.028  1.7241  0.7460  2.1837
   36MOL   H37738247   1.905   7.823   5.950 -0.4028 -2.8861 -0.7193
   36MOL   H37838248   1.824   7.974   5.836  0.1528  1.7920 -1.6245
   36MOL   H37938249   1.902   8.180   5.762  0.2924  1.2521 -0.4261
   36MOL   C38038250   3.206   7.657   6.457 -0.5408  0.1456 -0.1907
   36MOL   C38138251   3.265   7.555   6.382 -0.0885 -0.2183 -0.7331
   36MOL   C38238252   3.398   7.572   6.339 -0.1909 -0.0730  0.7417
   36MOL   C38338253   3.467   7.696   6.364  0.0477 -0.3332 -1.4064
   36MOL   S38438254   3.633   7.724   6.307  0.1781 -0.1365  0.1773
   36MOL   O38538255   3.693   7.597   6.269 -0.1405 -0.9265 -0.2336
   36MOL   O38638256   3.706   7.808   6.401  0.0209  0.3810 -0.0791
   36MOL   C38738257   3.623   7.813   6.154  0.6559 -0.6445  0.2107
   36MOL   C38838258   3.733   7.796   6.076  0.3357  0.2424  0.3259
   36MOL   C38938259   3.750   7.863   5.948 -0.3422  0.6248 -0.1174
   36MOL   C39038260   3.644   7.944   5.914 -0.6082 -0.1005 -0.5626
   36MOL   O39138261   3.645   8.010   5.795  0.0423 -0.5958 -0.1714
   36MOL   C39238262   3.681   8.143   5.792  0.0487  0.3215  0.1262
   36MOL   C39338263   3.581   8.235   5.816 -0.3001 -0.0182 -0.3845
   36MOL   C39438264   3.613   0.123   5.815 -0.0568  0.4899 -0.3156
   36MOL   C39538265   3.746   0.166   5.788 -0.0060  0.7824 -0.2649
   36MOL   C39638266   3.780   0.313   5.784  0.4395  0.8478  0.1433
   36MOL   C39738267   3.934   0.343   5.774  0.4920 -0.5483 -0.3138
   36MOL   C39838268   3.711   0.378   5.661 -1.0890 -0.0344  0.5491
   36MOL   C39938269   3.745   0.382   5.916  0.1485  0.5027  0.0827
   36MOL   C40038270   3.655   0.490   5.921  0.1277  0.1458  0.4170
   36MOL   C40138271   3.626   0.554   6.039 -0.6790 -0.4070 -0.3936
   36MOL   C40238272   3.669   0.500   6.161 -0.4284 -0.4453 -0.6003
   36MOL   O40338273   3.625   0.556   6.284 -0.3211 -0.1933 -0.0454
   36MOL   C40438274   3.762   0.394   6.168 -0.0284 -0.1296 -0.2757
   36MOL   C40538275   3.799   0.335   6.039 -0.6012 -0.4595 -0.2871
   36MOL   C40638276   3.842   0.068   5.750 -0.2820  0.1547  0.3060
   36MOL   C40738277   3.810   8.185   5.763  0.3201 -0.1140 -0.3919
   36MOL   C40838278   3.526   7.954   5.986 -0.2326 -0.4341 -0.3452
   36MOL   C40938279   3.514   7.890   6.111 -0.0164 -0.0363  0.2507
   36MOL   C41038280   3.406   7.799   6.427  0.0593  0.2179  0.2966
   36MOL   C41138281   3.272   7.781   6.476  0.3600  0.2192  0.0843
   36MOL   H41238282   3.213   7.464   6.359 -0.6291 -0.1611  0.2434
   36MOL   H41338283   3.452   7.496   6.284  1.4250  2.3009 -1.0721
   36MOL   H41438284   3.816   7.733   6.105  0.2200  0.4428  1.1031
   36MOL   H41538285   3.842   7.865   5.891  0.5211  0.3944  1.2470
   36MOL   H41638286   3.475   8.214   5.829 -0.4054  1.1587  0.7071
   36MOL   H41738287   3.540   0.200   5.833 -0.2731  0.1314  0.3786
   36MOL   H41838288   4.002   0.283   5.835 -0.3798 -1.1922  0.0423
   36MOL   H41938289   3.960   0.449   5.778 -0.8140 -0.2003 -0.9123
   36MOL   H42038290   3.962   0.323   5.671  0.0547 -1.6247 -0.2261
   36MOL   H42138291   3.739   0.329   5.568  4.1675 -0.9512  2.4765
   36MOL   H42238292   3.604   0.373   5.682 -1.2225 -0.8969 -0.3059
   36MOL   H42338293   3.745   0.481   5.658  2.7446 -1.2422 -0.5338
   36MOL   H42438294   3.606   0.542   5.840  0.4265  0.8101  0.6627
   36MOL   H42538295   3.560   0.639   6.029 -1.1647 -0.7721 -0.3257
   36MOL   H42638296   3.794   0.345   6.259  0.3343 -1.7435 -1.2459
   36MOL   H42738297   3.876   0.261   6.025 -0.0653  0.0883 -0.2152
   36MOL   H42838298   3.947   0.088   5.734  0.0495 -0.3645  1.7330
   36MOL   H42938299   3.890   8.116   5.741  0.3359  0.5575 -2.5534
   36MOL   H43038300   3.444   8.021   5.965 -0.1147 -0.2794 -0.3096
   36MOL   H43138301   3.436   7.912   6.183  0.5373 -0.9267  1.1335
   36MOL   H43238302   3.450   7.898   6.425 -3.0538  1.6644 -2.9225
   36MOL   H43338303   3.229   7.869   6.521  0.6980  0.5682 -0.2687
   36MOL   C43438304   3.495   0.539   6.332 -0.5784 -0.0686 -1.1071
   36MOL   C43538305   3.435   0.641   6.409 -0.3535  0.0121  0.1391
   36MOL   C43638306   3.304   0.617   6.464 -0.0386  0.1977  0.1638
   36MOL   C43738307   3.238   0.497   6.442  0.0172 -0.2606  0.5965
   36MOL   S43838308   3.069   0.473   6.489 -0.5842  0.0153 -0.1207
   36MOL   O43938309   3.020   0.353   6.413  0.0133  0.4032  0.2762
   36MOL   O44038310   3.008   0.604   6.479  0.6144  0.1110 -0.1615
   36MOL   C44138311   3.092   0.437   6.663  1.3377  0.4919  0.3129
   36MOL   C44238312   3.122   0.548   6.746 -0.5391  0.4391  0.2112
   36MOL   C44338313   3.136   0.534   6.886  0.8305  0.8855  0.2667
   36MOL   C44438314   3.117   0.407   6.943 -0.6534 -0.0772 -0.2997
   36MOL   O44538315   3.122   0.385   7.083 -0.0702  0.5722 -0.1691
   36MOL   C44638316   3.243   0.344   7.130 -0.2056 -0.0028  0.0525
   36MOL   C44738317   3.350   0.439   7.139  0.5388 -0.2986 -0.6494
   36MOL   C44838318   3.479   0.395   7.176  0.1146  0.3085 -0.2919
   36MOL   C44938319   3.502   0.261   7.215  0.0066  0.0230  0.2453
   36MOL   C45038320   3.650   0.215   7.250  0.7715 -0.1776  0.3859
   36MOL   C45138321   3.684   0.123   7.131 -0.2297  0.7305  0.5349
   36MOL   C45238322   3.755   0.339   7.260 -0.2379 -0.7487  0.5210
   36MOL   C45338323   3.659   0.133   7.383 -0.1508  0.4383  0.1653
   36MOL   C45438324   3.760   0.031   7.404 -0.7323 -0.6906  0.3267
   36MOL   C45538325   3.755   8.201   7.516 -0.2615 -0.5095  0.6571
   36MOL   C45638326   3.654   8.206   7.609 -0.2972 -0.9082 -0.0723
   36MOL   O45738327   3.638   8.106   7.709  0.7572 -0.3209 -0.1555
   36MOL   C45838328   3.559   0.055   7.586 -0.3032 -0.5371 -0.0170
   36MOL   C45938329   3.562   0.147   7.479  0.4483  0.0807  0.0985
   36MOL   C46038330   3.393   0.168   7.206 -0.4014  0.0786 -0.8107
   36MOL   C46138331   3.265   0.210   7.166  0.1736  0.8976  1.0086
   36MOL   C46238332   3.078   0.303   6.864 -0.4995  0.7319 -0.2116
   36MOL   C46338333   3.074   0.307   6.726  0.3285  0.1526 -0.5303
   36MOL   C46438334   3.299   0.397   6.369 -0.6458 -0.3103  0.3247
   36MOL   C46538335   3.427   0.411   6.316 -0.4853 -0.2800  0.5090
   36MOL   H46638336   3.488   0.733   6.429  0.2368  0.0270 -1.4572
   36MOL   H46738337   3.261   0.699   6.521  0.0832  0.1198  0.3703
   36MOL   H46838338   3.121   0.652   6.717  1.4588 -0.0853 -1.8973
   36MOL   H46938339   3.161   0.617   6.951 -0.7316  1.7301 -0.1798
   36MOL   H47038340   3.332   0.542   7.112  2.3549 -0.0953 -1.1606
   36MOL   H47138341   3.553   0.473   7.183  0.4294  0.0117 -0.3341
   36MOL   H47238342   3.616   0.038   7.133 -1.8870  1.9948 -0.7116
   36MOL   H47338343   3.786   0.084   7.136 -0.4318 -0.4619 -3.0484
   36MOL   H47438344   3.667   0.175   7.037 -1.4187 -0.4238  0.0903
   36MOL   H47538345   3.725   0.405   7.342  0.1097  0.1235 -0.0416
   36MOL   H47638346   3.860   0.310   7.273  0.1439 -0.1579 -1.1867
   36MOL   H47738347   3.761   0.392   7.165  0.8574 -0.5148  0.7011
   36MOL   H47838348   3.842   0.016   7.335  0.6638 -4.0854  2.5769
   36MOL   H47938349   3.830   8.124   7.510  0.6539  0.4407 -0.5096
   36MOL   H48038350   3.474   0.061   7.652  1.1814  0.6475  1.8513
   36MOL   H48138351   3.487   0.225   7.478  0.9641  0.5803  0.1302
   36MOL   H48238352   3.431   0.068   7.225  0.1011  0.5781  0.9147
   36MOL   H48338353   3.194   0.132   7.143  1.1889  0.5191 -0.9184
   36MOL   H48438354   3.065   0.213   6.922 -1.0375  2.0517  1.7620
   36MOL   H48538355   3.047   0.213   6.681 -1.8398  1.0504 -1.1341
   36MOL   H48638356   3.254   0.302   6.345 -1.9935  0.4074 -0.0315
   36MOL   H48738357   3.475   0.335   6.255  0.7194  1.0022 -0.1754
   36MOL   C48838358   3.535   8.018   7.683 -0.3250  0.7291  0.3161
   36MOL   C48938359   3.463   7.964   7.788 -0.5651 -0.7412  0.3271
   36MOL   C49038360   3.349   7.883   7.764  0.0071 -0.2244 -0.1130
   36MOL   C49138361   3.297   7.860   7.637 -0.4133 -0.0044  0.0278
   36MOL   S49238362   3.157   7.756   7.609  0.2325  0.5129  0.2547
   36MOL   O49338363   3.058   7.817   7.693  0.6721 -0.1644  0.1805
   36MOL   O49438364   3.199   7.615   7.632  0.0669 -0.1544 -0.2208
   36MOL   C49538365   3.122   7.770   7.431  0.2520 -0.4345 -0.4177
   36MOL   C49638366   3.044   7.882   7.385 -0.3163 -0.3394  0.4366
   36MOL   C49738367   3.029   7.912   7.247  0.3455  0.0237 -0.5422
   36MOL   C49838368   3.091   7.816   7.158  0.8706  0.0877 -0.2127
   36MOL   O49938369   3.092   7.848   7.023  0.5684  0.3149  0.4568
   36MOL   C50038370   3.195   7.929   6.986 -0.3257  0.4514 -0.2209
   36MOL   C50138371   3.331   7.886   7.005 -0.0841  0.3599 -0.1914
   36MOL   C50238372   3.426   7.962   6.937  0.1438 -0.0409  0.1136
   36MOL   C50338373   3.395   8.083   6.870  0.7554 -0.7693 -0.2197
   36MOL   C50438374   3.498   8.140   6.776  0.5159 -0.0213  0.2574
   36MOL   C50538375   3.640   8.137   6.837 -0.1669  0.3893  0.2923
   36MOL   C50638376   3.496   8.052   6.651  0.8073  0.5884 -0.2995
   36MOL   C50738377   3.474   0.035   6.734 -0.8470 -0.3546  0.3827
   36MOL   C50838378   3.522   0.087   6.608 -0.3183  0.5635 -1.1014
   36MOL   C50938379   3.530   0.230   6.591  0.3598 -0.3547 -0.0621
   36MOL   C51038380   3.493   0.322   6.694 -0.1019 -0.2116  0.1921
   36MOL   O51138381   3.510   0.457   6.688  0.1092 -0.0399  0.2829
   36MOL   C51238382   3.442   0.265   6.814 -0.6525 -0.0440  0.3627
   36MOL   C51338383   3.430   0.126   6.836  0.0879 -0.3245  0.6789
   36MOL   C51438384   3.260   8.125   6.868  1.0198  0.4892 -0.3601
   36MOL   C51538385   3.155   8.040   6.913 -0.1110  0.0309 -0.2700
   36MOL   C51638386   3.159   7.700   7.207  0.0882  0.6583  0.4668
   36MOL   C51738387   3.184   7.683   7.344  0.4964  0.5080  0.0964
   36MOL   C51838388   3.372   7.919   7.527  0.0110 -0.1424 -0.1240
   36MOL   C51938389   3.486   7.988   7.549 -0.2213  0.3531 -0.6513
   36MOL   H52038390   3.488   8.000   7.887 -1.4951 -1.4639  0.8344
   36MOL   H52138391   3.294   7.839   7.846 -0.2201 -0.8459 -0.5993
   36MOL   H52238392   3.004   7.954   7.455  0.7047 -0.2831  0.9684
   36MOL   H52338393   2.977   7.992   7.197 -1.0504 -1.1983 -1.0676
   36MOL   H52438394   3.364   7.801   7.062 -0.7520  1.1978  1.4809
   36MOL   H52538395   3.525   7.920   6.938  0.3211  0.3758  0.7985
   36MOL   H52638396   3.710   8.190   6.772 -1.2495  4.1558  2.0570
   36MOL   H52738397   3.684   8.039   6.854  0.1960  0.5215  0.1027
   36MOL   H52838398   3.644   8.186   6.935  0.1792 -1.4625  1.2225
   36MOL   H52938399   3.393   8.033   6.620  1.1737 -1.3400 -0.4429
   36MOL   H53038400   3.561   8.075   6.566  2.2762  3.8435  1.6232
   36MOL   H53138401   3.526   7.952   6.684 -1.9808  0.3923  1.8118
   36MOL   H53238402   3.568   0.028   6.530 -0.9251 -0.5826 -0.6063
   36MOL   H53338403   3.587   0.261   6.505  0.1617  1.7309  0.5249
   36MOL   H53438404   3.411   0.334   6.892 -2.6271 -0.2736 -0.1751
   36MOL   H53538405   3.392   0.081   6.926  0.8176 -3.1765 -0.3651
   36MOL   H53638406   3.235   8.209   6.806  1.0745  0.3299 -0.6010
   36MOL   H53738407   3.054   8.071   6.889  0.1323 -0.3644 -1.8400
   36MOL   H53838408   3.203   7.636   7.131  0.8992  0.4955  1.0678
   36MOL   H53938409   3.250   7.605   7.380  0.1404  0.0659 -0.2021
   36MOL   H54038410   3.341   7.901   7.425  0.4797 -2.7749  0.1568
   36MOL   H54138411   3.541   8.031   7.466  0.4925  0.1972 -0.2603
   36MOL   C54238412   3.603   0.517   6.773 -0.1514  0.3818  0.2937
   36MOL   C54338413   3.558   0.609   6.870  0.1637 -0.2222  0.0069
   36MOL   C54438414   3.653   0.654   6.964  0.9159  0.2726  0.8132
   36MOL   C54538415   3.785   0.605   6.960  0.2531  0.1472 -0.0693
   36MOL   S54638416   3.897   0.662   7.085  0.3149  0.1249 -0.5250
   36MOL   O54738417   4.005   0.561   7.091  0.0605  0.0196 -0.3005
   36MOL   O54838418   3.804   0.685   7.198  0.0446  0.3530 -0.3784
   36MOL   C54938419   3.963   0.821   7.033  0.6121  0.1205  0.1070
   36MOL   C55038420   3.953   0.923   7.125  0.6728  0.3336  0.1328
   36MOL   C55138421   4.016   1.051   7.102  0.6210 -0.6090 -0.6211
   36MOL   C55238422   4.074   1.073   6.978  0.0532 -0.3289 -0.0895
   36MOL   O55338423   4.134   1.197   6.936 -0.4012 -0.6815 -0.2248
   36MOL   C55438424   4.199   1.266   7.035  0.7972 -0.5265 -0.0521
   36MOL   C55538425   4.148   1.395   7.076 -0.3184  0.3606 -0.0948
   36MOL   C55638426   4.215   1.476   7.167  0.0286  0.2380  0.1719
   36MOL   C55738427   4.338   1.423   7.222  0.7573  0.8729 -0.6133
   36MOL   C55838428   4.432   1.518   7.304  0.0955 -0.0885  0.1958
   36MOL   C55938429   4.353   1.571   7.425 -0.0326  0.1127 -0.5572
   36MOL   C56038430   4.557   1.448   7.366 -0.1388 -0.8451  0.3364
   36MOL   C56138431   4.468   1.631   7.213 -0.4641 -0.0110  0.5679
   36MOL   C56238432   4.567   1.609   7.114  0.5046 -0.0788  0.0215
   36MOL   C56338433   4.607   1.709   7.022  0.6448  0.0143 -0.0454
   36MOL   C56438434   4.567   1.844   7.045 -0.2358  0.1188 -0.0647
   36MOL   O56538435   4.630   1.939   6.968  0.4968  0.7069  0.1936
   36MOL   C56638436   4.476   1.869   7.147  0.0065 -0.1377 -0.2546
   36MOL   C56738437   4.420   1.766   7.224 -0.0242 -0.1060 -0.1917
   36MOL   C56838438   4.390   1.296   7.184 -0.4647  0.0593 -0.0681
   36MOL   C56938439   4.320   1.225   7.083 -0.4411  0.1182 -0.7498
   36MOL   C57038440   4.076   0.971   6.880  0.3893  0.1987 -0.3277
   36MOL   C57138441   4.023   0.839   6.907 -0.0550 -0.7516 -0.0946
   36MOL   C57238442   3.833   0.520   6.866  0.1170  0.2725  0.4141
   36MOL   C57338443   3.741   0.471   6.766  0.6894 -0.0077 -0.3322
   36MOL   H57438444   3.455   0.641   6.863 -1.0900 -3.8841  0.7586
   36MOL   H57538445   3.611   0.722   7.036 -0.2805 -0.5807  0.9221
   36MOL   H57638446   3.911   0.906   7.223  1.2698  1.2554  0.5559
   36MOL   H57738447   4.004   1.124   7.181  1.7927 -0.9273 -0.1356
   36MOL   H57838448   4.062   1.439   7.027 -0.7606  0.1085  0.4477
   36MOL   H57938449   4.179   1.577   7.177  1.4126  1.0121 -2.2630
   36MOL   H58038450   4.254   1.605   7.397 -0.9488 -1.0533  1.1598
   36MOL   H58138451   4.389   1.659   7.477 -0.1480 -0.2856  0.2103
   36MOL   H58238452   4.341   1.487   7.493 -1.5476  0.1773 -0.7264
   36MOL   H58338453   4.630   1.404   7.298  1.6781  0.3474  1.4697
   36MOL   H58438454   4.623   1.517   7.419 -1.6329  0.6631  0.2774
   36MOL   H58538455   4.529   1.380   7.447  1.6635 -1.2096  0.6792
   36MOL   H58638456   4.599   1.510   7.088 -1.9731 -0.4114 -1.8854
   36MOL   H58738457   4.665   1.679   6.936  1.2930  0.9654  0.0502
   36MOL   H58838458   4.449   1.972   7.169 -0.3303 -0.7549  2.3018
   36MOL   H58938459   4.354   1.793   7.305  0.6921 -0.2365  0.4500
   36MOL   H59038460   4.486   1.258   7.214 -0.7771 -0.7803 -0.1205
   36MOL   H59138461   4.368   1.136   7.046 -0.1664 -0.0645  0.0319
   36MOL   H59238462   4.127   0.993   6.787  2.8348  3.6448  1.6826
   36MOL   H59338463   4.022   0.772   6.822 -2.4660  0.7570 -1.3405
   36MOL   H59438464   3.938   0.498   6.873  0.0307 -0.0919  0.5673
   36MOL   H59538465   3.770   0.391   6.699  2.3507  0.5379 -0.2849
   36MOL   C59638466   4.721   2.011   7.032  0.7820  0.7653 -0.1102
   36MOL   C59738467   4.856   1.963   7.023  0.0673 -0.8145 -0.0141
   36MOL   C59838468   4.954   2.037   7.090  0.0743  0.7896  0.3096
   36MOL   C59938469   4.921   2.150   7.167  0.6304  0.2990 -0.8659
   36MOL   S60038470   5.050   2.230   7.263 -0.4166 -0.1979 -0.2394
   36MOL   O60138471   5.003   2.365   7.295  0.3198  0.5949  0.0520
   36MOL   O60238472   5.176   2.212   7.192  0.2836  0.2998  0.3398
   36MOL   C60338473   5.055   2.134   7.416 -0.2879  0.4331 -0.3747
   36MOL   C60438474   4.977   2.183   7.524 -0.2618  0.2469  0.1388
   36MOL   C60538475   4.968   2.115   7.643  0.0894 -0.6638 -0.4348
   36MOL   C60638476   5.029   1.985   7.657 -0.6593  0.6037 -0.4523
   36MOL   O60738477   5.008   1.908   7.767 -0.4180 -0.0395 -0.4013
   36MOL   C60838478   5.017   1.773   7.775  0.0366  0.1818  0.4940
   36MOL   C60938479   5.132   1.717   7.832  0.0623  0.6843 -0.0037
   36MOL   C61038480   5.145   1.580   7.840  0.2230 -0.0925  0.2122
   36MOL   C61138481   5.036   1.493   7.797  0.4873 -0.6299 -0.1128
   36MOL   C61238482   5.037   1.343   7.834  0.8867  0.5138 -0.1498
   36MOL   C61338483   5.038   1.269   7.701 -0.0119  0.6759  0.3030
   36MOL   C61438484   5.162   1.294   7.911 -0.4543 -0.4247 -0.0823
   36MOL   C61538485   4.909   1.303   7.912 -0.0684 -0.5439  0.0712
   36MOL   C61638486   4.881   1.372   8.031  0.0982  0.2094 -0.1789
   36MOL   C61738487   4.776   1.333   8.111 -0.2073 -0.1030 -0.7319
   36MOL   C61838488   4.690   1.230   8.075  0.0588  0.3846 -0.9606
   36MOL   O61938489   4.593   1.181   8.156 -0.1875  0.1139  0.1298
   36MOL   C62038490   4.712   1.160   7.955  0.3307 -0.0583 -0.1543
   36MOL   C62138491   4.825   1.194   7.876  0.9560 -0.4416  0.0230
   36MOL   C62238492   4.930   1.551   7.720  0.0584  0.4652 -0.2555
   36MOL   C62338493   4.915   1.693   7.711 -0.2484 -0.2986  0.1778
   36MOL   C62438494   5.117   1.937   7.554  0.5871 -0.6298  0.0446
   36MOL   C62538495   5.132   2.020   7.437  0.1083 -0.3097  0.7185
   36MOL   C62638496   4.785   2.189   7.184 -0.3750 -0.7786  0.5480
   36MOL   C62738497   4.683   2.124   7.112  0.3619  0.6866  0.4581
   36MOL   H62838498   4.893   1.882   6.962  1.0379 -0.0036 -0.5230
   36MOL   H62938499   5.056   2.004   7.083 -0.2043  0.0750 -0.5250
   36MOL   H63038500   4.917   2.272   7.513 -0.3055  0.1810 -0.1431
   36MOL   H63138501   4.910   2.157   7.724  1.9596 -1.1556  1.2183
   36MOL   H63238502   5.210   1.781   7.871  0.3005 -0.7634  1.9352
   36MOL   H63338503   5.234   1.538   7.883  1.1010 -0.9695 -2.3650
   36MOL   H63438504   5.045   1.163   7.722 -2.1005  0.5716  0.6433
   36MOL   H63538505   5.114   1.292   7.626 -2.4935 -0.4370 -2.6655
   36MOL   H63638506   4.947   1.281   7.642 -0.2898 -2.6903 -0.0472
   36MOL   H63738507   5.160   1.189   7.940 -0.7742 -0.9187 -1.7998
   36MOL   H63838508   5.244   1.305   7.839 -0.7803 -0.7628 -0.5092
   36MOL   H63938509   5.180   1.356   7.998  2.1413 -2.4591  0.8946
   36MOL   H64038510   4.937   1.461   8.055 -1.1409  0.5069  1.7769
   36MOL   H64138511   4.770   1.392   8.202 -0.6638  0.1897 -0.9512
   36MOL   H64238512   4.641   1.087   7.920  0.5875 -0.9797  1.2220
   36MOL   H64338513   4.847   1.148   7.781 -0.4435 -1.1516  0.0277
   36MOL   H64438514   4.850   1.486   7.685  0.6427  0.1389 -1.0023
   36MOL   H64538515   4.825   1.732   7.666 -0.1800 -0.9367 -0.5100
   36MOL   H64638516   5.173   1.846   7.571 -1.9384 -1.8258  2.3798
   36MOL   H64738517   5.191   1.990   7.352 -3.0769  1.3317 -2.1656
   36MOL   H64838518   4.771   2.273   7.250  2.4103  2.1389 -2.3624
   36MOL   H64938519   4.579   2.154   7.124  0.7870  1.8917  1.1820
   36MOL   C65038520   4.485   1.264   8.184 -0.1745  0.7692  0.6423
   36MOL   C65138521   4.377   1.259   8.100 -0.2616 -0.2669 -0.0695
   36MOL   C65238522   4.267   1.351   8.117  0.5384 -0.1105 -0.5979
   36MOL   C65338523   4.273   1.448   8.222  0.5484  0.2740  0.6166
   36MOL   S65438524   4.149   1.574   8.230 -0.6876 -0.1902  0.5292
   36MOL   O65538525   4.040   1.557   8.128  0.7485 -0.5002 -0.1049
   36MOL   O65638526   4.220   1.699   8.241  0.3010 -0.1726  0.2013
   36MOL   C65738527   4.079   1.541   0.141 -0.4902 -0.7117 -0.5466
   36MOL   C65838528   4.074   1.415   0.199  0.3646 -0.1333 -0.1513
   36MOL   C65938529   4.032   1.390   0.333  0.1625  0.1989  0.2960
   36MOL   C66038530   4.000   1.504   0.416 -0.4641 -0.3339 -0.0630
   36MOL   O66138531   3.964   1.504   0.545  0.5185  0.2112  0.2739
   36MOL   C66238532   3.867   1.412   0.584 -0.6891 -0.1116  0.1435
   36MOL   C66338533   3.728   1.432   0.561  0.4977 -0.5662  0.4525
   36MOL   C66438534   3.641   1.329   0.587 -0.3453 -0.6879  0.1488
   36MOL   C66538535   3.689   1.202   0.619  0.1398  0.2526 -0.4670
   36MOL   C66638536   3.591   1.083   0.637 -0.1385 -0.3019 -0.3730
   36MOL   C66738537   3.495   1.067   0.514 -0.2514  0.0515 -0.5784
   36MOL   C66838538   3.649   0.939   0.656 -0.2772  0.3488 -0.4872
   36MOL   C66938539   3.506   1.117   0.762  0.6426 -0.3605 -0.3444
   36MOL   C67038540   3.364   1.137   0.763  0.3426  0.4724 -1.0856
   36MOL   C67138541   3.297   1.159   0.886 -0.6304 -0.3719  0.7587
   36MOL   C67238542   3.370   1.169   1.009  0.4605 -0.0987  0.4239
   36MOL   O67338543   3.302   1.183   1.123 -0.1154 -0.5013 -0.1500
   36MOL   C67438544   3.511   1.162   1.003 -0.0577 -0.0945  0.3873
   36MOL   C67538545   3.574   1.129   0.880  0.5916  0.3296 -0.2570
   36MOL   C67638546   3.822   1.186   0.645 -0.1289  0.0857 -0.0704
   36MOL   C67738547   3.912   1.294   0.640 -0.3870 -0.0660  0.4006
   36MOL   C67838548   4.018   1.636   0.356 -0.0034  0.0656  0.5308
   36MOL   C67938549   4.053   1.648   0.224 -0.1047  0.1806 -0.4291
   36MOL   C68038550   4.385   1.455   0.053 -0.1677 -0.0069  0.2773
   36MOL   C68138551   4.493   1.360   0.033 -0.6381  0.2901  0.2146
   36MOL   H68238552   4.375   1.191   8.016 -2.2252 -1.6867  1.0500
   36MOL   H68338553   4.175   1.367   8.063  0.2151  1.2902  0.3347
   36MOL   H68438554   4.103   1.334   0.133  1.6921  2.1087 -2.3919
   36MOL   H68538555   4.021   1.291   0.375 -1.5613 -0.1467 -0.8893
   36MOL   H68638556   3.685   1.512   0.504 -0.5767 -0.2932  1.6090
   36MOL   H68738557   3.536   1.350   0.573 -0.0865  0.8125  0.3288
   36MOL   H68838558   3.549   1.028   0.427 -2.2344  0.6950 -2.1426
   36MOL   H68938559   3.448   1.162   0.485 -1.5516 -0.8274 -1.4152
   36MOL   H69038560   3.409   1.002   0.529  0.5026 -0.5245  1.3561
   36MOL   H69138561   3.711   0.903   0.573 -1.0687  1.9234 -1.7672
   36MOL   H69238562   3.715   0.945   0.743  1.3113 -1.3075 -1.5313
   36MOL   H69338563   3.574   0.862   0.672 -1.0384  0.9265 -1.2614
   36MOL   H69438564   3.303   1.127   0.675 -2.9154  0.9069  1.0426
   36MOL   H69538565   3.190   1.174   0.882 -0.4077  0.8177 -2.5477
   36MOL   H69638566   3.576   1.189   1.084 -0.6195 -0.2902  0.9111
   36MOL   H69738567   3.682   1.133   0.880  0.5779  0.6393 -0.0223
   36MOL   H69838568   3.863   1.089   0.671 -0.1453  0.6995  2.2884
   36MOL   H69938569   4.013   1.284   0.676 -0.2926  0.7162  0.3536
   36MOL   H70038570   3.994   1.721   0.419 -3.1125 -0.9766  0.8580
   36MOL   H70138571   4.056   1.745   0.176 -0.5828  1.6080  2.3392
   36MOL   H70238572   4.393   1.536   0.123 -0.4502 -1.4781  2.0473
   36MOL   H70338573   4.583   1.361   0.092  0.0614  0.3687 -0.8401
   36MOL   C70438574   3.205   1.088   1.160 -1.1668 -0.5599  0.3660
   36MOL   C70538575   3.250   0.955   1.179  0.1766 -0.2505 -0.6265
   36MOL   C70638576   3.152   0.855   1.218  0.2674 -0.0340 -0.7516
   36MOL   C70738577   3.018   0.897   1.220  0.6004 -0.0906 -0.0897
   36MOL   S70838578   2.895   0.775   1.265  0.2172 -0.1523 -0.3029
   36MOL   O70938579   2.953   0.653   1.208 -0.4333 -0.2510 -0.4068
   36MOL   O71038580   2.762   0.817   1.227 -0.3825 -0.1795  0.1176
   36MOL   C71138581   2.886   0.754   1.444 -0.7979 -0.2359 -0.0638
   36MOL   C71238582   2.852   0.628   1.498 -0.1174 -0.1866  0.4741
   36MOL   C71338583   2.877   0.604   1.634  0.6559  0.4635  0.7615
   36MOL   C71438584   2.927   0.704   1.722  0.3497  0.1839  0.2317
   36MOL   O71538585   2.954   0.687   1.852  0.1761 -0.3841  0.1361
   36MOL   C71638586   2.860   0.706   1.949 -0.6640  0.0341  1.0525
   36MOL   C71738587   2.859   0.825   2.018  0.3726  0.4760  0.4177
   36MOL   C71838588   2.763   0.846   2.122  0.2366  0.1957 -0.2303
   36MOL   C71938589   2.662   0.746   2.145 -0.2789  0.6140  0.0118
   36MOL   C72038590   2.563   0.761   2.269  0.2639 -0.5539  0.5580
   36MOL   C72138591   2.620   0.686   2.382 -0.4030  0.2010 -0.3345
   36MOL   C72238592   2.541   0.907   2.304  0.5124  0.3244 -0.0350
   36MOL   C72338593   2.425   0.699   2.221 -0.6950 -0.2350 -0.2813
   36MOL   C72438594   2.356   0.740   2.108  0.3746 -0.1744  0.5542
   36MOL   C72538595   2.233   0.690   2.071  0.0054 -0.2091  0.6800
   36MOL   C72638596   2.176   0.581   2.142 -0.8058 -0.3250 -0.0023
   36MOL   O72738597   2.060   0.522   2.116 -0.1071 -0.6354  0.7295
   36MOL   C72838598   2.242   0.541   2.256 -0.5559  0.7440  0.1103
   36MOL   C72938599   2.362   0.600   2.296 -0.0878  0.6354 -0.8231
   36MOL   C73038600   2.659   0.632   2.068  0.0636  0.1186  0.3628
   36MOL   C73138601   2.764   0.608   1.973 -0.5392  0.1427  0.2619
   36MOL   C73238602   2.951   0.833   1.677 -0.7554  0.6531  0.2307
   36MOL   C73338603   2.939   0.855   1.535 -1.1305  0.0092  0.3770
   36MOL   C73438604   2.972   1.027   1.188 -0.5933 -0.2648  0.3033
   36MOL   C73538605   3.070   1.122   1.162 -0.2744 -0.3064  0.0191
   36MOL   H73638606   3.350   0.919   1.157 -0.5765 -1.5385 -1.9696
   36MOL   H73738607   3.176   0.750   1.231  0.5039  0.4687  3.6208
   36MOL   H73838608   2.814   0.550   1.433 -4.3535  2.3309 -0.2648
   36MOL   H73938609   2.865   0.502   1.667 -0.4448  0.7398  1.2333
   36MOL   H74038610   2.932   0.899   1.991  0.6622 -0.9784 -3.1265
   36MOL   H74138611   2.762   0.939   2.176 -0.3234  0.3938 -0.5728
   36MOL   H74238612   2.572   0.711   2.477 -2.2085 -0.6018 -1.0366
   36MOL   H74338613   2.721   0.716   2.412 -1.4010  2.5173  0.8415
   36MOL   H74438614   2.613   0.577   2.374 -0.8264  0.0846  1.3297
   36MOL   H74538615   2.514   0.971   2.220  0.0946  1.3087  0.8460
   36MOL   H74638616   2.468   0.916   2.384  0.3510  1.1788 -0.2733
   36MOL   H74738617   2.629   0.948   2.352 -0.6923  1.8803  0.8829
   36MOL   H74838618   2.396   0.817   2.043  0.0268 -0.3773  0.0995
   36MOL   H74938619   2.190   0.726   1.978  1.8516  3.3255  1.1174
   36MOL   H75038620   2.208   0.461   2.320  1.0756  0.9704  1.2844
   36MOL   H75138621   2.406   0.558   2.386 -0.6109  0.3476 -0.7017
   36MOL   H75238622   2.592   0.549   2.085 -3.3245  2.4726 -0.8843
   36MOL   H75338623   2.772   0.519   1.914  3.8510  0.1449  0.6788
   36MOL   H75438624   3.000   0.906   1.739 -0.8117 -0.2864  1.4132
   36MOL   H75538625   2.961   0.948   1.486  1.2446 -1.3472 -1.2502
   36MOL   H75638626   2.866   1.047   1.189 -0.4286  0.6388  0.2141
   36MOL   H75738627   3.053   1.225   1.137  0.9851  0.1846  1.0851
   36MOL   C75838628   1.939   0.569   2.163 -0.0098 -0.3042 -0.7773
   36MOL   C75938629   1.921   0.640   2.286 -0.5186 -0.1512 -0.5586
   36MOL   C76038630   1.797   0.682   2.335 -0.4016  0.0388  0.0303
   36MOL   C76138631   1.682   0.661   2.258 -0.2162 -0.0083 -0.4476
   36MOL   S76238632   1.527   0.716   2.329  0.1644 -0.0690 -0.0620
   36MOL   O76338633   1.426   0.634   2.258  0.1150 -0.3299  0.2747
   36MOL   O76438634   1.526   0.863   2.324 -0.8503  0.0563  0.1641
   36MOL   C76538635   1.534   0.657   2.503  0.3068 -0.0968  0.4794
   36MOL   C76638636   1.525   0.749   2.611 -0.1649 -0.1632  0.8697
   36MOL   C76738637   1.527   0.700   2.746  0.0892  1.0090  0.1776
   36MOL   C76838638   1.526   0.560   2.771 -0.8529  0.4441  0.4810
   36MOL   O76938639   1.526   0.513   2.904 -0.4942 -0.0920  0.5371
   36MOL   C77038640   1.526   0.587   3.019  1.0082 -0.3491 -0.0515
   36MOL   C77138641   1.639   0.591   3.100  0.3403  0.5464 -0.2349
   36MOL   C77238642   1.640   0.676   3.213 -0.4699 -0.3301 -0.4792
   36MOL   C77338643   1.529   0.761   3.246 -0.7565 -0.0975 -0.0087
   36MOL   C77438644   1.538   0.866   3.365  0.1359 -0.4671  0.0992
   36MOL   C77538645   1.536   1.010   3.307 -0.2236  0.4429 -0.2484
   36MOL   C77638646   1.410   0.857   3.448  0.1636  0.5876  0.8191
   36MOL   C77738647   1.663   0.852   3.447  0.4916  0.1975 -0.6550
   36MOL   C77838648   1.787   0.917   3.406 -0.1764  0.3724  0.3044
   36MOL   C77938649   1.903   0.889   3.477 -0.6363  1.0912 -0.5596
   36MOL   C78038650   1.905   0.801   3.588 -0.0855 -0.0946  0.4828
   36MOL   O78138651   2.026   0.761   3.637 -0.3962 -0.1479  0.4641
   36MOL   C78238652   1.778   0.759   3.642 -0.8337 -0.2150  0.1691
   36MOL   C78338653   1.663   0.777   3.564 -0.3047 -0.6158 -0.7732
   36MOL   C78438654   1.420   0.754   3.158 -0.3328  0.3590 -0.1483
   36MOL   C78538655   1.415   0.673   3.045 -0.9179 -0.2114  0.6474
   36MOL   C78638656   1.544   0.467   2.666  0.2057 -0.1470  0.5816
   36MOL   C78738657   1.547   0.516   2.533  0.3226  0.3599 -0.0230
   36MOL   C78838658   1.696   0.607   2.127  0.0926 -0.3729 -0.1460
   36MOL   C78938659   1.820   0.561   2.080 -0.3431 -0.0874  0.0732
   36MOL   H79038660   2.007   0.663   2.347 -0.2700 -2.4257 -0.0324
   36MOL   H79138661   1.788   0.731   2.430 -2.4188 -0.7287  0.2587
   36MOL   H79238662   1.528   0.855   2.592  1.1106 -0.4169 -0.4055
   36MOL   H79338663   1.527   0.769   2.829  0.9713  1.0589  0.1425
   36MOL   H79438664   1.729   0.536   3.079 -0.2305 -0.5194  0.0697
   36MOL   H79538665   1.740   0.678   3.254 -0.4402  0.5987 -0.5896
   36MOL   H79638666   1.537   1.086   3.385 -0.3606  0.8030 -0.5950
   36MOL   H79738667   1.439   1.025   3.259 -1.2877  0.4884  1.8502
   36MOL   H79838668   1.614   1.015   3.231  1.2311 -0.6549  1.1525
   36MOL   H79938669   1.315   0.877   3.398  0.6587 -3.6198 -2.0326
   36MOL   H80038670   1.406   0.751   3.472 -0.1087 -0.2908 -2.8187
   36MOL   H80138671   1.420   0.913   3.541  1.1527  0.1674  0.9677
   36MOL   H80238672   1.804   0.978   3.318 -3.1950  0.3438 -0.3780
   36MOL   H80338673   1.994   0.929   3.434  0.1878  0.2292  0.3496
   36MOL   H80438674   1.779   0.689   3.725 -1.0542 -1.7179 -1.0850
   36MOL   H80538675   1.570   0.733   3.598 -0.9903  0.9414 -0.5557
   36MOL   H80638676   1.334   0.817   3.178  2.4125  3.4172  2.6331
   36MOL   H80738677   1.323   0.668   2.988 -0.1354  0.0777 -0.6638
   36MOL   H80838678   1.559   0.360   2.674  0.8396 -0.1792 -0.8654
   36MOL   H80938679   1.556   0.444   2.453  1.6029  1.6298 -1.0499
   36MOL   H81038680   1.613   0.610   2.058 -1.0362  1.5328  1.2567
   36MOL   H81138681   1.822   0.521   1.980 -0.4165 -1.0264  0.4456
   36MOL   C81238682   2.046   0.784   3.772  0.4436  0.3762  0.6595
   36MOL   C81338683   1.993   0.692   3.863 -0.5596  1.1075 -0.2859
   36MOL   C81438684   2.010   0.704   4.007 -0.1865 -0.2589  1.3149
   36MOL   C81538685   2.092   0.810   4.053 -0.5040  0.1707 -0.3306
   36MOL   S81638686   2.139   0.820   4.225 -0.1590 -0.1158  0.2256
   36MOL   O81738687   2.250   0.917   4.230 -0.0131  0.1205 -0.1220
   36MOL   O81838688   2.179   0.688   4.268  0.0956 -0.1872 -0.2504
   36MOL   C81938689   2.015   0.878   4.332  0.8321 -0.5109  0.8937
   36MOL   C82038690   2.034   0.993   4.418 -0.1113  0.6656 -0.3757
   36MOL   C82138691   1.933   1.016   4.521  0.3221  0.4408  0.6904
   36MOL   C82238692   1.827   0.931   4.546  0.1068  0.4142  0.5871
   36MOL   O82338693   1.735   0.957   4.645 -0.0298 -0.4183  0.3013
   36MOL   C82438694   1.662   1.071   4.626  0.0582  0.1699 -0.2484
   36MOL   C82538695   1.576   1.087   4.510  0.0595 -0.6946 -0.4861
   36MOL   C82638696   1.499   1.203   4.498 -0.6382 -0.1648  0.1616
   36MOL   C82738697   1.515   1.310   4.590  0.5884  0.3435  0.0773
   36MOL   C82838698   1.437   1.441   4.562 -0.7538  0.6017 -0.1480
   36MOL   C82938699   1.314   1.446   4.654  0.9660 -0.2363  0.0082
   36MOL   C83038700   1.527   1.561   4.592  1.4373 -0.2949 -0.5630
   36MOL   C83138701   1.397   1.455   4.414 -0.2338 -0.5832  0.2892
   36MOL   C83238702   1.501   1.452   4.320 -0.8724 -0.0154 -0.2591
   36MOL   C83338703   1.470   1.450   4.184  0.2211  0.1132 -0.2315
   36MOL   C83438704   1.336   1.470   4.140  0.1893 -0.3999  0.4654
   36MOL   O83538705   1.297   1.489   4.014  0.2150  0.2372 -0.4188
   36MOL   C83638706   1.238   1.469   4.238  0.0232  0.0115 -0.1608
   36MOL   C83738707   1.264   1.461   4.372  0.2652 -1.0482  0.0187
   36MOL   C83838708   1.589   1.288   4.706 -0.1405 -0.4207  0.3981
   36MOL   C83938709   1.667   1.169   4.729 -0.2667 -0.4888  0.5595
   36MOL   C84038710   1.815   0.818   4.460 -0.1379 -0.2511 -0.1284
   36MOL   C84138711   1.908   0.788   4.359  0.0335 -0.2508  0.0110
   36MOL   C84238712   2.160   0.892   3.963 -0.3379 -0.1840  0.6922
   36MOL   C84338713   2.133   0.885   3.824  0.0775  0.5064  0.1433
   36MOL   H84438714   1.936   0.607   3.831  0.5759  0.6081 -1.0278
   36MOL   H84538715   1.969   0.634   4.078  0.6438 -1.8386  0.2682
   36MOL   H84638716   2.121   1.057   4.413  0.5289 -0.1100  0.5932
   36MOL   H84738717   1.945   1.100   4.589 -1.8564  0.4491  1.0868
   36MOL   H84838718   1.569   1.020   4.426 -0.8222 -1.1209 -0.0783
   36MOL   H84938719   1.436   1.213   4.411 -3.7654  0.6062  2.4237
   36MOL   H85038720   1.339   1.433   4.759  1.6654  0.1626 -0.1043
   36MOL   H85138721   1.243   1.367   4.628  1.5757 -0.7915 -0.0018
   36MOL   H85238722   1.265   1.541   4.637 -0.6137 -0.7461  1.5719
   36MOL   H85338723   1.483   1.656   4.560  3.0589 -0.1802 -2.5367
   36MOL   H85438724   1.549   1.557   4.699 -0.8049 -1.0854 -0.0973
   36MOL   H85538725   1.618   1.565   4.533  2.4976  0.5683  1.0918
   36MOL   H85638726   1.607   1.439   4.334 -1.2623  0.9610  4.2911
   36MOL   H85738727   1.552   1.449   4.113 -0.0855  0.5502 -0.5936
   36MOL   H85838728   1.135   1.488   4.211 -0.2908 -0.3398  0.7626
   36MOL   H85938729   1.186   1.481   4.443  0.4428  1.0087 -0.3186
   36MOL   H86038730   1.598   1.365   4.781 -1.2676 -0.2686  0.3925
   36MOL   H86138731   1.737   1.160   4.810 -0.0197  1.4081  0.5896
   36MOL   H86238732   1.734   0.747   4.474 -1.0715  0.8622  0.1566
   36MOL   H86338733   1.886   0.704   4.295  0.0946 -0.3537  0.1260
   36MOL   H86438734   2.228   0.967   4.000  1.7165 -1.6483 -0.0018
   36MOL   H86538735   2.169   0.961   3.756  0.4481 -0.4004 -0.6990
   36MOL   C86638736   1.282   1.621   3.987 -0.4806 -1.2302 -0.0286
   36MOL   C86738737   1.386   1.683   3.917  0.6565  0.0798  0.7155
   36MOL   C86838738   1.360   1.806   3.846  0.1688  0.8197 -0.3797
   36MOL   C86938739   1.232   1.868   3.850 -0.4747 -0.1829 -0.1863
   36MOL   S87038740   1.191   1.989   3.721  0.0980 -0.0658 -0.3820
   36MOL   O87138741   1.220   2.120   3.774  0.1524 -0.0710  0.0265
   36MOL   O87238742   1.056   1.956   3.675  0.2259 -0.6397  0.3851
   36MOL   C87338743   1.308   1.973   3.589  0.4813  0.0628 -0.1939
   36MOL   C87438744   1.411   2.062   3.572  0.2145  0.4330  0.0093
   36MOL   C87538745   1.521   2.023   3.481  0.0668  0.2063 -0.0043
   36MOL   C87638746   1.503   1.917   3.387 -0.2851  0.3370  0.2849
   36MOL   O87738747   1.598   1.892   3.297 -0.3294  0.1073 -0.2476
   36MOL   C87838748   1.630   1.977   3.195  0.2526  0.3671  0.1092
   36MOL   C87938749   1.555   1.975   3.077 -0.3652  0.1594 -0.3118
   36MOL   C88038750   1.588   2.056   2.964 -0.4637  0.4332 -0.1884
   36MOL   C88138751   1.704   2.141   2.972  0.7746 -0.6117 -0.1469
   36MOL   C88238752   1.734   2.249   2.862 -0.4003  0.4168  0.3622
   36MOL   C88338753   1.886   2.235   2.827  0.0717 -0.5529  0.3796
   36MOL   C88438754   1.656   2.217   2.735  0.4551 -0.0150 -0.1903
   36MOL   C88538755   1.692   2.387   2.907  0.6562 -0.8148 -0.1671
   36MOL   C88638756   1.560   2.411   2.960 -0.0043  0.2828  0.4137
   36MOL   C88738757   1.513   2.534   3.000 -0.2522  0.3761  0.7206
   36MOL   C88838758   1.604   2.647   2.995 -0.4603  0.3572 -0.5324
   36MOL   O88938759   1.572   2.778   3.023  0.0644 -0.2630 -0.3276
   36MOL   C89038760   1.736   2.624   2.953  0.0432  0.1946 -0.1100
   36MOL   C89138761   1.778   2.496   2.910  0.5434  0.0783 -0.0752
   36MOL   C89238762   1.774   2.152   3.097 -0.3613  0.6980 -0.3174
   36MOL   C89338763   1.737   2.073   3.207  0.1078  0.0732  0.5187
   36MOL   C89438764   1.386   1.841   3.397 -0.0065 -0.1573  0.0113
   36MOL   C89538765   1.292   1.859   3.502  0.1173 -0.3515  0.0656
   36MOL   C89638766   1.133   1.804   3.926  0.2368  0.0715  0.7626
   36MOL   C89738767   1.155   1.682   3.994 -0.9525 -0.4825  0.3997
   36MOL   H89838768   1.477   1.624   3.919  1.2483  0.8261 -1.6684
   36MOL   H89938769   1.436   1.853   3.786 -1.5950  0.1297 -3.2643
   36MOL   H90038770   1.445   2.146   3.630  1.7957  0.1821 -0.5064
   36MOL   H90138771   1.607   2.089   3.478  1.5319 -1.5937  1.2506
   36MOL   H90238772   1.470   1.908   3.076  0.5296 -1.0443 -3.6195
   36MOL   H90338773   1.523   2.049   2.878  0.3887 -3.0085 -0.6315
   36MOL   H90438774   1.913   2.282   2.732 -2.9997  0.0688 -0.2386
   36MOL   H90538775   1.889   2.130   2.800 -0.2764 -0.0038 -1.8428
   36MOL   H90638776   1.962   2.269   2.899 -1.2704  1.6948  0.7806
   36MOL   H90738777   1.679   2.118   2.698 -1.2590 -0.5289  0.0633
   36MOL   H90838778   1.548   2.230   2.746  0.2963 -1.6227  0.2837
   36MOL   H90938779   1.687   2.285   2.656  0.3625  2.8111  2.1007
   36MOL   H91038780   1.495   2.324   2.958 -0.0513  0.3443 -2.1961
   36MOL   H91138781   1.407   2.542   3.022 -1.0729  0.9220 -2.9196
   36MOL   H91238782   1.810   2.702   2.951  1.1115 -0.8143 -1.8175
   36MOL   H91338783   1.883   2.492   2.889  0.4454 -1.5336 -0.3073
   36MOL   H91438784   1.854   2.223   3.108  0.2081  0.2436 -1.4654
   36MOL   H91538785   1.792   2.090   3.298 -0.5242  1.3710  0.6763
   36MOL   H91638786   1.372   1.763   3.323  1.4695  2.1084 -2.7646
   36MOL   H91738787   1.217   1.781   3.506  0.4626 -0.6107  1.6617
   36MOL   H91838788   1.032   1.840   3.925  0.2949  0.2334 -0.6198
   36MOL   H91938789   1.073   1.632   4.044 -1.6072 -2.2264 -2.3393
   36MOL   C92038790   1.550   2.815   3.151  0.2427  0.0806  0.0681
   36MOL   C92138791   1.447   2.762   3.229 -0.0484  0.1452  0.4517
   36MOL   C92238792   1.406   2.825   3.349  1.3347  0.7040 -0.4381
   36MOL   C92338793   1.475   2.937   3.392  0.0928  0.0716  0.2321
   36MOL   S92438794   1.410   3.023   3.531  0.3566 -0.0756  0.0295
   36MOL   O92538795   1.269   2.983   3.544  0.4241  0.3775 -0.3546
   36MOL   O92638796   1.445   3.168   3.526 -0.0727 -0.4313 -0.6977
   36MOL   C92738797   1.506   2.960   3.665 -0.4813 -0.0759  0.0480
   36MOL   C92838798   1.628   3.013   3.703  0.4658  0.8743 -0.5692
   36MOL   C92938799   1.701   2.947   3.808 -0.0989  1.0328 -0.3083
   36MOL   C93038800   1.643   2.836   3.875  0.2348 -0.0348 -0.0628
   36MOL   O93138801   1.714   2.780   3.979  0.0812  0.1885  0.2766
   36MOL   C93238802   1.714   2.857   4.092 -0.6391 -0.0562 -0.9045
   36MOL   C93338803   1.590   2.908   4.135  0.1854 -0.1991  0.4126
   36MOL   C93438804   1.583   3.002   4.237  0.1697  0.6974  0.0859
   36MOL   C93538805   1.701   3.039   4.307 -0.0336 -0.6911  0.3375
   36MOL   C93638806   1.708   3.137   4.424 -0.2273  0.3632 -0.2621
   36MOL   C93738807   1.567   3.194   4.455 -0.4175 -0.0247  0.4040
   36MOL   C93838808   1.743   3.065   4.556 -0.3015 -0.2388 -0.2566
   36MOL   C93938809   1.804   3.259   4.388  0.2071 -0.1147 -0.3861
   36MOL   C94038810   1.801   3.319   4.258 -0.0072 -1.0494  0.3407
   36MOL   C94138811   1.888   3.426   4.230 -0.2069 -0.5369  0.4967
   36MOL   C94238812   1.981   3.473   4.336  0.3473  0.1080  0.9634
   36MOL   O94338813   2.078   3.568   4.304 -0.3058 -0.5050  0.1813
   36MOL   C94438814   1.974   3.414   4.459  0.0808  0.3406  0.3589
   36MOL   C94538815   1.884   3.314   4.490  0.1334 -0.5698 -0.1509
   36MOL   C94638816   1.821   2.970   4.270  0.3507  0.3907  0.2701
   36MOL   C94738817   1.832   2.880   4.165  0.4022 -0.8333  0.2753
   36MOL   C94838818   1.519   2.791   3.836 -0.1804  0.3495  0.0835
   36MOL   C94938819   1.449   2.846   3.732 -0.0259  0.5292  0.1718
   36MOL   C95038820   1.584   2.985   3.320 -0.2961  0.1512  0.4835
   36MOL   C95138821   1.626   2.926   3.199 -0.3472 -0.1013  0.3293
   36MOL   H95238822   1.391   2.679   3.189 -1.2136  0.5006  1.2934
   36MOL   H95338823   1.322   2.781   3.400  1.3735  0.4744 -0.5715
   36MOL   H95438824   1.668   3.107   3.667 -0.8058  2.5299  2.2004
   36MOL   H95538825   1.792   2.994   3.843 -0.0122  0.8587 -0.2995
   36MOL   H95638826   1.494   2.885   4.092  0.5255 -0.7270 -0.0725
   36MOL   H95738827   1.491   3.047   4.272 -0.1275  1.0781 -1.1577
   36MOL   H95838828   1.582   3.275   4.526  2.2864 -0.3400  0.2781
   36MOL   H95938829   1.503   3.117   4.499  1.0332 -1.4206  0.1622
   36MOL   H96038830   1.537   3.245   4.364 -1.9741 -4.2652 -1.6023
   36MOL   H96138831   1.848   3.041   4.573 -0.2644 -1.7267 -2.4586
   36MOL   H96238832   1.727   3.126   4.645  1.3897  1.0355 -0.7792
   36MOL   H96338833   1.691   2.969   4.557 -0.3351 -0.2163  0.3704
   36MOL   H96438834   1.737   3.277   4.182  1.1262 -3.1766  0.5083
   36MOL   H96538835   1.887   3.483   4.138  2.1187  1.3341  1.5593
   36MOL   H96638836   2.042   3.441   4.539 -0.3696 -1.6751  1.4590
   36MOL   H96738837   1.904   3.268   4.586 -1.0054 -0.1794  0.2844
   36MOL   H96838838   1.912   2.995   4.323  0.2653 -0.7842  0.9842
   36MOL   H96938839   1.929   2.838   4.141  0.4500 -0.2024 -0.6702
   36MOL   H97038840   1.475   2.702   3.879 -0.7928  0.3413 -0.5519
   36MOL   H97138841   1.350   2.808   3.709  0.1512 -0.8387  1.6245
   36MOL   H97238842   1.631   3.076   3.356 -1.0688  0.9312 -0.4365
   36MOL   H97338843   1.700   2.972   3.134 -0.7245 -1.0363 -0.7764
   36MOL   C97438844   2.214   3.550   4.334  0.0517  0.4229  0.8571
   36MOL   C97538845   2.291   3.657   4.386  0.2273 -0.3061  0.3051
   36MOL   C97638846   2.426   3.641   4.421 -0.4015  0.1088 -0.6317
   36MOL   C97738847   2.482   3.518   4.405  0.4474  0.0878  0.7261
   36MOL   S97838848   2.648   3.484   4.462  0.2188  0.0204 -0.0549
   36MOL   O97938849   2.637   3.385   4.574 -0.2749  0.0605  0.9077
   36MOL   O98038850   2.710   3.615   4.493  0.1900  0.7055  0.4329
   36MOL   C98138851   2.743   3.400   4.327  0.2465  0.6596  0.2550
   36MOL   C98238852   2.703   3.413   4.194 -0.2319  1.0649 -0.0550
   36MOL   C98338853   2.783   3.350   4.095  1.0008 -1.5121  0.5086
   36MOL   C98438854   2.899   3.283   4.128  0.2475 -0.4039  1.0469
   36MOL   O98538855   2.977   3.234   4.027 -0.3158  0.0912 -0.2471
   36MOL   C98638856   3.057   3.319   3.954 -0.2817  0.7494  0.4291
   36MOL   C98738857   3.014   3.356   3.828 -1.0280  0.6126  0.8664
   36MOL   C98838858   3.102   3.425   3.745 -0.4575  0.2021 -0.0525
   36MOL   C98938859   3.224   3.474   3.795 -0.4717 -0.0574 -0.5278
   36MOL   C99038860   3.322   3.560   3.712  0.1825 -0.0117  0.4015
   36MOL   C99138861   3.247   3.637   3.599 -0.0802  0.4063  0.0519
   36MOL   C99238862   3.374   3.677   3.802 -0.2741 -0.4718 -0.3141
   36MOL   C99338863   3.438   3.474   3.649  0.6604 -0.3049 -0.4317
   36MOL   C99438864   3.411   3.398   3.533 -0.0750 -0.3460 -0.6400
   36MOL   C99538865   3.508   3.331   3.462  0.4381 -0.2426  0.8938
   36MOL   C99638866   3.647   3.332   3.505  0.8376 -0.1199  0.4816
   36MOL   O99738867   3.748   3.272   3.435  0.1007  0.0181  0.0041
   36MOL   C99838868   3.673   3.407   3.617 -0.2653  0.1835  0.4000
   36MOL   C99938869   3.571   3.478   3.685 -0.5220  0.1504  0.5629
   36MOL     C138870   3.271   3.428   3.923 -0.0176  0.6094 -0.5948
   36MOL     C238871   3.188   3.343   3.997  0.0765 -0.5977 -0.0993
   36MOL     C338872   2.935   3.266   4.266  0.5036  0.5677  0.4338
   36MOL     C438873   2.854   3.330   4.363  0.1562 -0.1975  0.0287
   36MOL     C538874   2.407   3.412   4.349  0.1258  0.5143 -0.0105
   36MOL     C638875   2.273   3.422   4.314 -0.0047 -0.1955 -0.4317
   36MOL     H738876   2.238   3.751   4.394 -0.1331 -0.4971  0.2156
   36MOL     H838877   2.475   3.720   4.476 -0.7228 -1.0700  1.4247
   36MOL     H938878   2.613   3.457   4.154  0.5944  1.4156 -1.5653
   36MOL    H1038879   2.761   3.373   3.992  0.8853  1.6743  1.1899
   36MOL    H1138880   2.924   3.311   3.788  0.8117 -1.7472 -0.7788
   36MOL    H1238881   3.087   3.441   3.639 -1.0300 -2.5589 -0.4343
   36MOL    H1338882   3.192   3.572   3.531 -0.8728  0.3970  0.6899
   36MOL    H1438883   3.313   3.702   3.543 -1.3642  1.3929 -0.3170
   36MOL    H1538884   3.165   3.698   3.635 -0.4931 -1.3036  2.1477
   36MOL    H1638885   3.302   3.750   3.838  1.2834  1.9175 -1.9328
   36MOL    H1738886   3.434   3.632   3.881 -1.8453 -1.1738  0.5017
   36MOL    H1838887   3.446   3.741   3.751 -0.9414  0.5496  0.0105
   36MOL    H1938888   3.309   3.398   3.498  0.1818  0.4095 -1.4199
   36MOL    H2038889   3.492   3.275   3.371 -3.9255  0.5235  1.0941
   36MOL    H2138890   3.777   3.420   3.646 -0.2514 -0.4068  0.6143
   36MOL    H2238891   3.601   3.542   3.767 -0.8878 -0.0336  0.8411
   36MOL    H2338892   3.370   3.453   3.955 -0.8169  1.8174  1.0070
   36MOL    H2438893   3.219   3.293   4.087 -0.2209  0.2604  0.4886
   36MOL    H2538894   3.032   3.232   4.299  1.3956  3.0812  0.5304
   36MOL    H2638895   2.876   3.334   4.468  1.4880  0.6641 -0.2666
   36MOL    H2738896   2.455   3.315   4.352  0.2323  0.5830  3.6545
   36MOL    H2838897   2.225   3.328   4.291  0.6740 -0.3859 -1.0800
   36MOL    C2938898   3.776   3.306   3.305 -0.6410  0.2360  0.0074
   36MOL    C3038899   3.836   3.424   3.274  0.2273 -0.2431 -1.0041
   36MOL    C3138900   3.852   3.478   3.144 -0.3927 -0.4045  0.1280
   36MOL    C3238901   3.780   3.417   3.042  0.1558  0.0744  0.3199
   36MOL    S3338902   3.751   3.469   2.876  0.0320 -0.1672 -0.0510
   36MOL    O3438903   3.605   3.489   2.864 -0.3961  0.1374 -0.6652
   36MOL    O3538904   3.821   3.376   2.788 -0.0806  0.5053 -0.7397
   36MOL    C3638905   3.822   3.632   2.848  0.0995 -0.5462 -0.1845
   36MOL    C3738906   3.903   3.648   2.735  0.5270  0.6013 -0.1700
   36MOL    C3838907   3.969   3.773   2.710  0.1786  0.2528 -0.6895
   36MOL    C3938908   3.954   3.881   2.809  0.2471  0.7767  0.3727
   36MOL    O4038909   4.025   4.000   2.797 -0.0587 -0.0750 -0.0420
   36MOL    C4138910   4.149   4.018   2.846 -0.2541  0.1800 -0.2857
   36MOL    C4238911   4.192   3.958   2.969  0.6559 -0.6232  0.5362
   36MOL    C4338912   4.326   3.976   3.011 -0.7126  0.0439 -0.0218
   36MOL    C4438913   4.420   4.054   2.939  0.0817 -0.3517  0.2115
   36MOL    C4538914   4.558   4.080   2.992 -0.1303 -0.8388  0.8332
   36MOL    C4638915   4.549   4.083   3.149 -0.3297  0.2951 -0.1664
   36MOL    C4738916   4.639   3.950   2.960 -0.1800 -0.0486  0.1452
   36MOL    C4838917   4.628   4.216   2.956 -0.4968 -0.2841 -0.4620
   36MOL    C4938918   4.764   4.220   2.956 -0.5915  0.0390  0.1776
   36MOL    C5038919   4.829   4.343   2.933 -0.3894  0.3294  0.0907
   36MOL    C5138920   4.757   4.460   2.911 -0.4521 -0.6240 -0.7132
   36MOL    O5238921   4.822   4.579   2.906  0.1037 -0.0084  0.2625
   36MOL    C5338922   4.616   4.459   2.910 -0.3429  0.3656  0.2485
   36MOL    C5438923   4.556   4.335   2.924 -0.5446 -0.2449  0.0335
   36MOL    C5538924   4.376   4.111   2.816  0.2030  0.3000  1.1276
   36MOL    C5638925   4.241   4.101   2.772  0.3005 -0.3301 -0.5039
   36MOL    C5738926   3.871   3.860   2.916  0.0289  0.1901  0.2635
   36MOL    C5838927   3.798   3.741   2.932 -0.5373 -0.3403  0.7579
   36MOL    C5938928   3.712   3.295   3.066  0.1535 -0.1358  0.5663
   36MOL    C6038929   3.709   3.240   3.198  0.3653 -0.2583  0.3686
   36MOL    H6138930   3.884   3.475   3.357  2.2539 -1.7571 -1.2043
   36MOL    H6238931   3.904   3.571   3.128 -2.6799  0.9942  0.5771
   36MOL    H6338932   3.916   3.567   2.665 -0.3425 -1.5160  2.0765
   36MOL    H6438933   4.030   3.793   2.622  1.5938 -1.3757 -0.1047
   36MOL    H6538934   4.118   3.896   3.017 -1.2572  2.9223  2.4405
   36MOL    H6638935   4.359   3.928   3.102  0.8479  1.0502 -0.0444
   36MOL    H6738936   4.475   4.162   3.167 -0.1126  0.2529  0.9907
   36MOL    H6838937   4.634   4.126   3.203 -2.0524  2.4655  0.9375
   36MOL    H6938938   4.514   3.992   3.198 -0.9535  2.1521  3.0035
   36MOL    H7038939   4.742   3.950   2.996  0.2185 -0.5108 -1.0012
   36MOL    H7138940   4.583   3.864   2.998 -0.5079 -0.6782 -1.7349
   36MOL    H7238941   4.651   3.939   2.853  1.9717 -0.3260  0.3898
   36MOL    H7338942   4.834   4.143   2.986  0.6982  1.5903  1.2728
   36MOL    H7438943   4.936   4.343   2.949 -0.3788  1.5385  0.0272
   36MOL    H7538944   4.566   4.554   2.914  0.5811  0.8443  0.4609
   36MOL    H7638945   4.448   4.335   2.918 -0.7147  1.8285  2.4266
   36MOL    H7738946   4.438   4.174   2.755  0.5817  1.2942  2.5004
   36MOL    H7838947   4.211   4.134   2.674  1.3787  0.7741 -0.4737
   36MOL    H7938948   3.866   3.942   2.985 -2.1755 -0.5121  0.9699
   36MOL    H8038949   3.738   3.736   3.021  0.0721  1.4661  1.2809
   36MOL    H8138950   3.657   3.245   2.987  0.8600  1.7003 -1.0939
   36MOL    H8238951   3.653   3.151   3.219 -0.0777  0.2114  1.1579
   36MOL    H8338952   4.913   4.580   2.932 -0.0940  0.9306  0.9805
   37MOL     C138953   2.156   7.868   1.397  0.0155  0.5991  0.3431
   37MOL     C238954   2.200   7.767   1.486  0.6860 -0.8289 -0.1091
   37MOL     C338955   2.187   7.635   1.447  0.4330 -0.3782 -0.3753
   37MOL     C438956   2.119   7.595   1.336 -0.5732 -0.2995  0.4755
   37MOL     S538957   2.124   7.425   1.291  0.4850  0.0784 -0.0723
   37MOL     O638958   1.981   7.392   1.287  0.6669 -0.0447  0.8995
   37MOL     O738959   2.212   7.358   1.391 -0.4199 -0.1994 -0.1979
   37MOL     C838960   2.188   7.424   1.124 -0.9643  0.3589 -0.4209
   37MOL     C938961   2.310   7.486   1.095 -0.3022 -0.4015  0.3079
   37MOL    C1038962   2.354   7.478   0.962 -0.6952  0.4275 -0.0356
   37MOL    C1138963   2.277   7.415   0.863 -0.5830  0.0455 -0.4281
   37MOL    O1238964   2.302   7.422   0.730 -0.4161  0.0352  0.5395
   37MOL    C1338965   2.422   7.366   0.685 -1.2334 -0.0981  1.1994
   37MOL    C1438966   2.431   7.222   0.664 -0.3070 -0.0026 -0.2564
   37MOL    C1538967   2.554   7.160   0.630  0.1324  0.1670  0.3007
   37MOL    C1638968   2.672   7.235   0.613 -1.0962  0.3848 -0.6275
   37MOL    C1738969   2.800   7.174   0.556  0.2876 -0.0790  1.0342
   37MOL    C1838970   2.925   7.235   0.622 -0.3038 -0.2185 -0.3995
   37MOL    C1938971   2.806   7.025   0.596 -0.3474 -0.3215  0.3669
   37MOL    C2038972   2.804   7.186   0.402  0.1861 -0.2839  0.2467
   37MOL    C2138973   2.710   7.114   0.318  0.1813  0.5287  0.3092
   37MOL    C2238974   2.697   7.133   0.184  0.1885  0.6649 -0.0495
   37MOL    C2338975   2.766   7.237   0.123 -0.0588 -0.1960  0.0648
   37MOL    O2438976   2.745   7.284   8.244 -0.1725  0.7393  0.1285
   37MOL    C2538977   2.864   7.309   0.202 -0.3393  0.5333 -0.5396
   37MOL    C2638978   2.880   7.284   0.336 -0.3857  0.6936 -0.0012
   37MOL    C2738979   2.660   7.375   0.629  0.2415 -0.6853 -0.0253
   37MOL    C2838980   2.539   7.445   0.665 -1.2268 -0.0371 -0.0240
   37MOL    C2938981   2.157   7.345   0.893  0.3150  0.1682  0.3484
   37MOL    C3038982   2.113   7.352   1.028 -0.1344 -0.0696 -0.5599
   37MOL    C3138983   2.064   7.692   1.247 -0.4527  0.2947  0.0938
   37MOL    C3238984   2.080   7.823   1.283  0.2925 -0.2752 -0.1332
   37MOL    H3338985   2.262   7.792   1.571 -0.2419 -2.6156  1.1261
   37MOL    H3438986   2.222   7.561   1.518 -0.3921 -0.8040 -0.4013
   37MOL    H3538987   2.365   7.538   1.172  0.6850 -2.8379  1.3090
   37MOL    H3638988   2.445   7.526   0.929  0.4191 -0.9407  0.9989
   37MOL    H3738989   2.339   7.166   0.673  0.2619 -0.7330  1.0713
   37MOL    H3838990   2.551   7.056   0.603  1.6378  0.1605  0.0685
   37MOL    H3938991   3.015   7.191   0.578  0.3366  0.0617  0.6165
   37MOL    H4038992   2.921   7.213   0.729  1.4793  1.2789 -0.0057
   37MOL    H4138993   2.921   7.342   0.603 -0.3561 -0.3512 -1.1756
   37MOL    H4238994   2.901   6.979   0.566 -0.8634  0.0438 -1.8898
   37MOL    H4338995   2.811   7.018   0.705  1.7594 -1.8527  0.2260
   37MOL    H4438996   2.734   6.950   0.562 -0.4527  0.0036 -0.1230
   37MOL    H4538997   2.647   7.045   0.371 -1.4468  2.1003  0.4618
   37MOL    H4638998   2.627   7.069   0.134 -0.5802 -0.6678  2.6422
   37MOL    H4738999   2.918   7.386   0.149 -0.3050  0.5987 -0.4103
   37MOL    H4839000   2.943   7.354   0.390  0.1785 -0.2319  0.5586
   37MOL    H4939001   2.746   7.438   0.613 -0.5480  0.3959 -0.0913
   37MOL    H5039002   2.538   7.552   0.680  0.7711 -0.2551  2.0407
   37MOL    H5139003   2.100   7.301   0.813  0.5896  0.8428 -0.2170
   37MOL    H5239004   2.017   7.310   1.055 -0.8437  1.0855 -1.2359
   37MOL    H5339005   2.003   7.662   1.163 -1.3978  2.5567 -0.0806
   37MOL    H5439006   2.027   7.892   1.219  0.0053 -0.6696 -0.3233
   37MOL    H5539007   2.172   7.971   1.425  2.8741  0.3364 -0.2017
   37MOL    C5639008   2.639   7.367   8.229 -0.5442  0.2389  0.7169
   37MOL    C5739009   2.512   7.325   8.176 -0.6552 -0.1797 -0.3910
   37MOL    C5839010   2.407   7.422   8.154 -0.1316  0.0407 -0.3283
   37MOL    C5939011   2.422   7.558   8.191 -0.4245 -0.2344 -0.1730
   37MOL    S6039012   2.292   7.670   8.156  0.3608 -0.0824  0.1030
   37MOL    O6139013   2.187   7.627   8.247 -0.0415  0.1152 -0.1460
   37MOL    O6239014   2.264   7.680   8.008 -0.1041 -0.3415  0.2072
   37MOL    C6339015   2.343   7.831   8.213 -0.2220  0.2103 -0.0580
   37MOL    C6439016   2.313   7.875   0.087  0.1449  0.0958 -0.7437
   37MOL    C6539017   2.383   7.985   0.148  0.5415 -0.0067 -0.0793
   37MOL    C6639018   2.466   8.058   0.066 -0.0341 -0.0566 -0.3807
   37MOL    O6739019   2.528   8.163   0.121  0.1002  0.3224  0.0243
   37MOL    C6839020   2.500   0.032   0.068 -0.4051  0.8684  0.5306
   37MOL    C6939021   2.369   0.067   0.028 -0.2479  0.5828  0.7121
   37MOL    C7039022   2.353   0.185   8.213 -0.7688 -0.1466  0.1299
   37MOL    C7139023   2.464   0.270   8.184 -0.2495 -0.1972 -0.1492
   37MOL    C7239024   2.442   0.388   8.093 -0.5796  0.4610 -0.2109
   37MOL    C7339025   2.568   0.463   8.043  0.3029  0.5511  0.3172
   37MOL    C7439026   2.370   0.331   7.961  0.2931 -0.0275  0.0399
   37MOL    C7539027   2.356   0.491   8.167  0.2245  0.2702 -0.7206
   37MOL    C7639028   2.236   0.541   8.112 -0.3551 -0.4208 -0.5680
   37MOL    C7739029   2.165   0.641   8.182 -0.1880 -0.5352  0.1525
   37MOL    C7839030   2.212   0.689   0.050  0.2118  0.9870 -0.2284
   37MOL    O7939031   2.140   0.792   0.108 -0.4647 -0.1917  0.1852
   37MOL    C8039032   2.329   0.638   0.109 -0.4154  0.1743 -0.2636
   37MOL    C8139033   2.403   0.535   0.041 -0.2082 -0.2324  0.6792
   37MOL    C8239034   2.593   0.241   8.237 -0.0751 -0.7344  0.6589
   37MOL    C8339035   2.607   0.120   0.052  0.2598  0.0187 -0.1400
   37MOL    C8439036   2.496   8.019   8.188 -0.5382 -0.5817 -0.2214
   37MOL    C8539037   2.428   7.909   8.132 -0.4205 -0.0824  0.4171
   37MOL    C8639038   2.547   7.595   8.250  0.9202  0.5778 -0.0030
   37MOL    C8739039   2.647   7.502   0.018  0.1348  0.1856 -0.5960
   37MOL    H8839040   2.491   7.226   8.139 -1.5030  0.0725 -0.5849
   37MOL    H8939041   2.319   7.381   8.107  0.1951  0.5592 -1.4141
   37MOL    H9039042   2.250   7.817   0.152  1.3679  1.2298  1.5271
   37MOL    H9139043   2.376   8.016   0.251  3.0255  0.9034 -0.1414
   37MOL    H9239044   2.288   8.250   0.043  1.2811 -1.8417 -1.9874
   37MOL    H9339045   2.252   0.209   8.184 -1.3997 -1.2468  1.3218
   37MOL    H9439046   2.539   0.538   7.969  1.3768 -0.3211 -1.0173
   37MOL    H9539047   2.628   0.391   7.988  0.7077  2.3065 -1.6008
   37MOL    H9639048   2.627   0.504   8.125  2.1781  1.0864 -1.2525
   37MOL    H9739049   2.364   0.417   7.895 -1.4648 -0.4716 -0.3959
   37MOL    H9839050   2.427   0.259   7.902 -0.5064 -0.8545  0.2797
   37MOL    H9939051   2.267   0.296   7.967  0.4770 -0.2225  3.0482
   37MOL   H10039052   2.202   0.507   8.015 -1.9145 -1.6441  0.3909
   37MOL   H10139053   2.072   0.682   8.147 -0.0440 -0.4230 -0.1028
   37MOL   H10239054   2.374   0.677   0.199 -0.8748 -0.7859  0.3901
   37MOL   H10339055   2.488   0.496   0.095 -0.0057 -0.0618  0.4851
   37MOL   H10439056   2.678   0.307   8.233 -1.7956  1.5400  0.7303
   37MOL   H10539057   2.696   0.086   0.104 -0.3023  0.3918  1.1033
   37MOL   H10639058   2.568   8.078   8.134  0.9802 -1.0369  1.2838
   37MOL   H10739059   2.445   7.881   8.029  0.6727 -0.6756  0.7490
   37MOL   H10839060   2.558   7.701   0.014  0.2195  1.1028 -2.5368
   37MOL   H10939061   2.732   7.555   0.056  0.0703 -0.7513  0.8733
   37MOL   C11039062   2.051   0.753   0.203 -0.5631  0.2737 -0.3825
   37MOL   C11139063   2.084   0.761   0.339  0.0145  0.0496 -0.3998
   37MOL   C11239064   1.982   0.725   0.434  0.7623  0.2780 -0.5681
   37MOL   C11339065   1.858   0.686   0.389 -0.1154 -0.2838 -0.2613
   37MOL   S11439066   1.738   0.633   0.517 -0.0363  0.0939 -0.1526
   37MOL   O11539067   1.770   0.704   0.640 -0.1259  0.7808  0.0173
   37MOL   O11639068   1.744   0.486   0.515  0.1401 -0.0955  0.5713
   37MOL   C11739069   1.572   0.692   0.468  1.2003  0.0483  0.4055
   37MOL   C11839070   1.552   0.805   0.378  0.2808 -0.0713 -0.0484
   37MOL   C11939071   1.426   0.833   0.323 -0.2002  0.3495 -0.0688
   37MOL   C12039072   1.313   0.770   0.375 -0.1513 -0.2803 -0.3908
   37MOL   O12139073   1.186   0.807   0.336 -0.0577 -0.1507 -0.1796
   37MOL   C12239074   1.117   0.871   0.435  0.7667  0.3364  1.1034
   37MOL   C12339075   1.030   0.784   0.501 -0.4230 -0.0492 -0.0187
   37MOL   C12439076   0.961   0.831   0.615  0.1316 -0.4637  0.6121
   37MOL   C12539077   0.986   0.962   0.667 -0.2184 -0.6328 -0.2222
   37MOL   C12639078   0.907   1.003   0.794 -0.3598  0.5282 -0.2707
   37MOL   C12739079   0.953   0.906   0.907 -0.2816  0.1377  0.5047
   37MOL   C12839080   0.959   1.144   0.842 -0.3844 -0.0695 -0.3414
   37MOL   C12939081   0.756   1.006   0.771  0.4604  0.8126  0.2662
   37MOL   C13039082   0.704   1.061   0.655 -0.1086  0.5337 -0.1033
   37MOL   C13139083   0.565   1.073   0.625 -0.9585 -0.1979 -0.3439
   37MOL   C13239084   0.482   1.005   0.713 -0.1961 -0.5668 -0.2084
   37MOL   O13339085   0.347   1.006   0.685  0.0051  0.1795  0.4039
   37MOL   C13439086   0.528   0.936   0.831 -0.0445  0.2532  0.3560
   37MOL   C13539087   0.663   0.946   0.863  0.1459 -0.0957 -0.0704
   37MOL   C13639088   1.073   1.048   0.597 -0.4419  0.3281 -0.3652
   37MOL   C13739089   1.142   0.999   0.484  1.7640 -0.1195 -0.0158
   37MOL   C13839090   1.326   0.656   0.467  0.7968 -0.2173  0.0404
   37MOL   C13939091   1.457   0.614   0.508 -0.3982 -0.1627 -0.7955
   37MOL   C14039092   1.825   0.678   0.253  0.5889 -0.0967  0.0780
   37MOL   C14139093   1.928   0.698   0.160  0.4542  0.3254 -0.1843
   37MOL   H14239094   2.179   0.794   0.378  0.0385 -1.5871  0.9757
   37MOL   H14339095   2.001   0.711   0.539 -0.1566 -1.0618 -0.5638
   37MOL   H14439096   1.643   0.848   0.340 -0.1944  1.1533  0.1783
   37MOL   H14539097   1.417   0.898   0.237  1.4466 -0.7404 -1.0911
   37MOL   H14639098   1.025   0.682   0.465  2.3565 -1.5401  3.4306
   37MOL   H14739099   0.879   0.772   0.654 -2.1425  1.4483 -1.1410
   37MOL   H14839100   1.059   0.880   0.904 -0.3114  0.1102 -1.2203
   37MOL   H14939101   0.907   0.808   0.898  0.1111 -0.1546  1.6482
   37MOL   H15039102   0.924   0.936   1.007  0.3828  0.7953  0.5128
   37MOL   H15139103   0.914   1.176   0.936  0.2847 -0.6798  0.1981
   37MOL   H15239104   1.067   1.149   0.850 -0.5630  2.2446  0.7786
   37MOL   H15339105   0.920   1.221   0.775 -0.5494 -1.4418 -1.8518
   37MOL   H15439106   0.774   1.108   0.587 -0.2105  3.3999  1.6950
   37MOL   H15539107   0.525   1.119   0.536 -0.3237  1.3004  0.1318
   37MOL   H15639108   0.468   0.866   0.887 -0.1547 -0.0312 -0.1074
   37MOL   H15739109   0.695   0.902   0.956 -0.5066 -1.2375 -0.3742
   37MOL   H15839110   1.084   1.154   0.615  1.0876 -0.1973  1.9324
   37MOL   H15939111   1.209   1.067   0.434 -1.7985  0.7621 -3.8619
   37MOL   H16039112   1.244   0.595   0.502  1.6259 -1.8040 -0.7376
   37MOL   H16139113   1.464   0.535   0.582  1.4331  2.0396  1.4827
   37MOL   H16239114   1.729   0.634   0.231  1.1458 -0.8766 -0.8235
   37MOL   H16339115   1.916   0.682   0.054  0.8547  0.1194 -0.2005
   37MOL   C16439116   0.295   0.885   0.653  0.5049 -0.6740  0.2801
   37MOL   C16539117   0.204   0.829   0.745  0.2634 -0.8880 -0.3843
   37MOL   C16639118   0.136   0.713   0.721  0.8326  0.5131  0.2439
   37MOL   C16739119   0.154   0.655   0.592  0.9375  0.0990  0.5856
   37MOL   S16839120   0.055   0.518   0.537 -0.1569  0.1825  0.0400
   37MOL   O16939121   0.024   0.539   0.395  0.2670  0.5885 -0.3537
   37MOL   O17039122   8.198   0.495   0.632 -0.5802 -0.8892  0.9487
   37MOL   C17139123   0.176   0.388   0.555 -0.7474 -0.6658  0.3084
   37MOL   C17239124   0.268   0.366   0.455 -0.2741  0.4984  0.2217
   37MOL   C17339125   0.381   0.283   0.487  0.2456  0.2135  0.1644
   37MOL   C17439126   0.390   0.218   0.609 -0.3513  0.4670  0.8154
   37MOL   O17539127   0.489   0.125   0.646 -0.0079  0.4914  0.1305
   37MOL   C17639128   0.614   0.169   0.665 -0.5415  0.4131 -0.2936
   37MOL   C17739129   0.732   0.097   0.633 -1.0373 -0.7242 -0.4387
   37MOL   C17839130   0.860   0.157   0.633 -0.0486 -0.5769  0.2535
   37MOL   C17939131   0.871   0.287   0.688 -0.3842 -0.6112 -0.0417
   37MOL   C18039132   1.025   0.344   0.696 -0.0424 -0.5620 -0.5092
   37MOL   C18139133   1.063   0.364   0.549 -0.3829 -0.0790  0.6014
   37MOL   C18239134   1.036   0.479   0.774 -0.4570 -0.2307  0.9870
   37MOL   C18339135   1.121   0.244   0.758  0.1673  0.0157  0.5019
   37MOL   C18439136   1.259   0.249   0.738  0.0081  0.3983 -0.6163
   37MOL   C18539137   1.345   0.157   0.803 -0.5742 -0.3719  0.7802
   37MOL   C18639138   1.299   0.056   0.890 -0.9042 -0.4536 -0.2973
   37MOL   O18739139   1.390   8.221   0.953  0.1705  0.0910 -0.5754
   37MOL   C18839140   1.154   0.050   0.911 -0.0335 -1.1923 -0.7851
   37MOL   C18939141   1.072   0.147   0.851 -0.0158 -0.1194  1.6122
   37MOL   C19039142   0.759   0.362   0.729  1.1870 -0.2718  0.5376
   37MOL   C19139143   0.635   0.301   0.715  0.4745  0.6944  0.1459
   37MOL   C19239144   0.294   0.244   0.711 -0.8031  0.1191  0.8166
   37MOL   C19339145   0.192   0.333   0.682  0.3045  1.2534 -0.0076
   37MOL   C19439146   0.248   0.709   0.500 -0.0264  0.2035 -0.1924
   37MOL   C19539147   0.324   0.822   0.529 -0.1175  0.3013  0.0368
   37MOL   H19639148   0.178   0.888   0.831 -1.8756  0.1316 -1.6700
   37MOL   H19739149   0.051   0.678   0.777 -0.8123  1.5599 -1.5456
   37MOL   H19839150   0.255   0.420   0.362  1.2656 -2.3895 -1.7452
   37MOL   H19939151   0.448   0.245   0.411 -0.3493 -0.9846  0.2240
   37MOL   H20039152   0.724   8.249   0.596 -1.3202 -1.1136  0.6647
   37MOL   H20139153   0.943   0.097   0.600 -1.3855 -2.9167  1.0729
   37MOL   H20239154   1.165   0.400   0.535 -2.0511  3.7518 -2.4848
   37MOL   H20339155   1.000   0.437   0.499 -1.7730 -0.3669  1.8752
   37MOL   H20439156   1.054   0.275   0.487 -0.9285  1.2264 -1.2156
   37MOL   H20539157   0.962   0.551   0.742  0.1981 -0.9584 -2.2881
   37MOL   H20639158   1.018   0.459   0.880  1.2015 -1.3437  1.0867
   37MOL   H20739159   1.139   0.516   0.768 -1.0145  1.1844  0.1847
   37MOL   H20839160   1.306   0.307   0.659 -1.5503  0.3214 -1.6262
   37MOL   H20939161   1.451   0.161   0.783 -0.6487 -0.9445  0.2387
   37MOL   H21039162   1.101   8.230   0.969  2.0523 -1.5056  0.8014
   37MOL   H21139163   0.968   0.137   0.880  0.5835  1.3463  4.4334
   37MOL   H21239164   0.761   0.450   0.791 -0.5718 -0.4644  0.9145
   37MOL   H21339165   0.552   0.364   0.741 -0.3014 -0.3789  0.3194
   37MOL   H21439166   0.303   0.199   0.808 -2.1559  1.0477  1.3799
   37MOL   H21539167   0.125   0.362   0.762  1.8820  0.3094  1.6964
   37MOL   H21639168   0.266   0.650   0.411 -0.7156  4.4234 -3.3285
   37MOL   H21739169   0.388   0.865   0.454 -0.5890 -0.8878 -1.0631
   37MOL   C21839170   1.413   0.004   1.090  0.1873 -0.3750  0.7835
   37MOL   C21939171   1.505   0.101   1.133 -0.0364 -0.6074 -0.0733
   37MOL   C22039172   1.524   0.133   1.269  0.2408 -0.1216  1.5275
   37MOL   C22139173   1.465   0.046   1.360  0.1906  0.3445  0.3651
   37MOL   S22239174   1.517   0.048   1.534 -0.0459  0.0947  0.3152
   37MOL   O22339175   1.649   0.115   1.543 -0.1914 -0.2236 -0.3473
   37MOL   O22439176   1.490   8.165   1.584 -0.4681  0.1123 -0.1841
   37MOL   C22539177   1.390   0.155   1.605  0.4234  0.6268  0.4395
   37MOL   C22639178   1.293   0.098   1.688 -0.4510  0.6045  0.1764
   37MOL   C22739179   1.204   0.180   1.757  0.0603 -0.0553 -0.1153
   37MOL   C22839180   1.205   0.321   1.734 -0.0272  0.0557 -0.6722
   37MOL   O22939181   1.102   0.397   1.786 -0.0299  0.4322 -0.0704
   37MOL   C23039182   1.136   0.522   1.818  0.2016  0.1861 -0.6178
   37MOL   C23139183   1.086   0.631   1.738 -0.1818 -0.1213  0.1592
   37MOL   C23239184   1.128   0.764   1.761  0.0257 -1.0151  0.8227
   37MOL   C23339185   1.217   0.780   1.877 -0.4908 -0.7012  0.3076
   37MOL   C23439186   1.269   0.929   1.907  0.1675 -0.2272  0.2723
   37MOL   C23539187   1.384   0.933   2.018 -0.2726  0.0868  0.2213
   37MOL   C23639188   1.319   1.002   1.777  0.4375  0.4855 -0.0871
   37MOL   C23739189   1.156   1.016   1.978 -0.2381 -0.6815  0.4142
   37MOL   C23839190   1.027   0.964   2.012  0.4950  0.0975  0.2412
   37MOL   C23939191   0.926   1.046   2.076 -0.2944 -0.5140 -0.0171
   37MOL   C24039192   0.953   1.188   2.087 -0.2717 -0.5151  0.5956
   37MOL   O24139193   0.867   1.264   2.154  0.4050  0.1086  0.3912
   37MOL   C24239194   1.075   1.238   2.038 -0.5109  0.7929 -0.9291
   37MOL   C24339195   1.176   1.154   1.993  0.2615 -0.5297  1.1038
   37MOL   C24439196   1.258   0.672   1.959  0.6336  0.2553 -0.3624
   37MOL   C24539197   1.211   0.540   1.935 -0.9042  0.4516  0.0301
   37MOL   C24639198   1.300   0.375   1.646  0.3047  0.4621 -0.2324
   37MOL   C24739199   1.391   0.297   1.576 -0.0137  0.4757 -0.0598
   37MOL   C24839200   1.375   8.202   1.321 -0.1850  0.1850 -0.3031
   37MOL   C24939201   1.341   8.181   1.187  0.0594  0.6416  0.1589
   37MOL   H25039202   1.553   0.166   1.061 -1.1461 -0.4347 -0.6782
   37MOL   H25139203   1.594   0.205   1.308  0.2237 -0.2835  1.8540
   37MOL   H25239204   1.286   8.246   1.707  1.3758  0.0224 -2.2170
   37MOL   H25339205   1.126   0.139   1.821  0.3775 -0.1714  0.2012
   37MOL   H25439206   1.018   0.623   1.654 -0.0393 -0.3161  0.0610
   37MOL   H25539207   1.095   0.842   1.694  0.0619 -2.3846 -0.8261
   37MOL   H25639208   1.423   1.031   2.044  1.2479 -0.2128 -0.8450
   37MOL   H25739209   1.471   0.874   1.991  0.0256  0.2713  0.7618
   37MOL   H25839210   1.348   0.889   2.111 -1.9885  0.3736 -0.2915
   37MOL   H25939211   1.385   0.949   1.708  1.0115  0.9382  0.1144
   37MOL   H26039212   1.235   1.020   1.709 -1.3615 -1.2886  1.5776
   37MOL   H26139213   1.352   1.102   1.803  0.6178  1.1713 -2.8125
   37MOL   H26239214   1.016   0.858   1.998  0.8568  0.1205 -0.2004
   37MOL   H26339215   0.832   1.009   2.114 -1.2536  1.7763 -0.0813
   37MOL   H26439216   1.104   1.342   2.039  0.1744  0.6103 -0.9115
   37MOL   H26539217   1.273   1.197   1.971  1.5518 -2.0708  3.5256
   37MOL   H26639218   1.330   0.687   2.038 -1.0272 -0.6960  1.3884
   37MOL   H26739219   1.243   0.464   2.005 -0.8831  0.0015 -0.4695
   37MOL   H26839220   1.297   0.483   1.638 -1.2049  0.5537  1.1776
   37MOL   H26939221   1.473   0.336   1.517 -0.2123  0.6376 -0.2303
   37MOL   H27039222   1.329   8.133   1.390  1.1445 -0.5598 -0.1401
   37MOL   H27139223   1.275   8.102   1.157 -3.4310  2.8834  1.6090
   37MOL   C27239224   0.837   1.233   2.287  0.8154 -0.1947  0.1885
   37MOL   C27339225   0.711   1.184   2.323  0.7196  0.4732  0.0790
   37MOL   C27439226   0.692   1.130   2.451 -0.7405 -0.0268 -0.3097
   37MOL   C27539227   0.792   1.142   2.545  0.2596  0.3179  0.0299
   37MOL   S27639228   0.792   1.083   2.715 -0.1775  0.3026  0.0899
   37MOL   O27739229   0.922   1.115   2.780 -0.3104 -0.8211  0.2105
   37MOL   O27839230   0.763   0.939   2.712  0.0823 -0.1213 -0.2511
   37MOL   C27939231   0.656   1.158   2.799  0.1505  0.3089  1.1060
   37MOL   C28039232   0.524   1.108   2.796  0.0505  0.2666 -0.2667
   37MOL   C28139233   0.421   1.171   2.865 -0.4042 -0.6527 -0.1974
   37MOL   C28239234   0.450   1.280   2.955  0.2727  0.2947  0.1555
   37MOL   O28339235   0.348   1.330   3.038 -0.1384  0.0993 -0.0345
   37MOL   C28439236   0.378   1.323   3.173 -0.6190  0.4200  0.0947
   37MOL   C28539237   0.444   1.215   3.223 -0.7103 -0.7139  0.6529
   37MOL   C28639238   0.478   1.209   3.356 -0.6973  0.8158 -0.4571
   37MOL   C28739239   0.446   1.316   3.444  0.8993 -0.4538  0.0863
   37MOL   C28839240   0.492   1.310   3.588  0.1305  0.0504  0.0932
   37MOL   C28939241   0.619   1.401   3.611  0.5753  0.0380 -0.1894
   37MOL   C29039242   0.391   1.373   3.689  0.2317 -0.2225 -0.4932
   37MOL   C29139243   0.520   1.161   3.644  0.1982  0.1678 -0.4724
   37MOL   C29239244   0.648   1.116   3.689 -0.4514 -0.2658 -0.1206
   37MOL   C29339245   0.672   0.986   3.732 -0.0015 -0.2873 -0.7782
   37MOL   C29439246   0.559   0.898   3.735  0.4955 -0.2420 -0.0201
   37MOL   O29539247   0.573   0.771   3.783 -0.1802 -0.4016  0.0536
   37MOL   C29639248   0.427   0.940   3.699  0.1263 -0.3930  0.0509
   37MOL   C29739249   0.411   1.073   3.650 -0.2401 -0.0475  0.1529
   37MOL   C29839250   0.368   1.419   3.397 -0.3016 -0.4083  0.0505
   37MOL   C29939251   0.343   1.427   3.257  0.1443  0.0658 -0.7056
   37MOL   C30039252   0.585   1.329   2.961 -0.3149 -0.1760 -0.5787
   37MOL   C30139253   0.680   1.272   2.876 -0.0895 -0.1336 -0.2817
   37MOL   C30239254   0.909   1.210   2.516  0.5795 -0.0699  0.2323
   37MOL   C30339255   0.930   1.257   2.384 -0.6085  0.7358 -0.7522
   37MOL   H30439256   0.635   1.184   2.246 -0.7127 -3.0646  1.3859
   37MOL   H30539257   0.601   1.079   2.479 -2.0424  1.0695 -2.3870
   37MOL   H30639258   0.509   1.022   2.733  0.5662 -1.0662  1.4052
   37MOL   H30739259   0.323   1.126   2.861 -1.1289  0.8411  0.1722
   37MOL   H30839260   0.480   1.126   3.173  2.8223  2.1503 -2.2389
   37MOL   H30939261   0.534   1.122   3.387  0.3182  1.0940 -1.4399
   37MOL   H31039262   0.658   1.395   3.712  0.0589 -2.1122 -0.1011
   37MOL   H31139263   0.611   1.506   3.584 -0.9599 -0.1452 -0.5092
   37MOL   H31239264   0.697   1.365   3.545  0.2025 -0.0353 -0.5963
   37MOL   H31339265   0.296   1.321   3.700  2.3221 -4.0092  0.3055
   37MOL   H31439266   0.436   1.390   3.787  0.2861 -1.5746 -0.2748
   37MOL   H31539267   0.344   1.470   3.671  0.0786  0.1172  1.6719
   37MOL   H31639268   0.732   1.182   3.676 -2.1495  1.3820 -3.6106
   37MOL   H31739269   0.762   0.944   3.773 -0.0086  0.7324  0.3016
   37MOL   H31839270   0.345   0.871   3.690 -0.8379  0.4077  2.4527
   37MOL   H31939271   0.317   1.108   3.609  0.4745  2.2937  0.4279
   37MOL   H32039272   0.332   1.492   3.468  0.5100  0.4162 -0.3728
   37MOL   H32139273   0.281   1.507   3.219 -1.3094 -0.8061 -0.2112
   37MOL   H32239274   0.617   1.407   3.027 -1.3221 -1.8864  2.0260
   37MOL   H32339275   0.778   1.315   2.887 -0.7579  0.7062  2.6531
   37MOL   H32439276   0.983   1.230   2.593  2.3580 -1.0814 -1.1762
   37MOL   H32539277   1.025   1.303   2.363  0.0199  0.0094  0.4421
   37MOL   C32639278   0.544   0.760   3.918 -0.0024  0.4467  0.2233
   37MOL   C32739279   0.421   0.693   3.953  0.6570 -0.5864 -0.1850
   37MOL   C32839280   0.380   0.670   4.089  0.3347 -0.4735  0.6297
   37MOL   C32939281   0.468   0.720   4.186  0.1477  0.3509  0.2812
   37MOL   S33039282   0.416   0.714   4.351 -0.3674  0.0062 -0.2456
   37MOL   O33139283   0.311   0.818   4.362 -0.2354  0.2131 -0.3398
   37MOL   O33239284   0.539   0.727   4.430  0.2602  0.0813 -0.7851
   37MOL   C33339285   0.347   0.545   4.369  0.0121 -0.4028 -0.0329
   37MOL   C33439286   0.237   0.541   4.460 -0.2116 -0.1040 -0.3227
   37MOL   C33539287   0.177   0.415   4.480 -0.2128  0.3925  0.9995
   37MOL   C33639288   0.236   0.293   4.428  0.1061  0.2311  0.1426
   37MOL   O33739289   0.180   0.168   4.451  0.0581 -0.0497 -0.3049
   37MOL   C33839290   0.252   0.060   4.495 -0.0034 -0.1976  0.0112
   37MOL   C33939291   0.221   8.187   4.435 -0.1063  0.3097 -0.0230
   37MOL   C34039292   0.305   8.077   4.457 -0.4963  0.2795 -0.0025
   37MOL   C34139293   0.413   8.087   4.552 -0.6736  0.2078  0.2643
   37MOL   C34239294   0.502   7.962   4.581 -0.1532  0.6355 -0.0098
   37MOL   C34339295   0.573   7.968   4.716  0.0694  0.2547 -0.5358
   37MOL   C34439296   0.412   7.833   4.586  0.2770 -0.2553  0.0291
   37MOL   C34539297   0.599   7.949   4.462  0.2290 -0.5989  0.1997
   37MOL   C34639298   0.670   8.067   4.425 -0.3784  0.6453  0.8623
   37MOL   C34739299   0.769   8.061   4.325 -1.3314  0.2615 -0.1338
   37MOL   C34839300   0.802   7.938   4.259  0.7009 -0.1312 -0.7994
   37MOL   O34939301   0.899   7.922   4.169  0.0159  0.2126 -0.2420
   37MOL   C35039302   0.725   7.825   4.284  0.0367 -0.4501  0.2779
   37MOL   C35139303   0.622   7.833   4.385  0.7033  0.4329  0.0363
   37MOL   C35239304   0.437   8.214   4.606 -0.4963  0.1149 -0.2505
   37MOL   C35339305   0.359   0.077   4.586  0.4241 -0.0566  0.4063
   37MOL   C35439306   0.351   0.305   4.350  0.2767  0.4559 -0.1401
   37MOL   C35539307   0.414   0.429   4.321  0.2156 -0.2350 -0.0820
   37MOL   C35639308   0.594   0.783   4.153 -0.2104  0.2869  0.2813
   37MOL   C35739309   0.629   0.807   4.019  0.1297  0.1749 -0.6864
   37MOL   H35839310   0.362   0.649   3.874 -2.1301 -4.5560  3.8931
   37MOL   H35939311   0.289   0.621   4.123 -0.5853 -0.7837 -2.1978
   37MOL   H36039312   0.205   0.630   4.512 -2.1336 -0.3440 -1.0570
   37MOL   H36139313   0.089   0.407   4.542  0.7325 -0.1280  2.3103
   37MOL   H36239314   0.131   8.188   4.375  0.9614  2.5886 -1.6467
   37MOL   H36339315   0.288   7.981   4.412  0.2767  0.1721 -0.0599
   37MOL   H36439316   0.510   7.978   4.804  0.6175 -1.9177  0.1420
   37MOL   H36539317   0.638   8.054   4.727 -0.4233  0.2360  3.2067
   37MOL   H36639318   0.635   7.878   4.721  0.7284  0.5806 -2.5400
   37MOL   H36739319   0.379   7.790   4.492  5.3450 -2.0538 -1.0911
   37MOL   H36839320   0.473   7.757   4.636 -0.4307 -0.1827  1.0335
   37MOL   H36939321   0.325   7.840   4.651  1.3956 -2.0001  1.7849
   37MOL   H37039322   0.673   8.159   4.482  1.7744  0.3930  1.2040
   37MOL   H37139323   0.833   8.146   4.305  1.4633 -1.3754  1.4061
   37MOL   H37239324   0.751   7.738   4.226  0.6345 -0.9732  1.3133
   37MOL   H37339325   0.560   7.747   4.408  0.5035  0.1152 -1.6558
   37MOL   H37439326   0.518   8.225   4.678 -2.3146 -0.3734  1.9247
   37MOL   H37539327   0.383   0.174   4.626 -1.7135 -0.4909  2.8942
   37MOL   H37639328   0.411   0.215   4.343 -2.9125 -1.7859  0.4406
   37MOL   H37739329   0.507   0.435   4.268  0.6818  0.4191  0.7982
   37MOL   H37839330   0.665   0.816   4.226 -1.7611 -0.1011  2.0020
   37MOL   H37939331   0.719   0.863   3.997  1.3626 -2.1480 -1.6788
   37MOL   C38039332   0.892   7.993   4.051 -0.3610  0.1392  0.6719
   37MOL   C38139333   0.981   8.098   4.014 -0.5187 -0.0615  0.6342
   37MOL   C38239334   0.965   8.176   3.893 -0.4151  0.7758 -0.8716
   37MOL   C38339335   0.862   8.135   3.807  0.2975 -0.2244  0.3686
   37MOL   S38439336   0.847   8.220   3.647  0.8064  0.1708 -0.1045
   37MOL   O38539337   0.892   0.103   3.667 -0.2361  1.0240  0.7631
   37MOL   O38639338   0.719   8.185   3.586 -0.4254 -0.0191  0.5852
   37MOL   C38739339   0.967   8.134   3.556 -0.1932 -0.1206  0.6993
   37MOL   C38839340   1.062   8.211   3.491  0.4324 -0.1768 -0.7823
   37MOL   C38939341   1.153   8.162   3.403 -0.1248 -0.1870  0.7572
   37MOL   C39039342   1.152   8.020   3.380  0.1929  0.0711 -0.0892
   37MOL   O39139343   1.236   7.961   3.289  0.4302 -0.4383  0.2977
   37MOL   C39239344   1.310   8.045   3.205 -0.1447  0.4322 -0.5054
   37MOL   C39339345   1.250   8.133   3.116 -0.0493  0.0637  0.8524
   37MOL   C39439346   1.328   8.217   3.037 -0.1855  0.8660  0.6248
   37MOL   C39539347   1.465   8.220   3.050 -0.9553  0.6718 -0.1738
   37MOL   C39639348   1.556   0.058   2.955 -0.5265  0.6228  0.0620
   37MOL   C39739349   1.633   0.165   3.026  0.4852  0.3398 -0.0735
   37MOL   C39839350   1.655   8.219   2.879 -0.3757 -0.5600  0.2961
   37MOL   C39939351   1.465   0.126   2.845  0.4196 -0.1604 -0.2499
   37MOL   C40039352   1.388   0.241   2.882  0.4244 -0.1813  0.1225
   37MOL   C40139353   1.294   0.295   2.796 -0.1639 -0.8071 -1.2619
   37MOL   C40239354   1.270   0.240   2.672 -0.4569  0.0400  0.0297
   37MOL   O40339355   1.186   0.292   2.581  0.3310  0.2338  0.1731
   37MOL   C40439356   1.338   0.121   2.632  0.1937 -0.2760  0.7767
   37MOL   C40539357   1.440   0.066   2.713 -0.1294 -0.2735 -0.6794
   37MOL   C40639358   1.529   8.127   3.132  0.0864  0.1368  0.0074
   37MOL   C40739359   1.449   8.035   3.205 -0.1394  0.2326  0.0646
   37MOL   C40839360   1.073   7.937   3.466 -0.0922  0.0131 -0.3304
   37MOL   C40939361   0.968   7.997   3.547  0.2195 -0.3426 -0.0952
   37MOL   C41039362   0.770   8.029   3.842 -0.7532  0.2612 -0.1021
   37MOL   C41139363   0.785   7.970   3.969 -0.2981  0.0456  0.2713
   37MOL   H41239364   1.063   8.120   4.082 -2.4666  0.4725  2.8631
   37MOL   H41339365   1.037   8.252   3.867  0.4079  0.0263 -0.8031
   37MOL   H41439366   1.062   0.064   3.511 -1.3524 -0.1174 -1.0867
   37MOL   H41539367   1.235   8.223   3.369  0.5882 -1.1930  0.6385
   37MOL   H41639368   1.144   8.139   3.100 -0.0295 -1.1916  0.2167
   37MOL   H41739369   1.280   0.032   2.969 -0.9517 -0.0589  0.2240
   37MOL   H41839370   1.681   0.233   2.956  1.9957 -0.3990  0.2337
   37MOL   H41939371   1.712   0.126   3.090 -1.3977 -1.2272  1.3682
   37MOL   H42039372   1.572   0.221   3.098 -1.9907 -1.3019 -0.8339
   37MOL   H42139373   1.726   8.174   2.948  0.1353 -0.2078  0.0013
   37MOL   H42239374   1.598   8.138   2.833  1.7478 -1.3902 -0.9362
   37MOL   H42339375   1.703   0.023   2.800 -1.0874  1.1226  1.0603
   37MOL   H42439376   1.409   0.291   2.975 -1.1566  1.8918 -0.5776
   37MOL   H42539377   1.251   0.386   2.834 -0.9364 -2.2177  1.3342
   37MOL   H42639378   1.316   0.064   2.542  0.6171  1.8461 -0.6967
   37MOL   H42739379   1.480   8.225   2.681  0.5842  0.2141 -1.2233
   37MOL   H42839380   1.637   8.131   3.138  0.0700  2.5441 -0.5621
   37MOL   H42939381   1.511   7.966   3.260  1.8302  2.6592  0.9818
   37MOL   H43039382   1.084   7.830   3.459 -0.0175  0.0648 -1.0608
   37MOL   H43139383   0.909   7.930   3.609 -0.4813  2.1124  1.9663
   37MOL   H43239384   0.691   8.002   3.774 -0.9591 -0.4460  0.4142
   37MOL   H43339385   0.705   7.903   3.998 -1.1634  0.8112 -0.3235
   37MOL   C43439386   1.048   0.303   2.602 -0.3366 -0.6348 -0.0647
   37MOL   C43539387   0.970   0.387   2.516  0.1051 -0.0450 -0.1284
   37MOL   C43639388   0.834   0.409   2.539 -0.1536 -0.0282  0.4546
   37MOL   C43739389   0.774   0.342   2.650 -0.5147 -0.5353  0.3397
   37MOL   S43839390   0.597   0.360   2.673  0.1337  0.4481  0.1924
   37MOL   O43939391   0.546   0.233   2.725  0.6057  0.0396 -0.0801
   37MOL   O44039392   0.539   0.409   2.547  0.2097 -1.5350 -0.2505
   37MOL   C44139393   0.575   0.491   2.813  0.4436  0.0175  0.1031
   37MOL   C44239394   0.588   0.625   2.786 -0.3007 -0.1891 -0.4807
   37MOL   C44339395   0.578   0.721   2.887  0.0764  0.2147  0.4640
   37MOL   C44439396   0.544   0.679   3.017  0.7376 -0.5245  0.5142
   37MOL   O44539397   0.541   0.766   3.118  0.5165  0.1466 -0.0843
   37MOL   C44639398   0.426   0.833   3.144 -1.1164  0.3117 -0.0636
   37MOL   C44739399   0.394   0.860   3.277  0.3735  0.4285 -0.2282
   37MOL   C44839400   0.276   0.924   3.311  0.1799  0.2621 -0.3419
   37MOL   C44939401   0.182   0.957   3.203 -0.3276 -0.3056 -0.1697
   37MOL   C45039402   0.051   1.007   3.258 -0.5126  0.0856  0.4257
   37MOL   C45139403   0.083   1.126   3.367  0.3322 -0.3950  0.3039
   37MOL   C45239404   8.211   1.064   3.147 -0.3657  0.1491  0.5137
   37MOL   C45339405   8.237   0.891   3.333  0.2723 -0.1902  0.3745
   37MOL   C45439406   0.009   0.760   3.291 -0.1772 -0.4406 -0.4789
   37MOL   C45539407   8.194   0.646   3.345 -0.3131  0.5056 -0.0379
   37MOL   C45639408   8.102   0.666   3.450  1.1974  0.5726  0.1366
   37MOL   O45739409   8.022   0.571   3.513 -0.1051  0.2464  0.2407
   37MOL   C45839410   8.082   0.802   3.497  0.1402  0.1952  0.0242
   37MOL   C45939411   8.137   0.917   3.430  0.3072  0.2983  0.2666
   37MOL   C46039412   0.228   0.955   3.068 -0.7747  0.0270 -0.3834
   37MOL   C46139413   0.345   0.881   3.042  0.1758  0.2240 -0.3105
   37MOL   C46239414   0.525   0.538   3.040 -0.0381 -0.4238 -0.9512
   37MOL   C46339415   0.535   0.443   2.939  0.7437 -0.0235 -0.2874
   37MOL   C46439416   0.845   0.255   2.734  0.3573  0.1540 -0.8225
   37MOL   C46539417   0.984   0.230   2.705 -0.2955 -0.2985 -0.0013
   37MOL   H46639418   1.022   0.430   2.431  0.4841  0.2428  0.2488
   37MOL   H46739419   0.770   0.463   2.470 -0.0287 -0.0910  0.2898
   37MOL   H46839420   0.612   0.658   2.686  0.5200 -0.5284 -0.4061
   37MOL   H46939421   0.601   0.823   2.862 -2.5538  0.5317 -0.8318
   37MOL   H47039422   0.463   0.830   3.355  0.6405  0.8021 -0.3153
   37MOL   H47139423   0.249   0.927   3.415 -0.1607  0.1635 -0.4270
   37MOL   H47239424   0.132   1.099   3.461  0.0064  1.4507  1.0198
   37MOL   H47339425   8.245   1.184   3.382  0.4671  0.2268 -1.1831
   37MOL   H47439426   0.154   1.194   3.321  1.2272 -3.6144 -3.3063
   37MOL   H47539427   0.013   1.142   3.094 -1.6427 -0.0564 -1.1460
   37MOL   H47639428   8.173   0.985   3.082 -1.6973 -2.3924  4.2014
   37MOL   H47739429   8.123   1.115   3.186 -1.2134  0.2967 -1.5520
   37MOL   H47839430   0.094   0.736   3.228  0.4691  0.7930 -0.0943
   37MOL   H47939431   8.225   0.548   3.309 -0.1499  1.3606 -2.2869
   37MOL   H48039432   8.022   0.818   3.585  0.8773 -0.6051  0.6730
   37MOL   H48139433   8.119   1.019   3.462 -0.1352  0.9268 -1.8657
   37MOL   H48239434   0.166   0.982   2.984 -1.5195 -1.2600 -0.2583
   37MOL   H48339435   0.371   0.858   2.940 -2.3104  2.9201 -1.6161
   37MOL   H48439436   0.515   0.501   3.141  2.5860 -0.5635 -0.7053
   37MOL   H48539437   0.513   0.340   2.961 -0.3235  0.2153 -0.1822
   37MOL   H48639438   0.805   0.208   2.822  2.6089 -3.2199 -1.5306
   37MOL   H48739439   1.045   0.159   2.759  1.3918 -0.0058 -1.4523
   37MOL   C48839440   8.092   0.457   3.561 -0.6968 -0.7770  0.3711
   37MOL   C48939441   8.038   0.328   3.535 -0.5040 -0.0243  1.0792
   37MOL   C49039442   8.108   0.212   3.575  0.3029  1.1638  0.2411
   37MOL   C49139443   8.227   0.222   3.648  0.3756 -0.4982  0.5881
   37MOL   S49239444   0.077   0.081   3.679  0.0440  0.1639 -0.1162
   37MOL   O49339445   0.076   0.050   3.820 -0.2532  0.1314  0.6555
   37MOL   O49439446   0.201   0.112   3.617 -0.1299  0.5721 -0.2454
   37MOL   C49539447   0.007   8.195   3.598  0.7510 -0.2869 -0.1960
   37MOL   C49639448   8.146   8.143   3.655  0.5194  0.1665  0.7705
   37MOL   C49739449   8.081   8.031   3.592  0.0845 -0.5141 -0.4054
   37MOL   C49839450   8.129   7.980   3.468  0.0162 -0.1442  0.1731
   37MOL   O49939451   8.068   7.871   3.420  0.2664  0.3768  0.0304
   37MOL   C50039452   8.132   7.750   3.426 -0.2151  0.4136 -0.6390
   37MOL   C50139453   8.170   7.698   3.551  0.3073 -0.0607 -0.0500
   37MOL   C50239454   8.238   7.573   3.564 -0.0621 -0.3187 -0.3418
   37MOL   C50339455   0.024   7.498   3.451  0.0305  0.6571 -1.9249
   37MOL   C50439456   0.100   7.365   3.461  0.1819 -0.0346  0.4104
   37MOL   C50539457   0.171   7.335   3.590 -0.1653 -0.0486 -0.9166
   37MOL   C50639458   8.249   7.249   3.449  0.3068 -0.4564  0.0409
   37MOL   C50739459   0.205   7.371   3.347 -0.6779 -0.0799 -0.0165
   37MOL   C50839460   0.180   7.300   3.220  0.1134  0.2220 -0.2185
   37MOL   C50939461   0.272   7.311   3.113  0.3222 -0.3467  0.5454
   37MOL   C51039462   0.389   7.388   3.123 -0.0132 -0.1161  0.5531
   37MOL   O51139463   0.475   7.397   3.016 -0.3885 -0.0776  0.4096
   37MOL   C51239464   0.416   7.436   3.250  0.0278 -0.1086  0.0541
   37MOL   C51339465   0.324   7.443   3.351 -0.5047  0.9743 -1.0136
   37MOL   C51439466   8.236   7.553   3.321  0.0732  0.0521 -0.8245
   37MOL   C51539467   8.164   7.676   3.310 -0.0212 -0.7088  0.2318
   37MOL   C51639468   8.248   8.033   3.419  0.6195 -0.6003  0.4851
   37MOL   C51739469   0.064   8.133   3.487 -0.3769 -0.2132  0.6060
   37MOL   C51839470   0.020   0.348   3.686  0.0905 -0.0301  0.3208
   37MOL   C51939471   8.212   0.468   3.637  0.2832  0.7383 -0.1852
   37MOL   H52039472   7.946   0.317   3.479  0.8987  0.6222 -1.4109
   37MOL   H52139473   8.050   0.121   3.580  2.7540 -0.3444  2.9904
   37MOL   H52239474   8.116   8.185   3.749  0.9875  1.0331  0.5359
   37MOL   H52339475   7.990   7.994   3.636 -0.6447 -0.5658 -1.9070
   37MOL   H52439476   8.164   7.753   3.644 -2.7220  0.0959 -0.3091
   37MOL   H52539477   8.253   7.540   3.665 -2.6508  1.4891  0.6650
   37MOL   H52639478   0.109   7.334   3.679  1.4422  1.1469  0.2374
   37MOL   H52739479   0.245   7.411   3.614 -0.1040  0.2171 -1.8989
   37MOL   H52839480   0.216   7.236   3.587 -1.2815 -0.5482 -1.7304
   37MOL   H52939481   0.053   7.156   3.451 -0.7097 -1.3299 -4.7887
   37MOL   H53039482   8.164   7.254   3.517  2.0636 -3.1110  2.5631
   37MOL   H53139483   8.202   7.254   3.351 -1.1205  2.9914  0.8383
   37MOL   H53239484   0.099   7.233   3.197  1.2083 -0.9520 -0.7262
   37MOL   H53339485   0.248   7.269   3.016  1.6752 -1.3373  0.6166
   37MOL   H53439486   0.504   7.494   3.272  1.0033 -2.1816  1.7492
   37MOL   H53539487   0.356   7.508   3.430  0.0418  0.2470 -0.6310
   37MOL   H53639488   0.009   7.502   3.230 -0.1837 -0.2709 -0.7199
   37MOL   H53739489   8.140   7.719   3.214  0.2864 -1.4179 -0.1678
   37MOL   H53839490   0.033   7.989   3.328  0.5837  1.6627 -0.6730
   37MOL   H53939491   0.154   8.164   3.435 -1.1610  0.5624 -0.3050
   37MOL   H54039492   0.116   0.356   3.733 -0.0180 -0.4407  0.6126
   37MOL   H54139493   0.006   0.563   3.659  2.0112 -0.1550  0.0039
   37MOL   C54239494   0.578   7.490   3.022  0.7389 -0.5977  0.1443
   37MOL   C54339495   0.704   7.442   3.046  0.7699 -0.1887 -0.1055
   37MOL   C54439496   0.810   7.532   3.063  0.0594 -0.0881  0.8883
   37MOL   C54539497   0.783   7.667   3.068  0.8879 -0.8982 -0.2146
   37MOL   S54639498   0.928   7.768   3.099 -0.0209 -0.1572 -0.2640
   37MOL   O54739499   1.033   7.753   2.998 -0.6494  0.4817 -0.1811
   37MOL   O54839500   0.961   7.748   3.241  0.6721 -0.4257  0.1952
   37MOL   C54939501   0.870   7.940   3.083  0.9306  0.3757 -0.2423
   37MOL   C55039502   0.886   8.018   2.963 -0.5475 -0.0533 -1.4536
   37MOL   C55139503   0.853   8.158   2.966  0.2849  0.7159  0.4095
   37MOL   C55239504   0.802   8.216   3.085  0.6770 -0.2118  0.6992
   37MOL   O55339505   0.780   0.094   3.088  0.0670  0.3099  0.4738
   37MOL   C55439506   0.711   0.162   3.188  0.0281  0.1969 -0.1681
   37MOL   C55539507   0.779   0.217   3.295  0.0879  0.7487  0.0346
   37MOL   C55639508   0.722   0.307   3.386 -0.0679 -0.1262  0.0725
   37MOL   C55739509   0.580   0.327   3.384  0.5757  0.0638  0.3208
   37MOL   C55839510   0.512   0.410   3.494  0.1104  0.4772 -0.2281
   37MOL   C55939511   0.567   0.556   3.472 -0.0577 -1.0284  0.0480
   37MOL   C56039512   0.357   0.413   3.476  0.5094 -0.0090 -0.0543
   37MOL   C56139513   0.535   0.354   3.634 -0.1540 -0.4153  0.6138
   37MOL   C56239514   0.539   0.218   3.661  0.1397 -0.0849 -0.2611
   37MOL   C56339515   0.571   0.171   3.790 -0.1680  0.1934  0.2586
   37MOL   C56439516   0.573   0.262   3.899 -0.1211 -0.7449 -0.3720
   37MOL   O56539517   0.591   0.220   4.032  0.6048 -0.5857  1.2656
   37MOL   C56639518   0.553   0.398   3.873 -0.0251  0.2236 -0.0074
   37MOL   C56739519   0.537   0.442   3.740  0.0806  0.3397  0.6225
   37MOL   C56839520   0.504   0.265   3.282  0.8353  1.0142  0.5378
   37MOL   C56939521   0.571   0.180   3.185  0.4846 -0.1781  0.2873
   37MOL   C57039522   0.782   8.134   3.196  0.2478  0.3740 -0.2066
   37MOL   C57139523   0.800   7.996   3.194 -0.6095 -0.4166  0.5134
   37MOL   C57239524   0.651   7.719   3.053  0.3287  0.0548  0.2333
   37MOL   C57339525   0.551   7.629   3.014 -0.1162  0.0361  0.4605
   37MOL   H57439526   0.715   7.334   3.050 -1.5999 -0.4794 -0.4539
   37MOL   H57539527   0.909   7.492   3.080  0.0100 -1.5287 -1.8318
   37MOL   H57639528   0.917   7.969   2.872  1.5540 -1.0480 -0.2413
   37MOL   H57739529   0.857   8.225   2.881  1.2290  1.8304  1.3020
   37MOL   H57839530   0.887   0.214   3.301 -0.0381  0.9963  3.1774
   37MOL   H57939531   0.784   0.360   3.456 -0.7252 -0.7536  1.1476
   37MOL   H58039532   0.558   0.582   3.367 -2.2132 -1.4846  0.0861
   37MOL   H58139533   0.674   0.552   3.492 -0.4841 -0.3926  2.5709
   37MOL   H58239534   0.512   0.631   3.529  0.3630  0.4984 -1.5309
   37MOL   H58339535   0.336   0.451   3.376  0.7279 -3.2747 -1.4152
   37MOL   H58439536   0.303   0.320   3.492 -0.8117  0.7229 -0.1832
   37MOL   H58539537   0.305   0.473   3.550 -1.1210 -1.4887  0.0406
   37MOL   H58639538   0.513   0.144   3.587  2.1250  0.3549 -1.4175
   37MOL   H58739539   0.582   0.067   3.818 -0.0316  0.6601  1.9701
   37MOL   H58839540   0.552   0.471   3.953  0.6408 -0.0733  0.2756
   37MOL   H58939541   0.523   0.547   3.718  0.0242  0.4904  1.3743
   37MOL   H59039542   0.396   0.260   3.278  0.7671  1.8880  1.1634
   37MOL   H59139543   0.510   0.142   3.104  1.0764 -0.0069 -0.2458
   37MOL   H59239544   0.742   8.189   3.280 -2.0263  0.9998 -1.6653
   37MOL   H59339545   0.779   7.937   3.281 -0.1960 -1.4921 -0.1017
   37MOL   H59439546   0.623   7.823   3.059  0.7404  0.4168 -2.9541
   37MOL   H59539547   0.452   7.669   2.997 -0.4085 -1.6475 -2.0404
   37MOL   C59639548   0.518   0.109   4.073 -0.0181  0.5583 -0.3395
   37MOL   C59739549   0.376   0.106   4.075  0.1934  0.1304  0.0037
   37MOL   C59839550   0.305   8.238   4.104  0.1124  0.3470 -0.7060
   37MOL   C59939551   0.385   8.123   4.122 -0.2959  0.5653  0.0661
   37MOL   S60039552   0.304   7.963   4.108  0.1355  0.1024 -0.6364
   37MOL   O60139553   0.158   7.978   4.112  0.4982 -0.1226 -0.2459
   37MOL   O60239554   0.376   7.870   4.201 -0.2459 -0.4677  0.1867
   37MOL   C60339555   0.345   7.919   3.941 -0.2592  0.9847 -0.4449
   37MOL   C60439556   0.336   8.015   3.837 -0.1903 -0.8146  0.1182
   37MOL   C60539557   0.364   7.976   3.705 -0.5320 -0.4719 -0.0393
   37MOL   C60639558   0.420   7.847   3.678  0.3393 -0.2715  0.1259
   37MOL   O60739559   0.470   7.815   3.551  0.1965  0.6720 -0.5713
   37MOL   C60839560   0.426   7.885   3.443 -0.0791 -0.3099 -0.3142
   37MOL   C60939561   0.496   8.000   3.399 -0.1559 -0.5547  0.1503
   37MOL   C61039562   0.449   8.069   3.284  0.1343 -0.6743 -0.4668
   37MOL   C61139563   0.348   8.014   3.199 -0.1069 -0.4462 -0.5901
   37MOL   C61239564   0.306   8.090   3.071  0.7087  0.6065 -0.4846
   37MOL   C61339565   0.261   8.228   3.125 -0.5997  0.3065  0.2828
   37MOL   C61439566   0.431   8.120   2.978 -0.2465 -0.2336  0.7360
   37MOL   C61539567   0.193   8.016   2.990 -0.8356  0.0512  0.3243
   37MOL   C61639568   0.061   8.029   3.022  0.1326 -0.0941 -0.7936
   37MOL   C61739569   8.222   7.946   2.964  0.0704 -0.0624  0.0854
   37MOL   C61839570   0.000   7.847   2.871  0.0662  0.7367 -0.1130
   37MOL   O61939571   8.152   7.772   2.814  0.1804 -0.1184 -0.4420
   37MOL   C62039572   0.139   7.826   2.837 -0.3803  0.0591  0.3777
   37MOL   C62139573   0.235   7.918   2.892 -0.1666  0.0481 -0.2354
   37MOL   C62239574   0.292   7.885   3.234  0.0282 -0.1240 -0.7450
   37MOL   C62339575   0.328   7.820   3.357 -0.7099  0.4684  0.7059
   37MOL   C62439576   0.430   7.758   3.782 -0.4026  0.5745  0.0756
   37MOL   C62539577   0.385   7.788   3.911 -0.8947  0.1226  0.1485
   37MOL   C62639578   0.524   8.129   4.131  0.0024  0.5857 -0.0209
   37MOL   C62739579   0.592   8.249   4.102 -0.2030  0.3499  0.1191
   37MOL   H62839580   0.322   0.189   4.030 -1.8466 -2.0417 -1.6953
   37MOL   H62939581   0.199   8.225   4.088 -0.1956  2.1245 -0.2075
   37MOL   H63039582   0.315   8.119   3.853 -0.1196 -0.6545 -0.8183
   37MOL   H63139583   0.346   8.044   3.623  0.6964  1.5991  1.3646
   37MOL   H63239584   0.573   8.034   3.466 -0.3491  0.7508 -0.2675
   37MOL   H63339585   0.498   8.162   3.260  1.7880 -1.5239 -0.4463
   37MOL   H63439586   0.248   0.045   3.042  1.0606  2.1058  1.4970
   37MOL   H63539587   0.342   0.028   3.175 -0.6278  1.4024 -0.8051
   37MOL   H63639588   0.173   8.239   3.188 -1.1548  3.4972 -0.9309
   37MOL   H63739589   0.508   8.189   3.011  0.6804  0.2007 -2.2008
   37MOL   H63839590   0.485   8.030   2.948 -0.1892  0.0850 -0.1273
   37MOL   H63939591   0.395   8.164   2.886  2.4757 -0.8302 -0.6701
   37MOL   H64039592   0.040   8.101   3.100  0.9722 -2.3162  1.5473
   37MOL   H64139593   8.120   7.943   3.000 -0.0048  3.0103  0.2756
   37MOL   H64239594   0.173   7.748   2.771 -1.0257 -0.0175  0.1370
   37MOL   H64339595   0.341   7.919   2.870 -0.2868  0.8432 -0.7781
   37MOL   H64439596   0.213   7.836   3.180 -0.0302  0.6302 -1.3500
   37MOL   H64539597   0.288   7.722   3.377 -1.4737  0.6997  0.3470
   37MOL   H64639598   0.482   7.665   3.761 -0.4306  0.7398 -0.7472
   37MOL   H64739599   0.403   7.714   3.988 -1.0608  0.8288  0.8703
   37MOL   H64839600   0.584   8.040   4.143  1.9974  1.9992  0.7763
   37MOL   H64939601   0.698   0.003   4.082 -0.4589 -1.0384 -1.8459
   37MOL   C65039602   8.082   7.679   2.887  0.4724 -0.8656 -0.0641
   37MOL   C65139603   8.145   7.557   2.927  0.3138  0.4191 -0.2250
   37MOL   C65239604   8.073   7.468   3.009 -0.7437 -0.2513 -0.0109
   37MOL   C65339605   7.944   7.497   3.060 -0.1526 -0.2431 -0.4250
   37MOL   S65439606   7.867   7.390   3.187 -0.0942  0.2345 -0.1504
   37MOL   O65539607   7.971   7.308   3.258 -0.5370  0.0103 -0.3169
   37MOL   O65639608   7.747   7.324   3.128 -0.2696  0.5732  0.1113
   37MOL   C65739609   7.785   7.491   3.307  0.0970  0.3027  0.0992
   37MOL   C65839610   7.846   7.519   3.435  0.3628 -1.3316  0.8256
   37MOL   C65939611   7.777   7.593   3.530  0.8452  0.5251 -0.4839
   37MOL   C66039612   7.651   7.649   3.498 -0.3205 -0.2772 -0.2696
   37MOL   O66139613   7.566   7.716   3.585 -0.3672  0.2816  0.3196
   37MOL   C66239614   7.473   7.642   3.656  0.7367  1.0995  0.1619
   37MOL   C66339615   7.343   7.644   3.606 -0.8179  0.0626 -0.1783
   37MOL   C66439616   7.240   7.573   3.672 -0.2265  0.1953 -0.2608
   37MOL   C66539617   7.270   7.483   3.776 -0.0754 -0.1540  0.0501
   37MOL   C66639618   7.162   7.381   3.816  0.6764  0.3706  0.3913
   37MOL   C66739619   7.156   7.363   3.969 -0.6938  0.0567  0.0255
   37MOL   C66839620   7.021   7.418   3.775 -0.1394  0.3194 -0.3076
   37MOL   C66939621   7.186   7.245   3.746  0.0148 -0.6116  0.0244
   37MOL   C67039622   7.196   7.122   3.817  0.8563  0.6606  0.7754
   37MOL   C67139623   7.222   7.002   3.739 -0.2668 -0.5091 -0.2794
   37MOL   C67239624   7.231   7.011   3.604  0.6222  0.6680  0.2058
   37MOL   O67339625   7.270   6.898   3.542 -0.2990 -0.0914 -1.2618
   37MOL   C67439626   7.225   7.129   3.530 -0.4614  0.2722 -0.7542
   37MOL   C67539627   7.196   7.242   3.604 -0.0469  0.5868  1.0652
   37MOL   C67639628   7.402   7.482   3.833  0.8327 -0.8335 -0.3877
   37MOL   C67739629   7.504   7.563   3.770 -0.2278  0.1663 -0.4041
   37MOL   C67839630   7.598   7.631   3.368  0.0663  0.0134 -0.1769
   37MOL   C67939631   7.659   7.547   3.276  0.3975  0.2256 -0.0260
   37MOL   C68039632   7.881   7.616   3.026 -0.0653 -0.0994 -0.1334
   37MOL   C68139633   7.952   7.710   2.944  0.1876  0.8125 -0.6351
   37MOL   H68239634   8.244   7.535   2.889  0.7983  1.6672  0.3075
   37MOL   H68339635   8.120   7.376   3.039  1.5866 -0.0388 -2.7763
   37MOL   H68439636   7.938   7.468   3.461  0.0517 -1.9855  0.6730
   37MOL   H68539637   7.820   7.601   3.629  0.0896 -0.7832 -0.0441
   37MOL   H68639638   7.327   7.709   3.521 -0.2538  2.0460  1.1964
   37MOL   H68739639   7.148   7.572   3.616 -0.0660  1.4187 -0.5660
   37MOL   H68839640   7.242   7.306   4.003 -0.7887  0.6721  1.3364
   37MOL   H68939641   7.071   7.305   4.006 -1.7737  1.9851  0.6932
   37MOL   H69039642   7.163   7.458   4.022 -1.5000  0.8783 -1.3203
   37MOL   H69139643   6.987   7.512   3.820  1.0008  0.6686 -0.1453
   37MOL   H69239644   7.012   7.430   3.667  1.0686  0.7305 -0.3728
   37MOL   H69339645   6.943   7.345   3.797 -1.0898  1.5507  0.5077
   37MOL   H69439646   7.173   7.130   3.922 -1.1848  0.5236  0.3724
   37MOL   H69539647   7.234   6.907   3.790  2.1718  0.3946  0.9306
   37MOL   H69639648   7.233   7.130   3.423 -0.2292  0.1770 -0.7370
   37MOL   H69739649   7.184   7.333   3.547  0.3684 -0.3602 -0.5608
   37MOL   H69839650   7.426   7.405   3.905 -0.9037 -0.1713  0.9140
   37MOL   H69939651   7.610   7.553   3.791 -0.2066  1.8660  0.4520
   37MOL   H70039652   7.503   7.678   3.345 -0.2908 -0.6527 -0.0890
   37MOL   H70139653   7.612   7.537   3.180 -2.2868  3.1701  0.9121
   37MOL   H70239654   7.784   7.645   3.064  0.0097  1.8903 -1.3688
   37MOL   H70339655   7.896   7.799   2.918 -0.2077  0.9146  0.5378
   37MOL   C70439656   7.164   6.818   3.504  0.2363  0.3525  0.0697
   37MOL   C70539657   7.115   6.716   3.588 -0.4238  0.1882  0.3090
   37MOL   C70639658   7.028   6.614   3.542  0.3314 -0.1585  0.1708
   37MOL   C70739659   6.973   6.627   3.413  0.6640  0.0815  0.0609
   37MOL   S70839660   6.886   6.489   3.340  0.2332  0.1142 -0.1886
   37MOL   O70939661   6.955   6.364   3.387  0.7541 -0.5846  0.1227
   37MOL   O71039662   6.859   6.515   3.198  0.7476 -0.0990 -0.3450
   37MOL   C71139663   6.724   6.485   3.425 -0.2857 -0.2316  0.8320
   37MOL   C71239664   6.656   6.364   3.425  0.4710  0.1429  0.2363
   37MOL   C71339665   6.520   6.358   3.443  0.0000 -0.7827  0.5856
   37MOL   C71439666   6.455   6.472   3.484 -0.2347  0.2819 -0.2431
   37MOL   O71539667   6.327   6.465   3.507 -0.2777 -0.2064  0.5282
   37MOL   C71639668   6.285   6.500   3.631 -0.0621 -0.2955 -0.5370
   37MOL   C71739669   6.344   6.441   3.746  0.5476  0.2929  0.7753
   37MOL   C71839670   6.313   6.495   3.874  0.1875 -0.2007  0.3995
   37MOL   C71939671   6.207   6.586   3.896  0.5617 -0.5860 -0.1379
   37MOL   C72039672   6.160   6.638   4.032  0.5326  0.4917 -0.6024
   37MOL   C72139673   6.023   6.564   4.069 -0.6757  0.1183  0.1457
   37MOL   C72239674   6.255   6.614   4.144  0.1583 -0.5909  0.5069
   37MOL   C72339675   6.153   6.794   4.032  0.2651 -0.3218  0.2385
   37MOL   C72439676   6.256   6.869   3.964  0.4718 -0.0032 -0.0319
   37MOL   C72539677   6.253   7.008   3.971  0.1945  0.4078 -0.4434
   37MOL   C72639678   6.145   7.079   4.029 -0.9319  0.1516  0.4942
   37MOL   O72739679   6.133   7.218   4.030  0.5396  0.6810 -0.5901
   37MOL   C72839680   6.044   7.001   4.092  0.6181 -0.2043 -0.5389
   37MOL   C72939681   6.053   6.868   4.097 -0.4209 -0.3763  0.0669
   37MOL   C73039682   6.138   6.627   3.778  0.6196  0.0245 -0.3773
   37MOL   C73139683   6.178   6.587   3.651  0.5115  0.2867 -0.3390
   37MOL   C73239684   6.521   6.596   3.492 -0.2317 -0.7183  0.0991
   37MOL   C73339685   6.655   6.606   3.459 -0.6159 -0.7460  0.2702
   37MOL   C73439686   7.016   6.735   3.329  0.3449  0.2808 -0.2126
   37MOL   C73539687   7.107   6.826   3.374 -0.2891 -0.0289  0.2301
   37MOL   H73639688   7.150   6.698   3.688  0.7133 -0.4993 -0.1928
   37MOL   H73739689   7.005   6.527   3.601 -0.8790 -0.6331 -0.9943
   37MOL   H73839690   6.711   6.271   3.415  1.4590  0.5360  1.7985
   37MOL   H73939691   6.457   6.271   3.435 -2.0469  0.6838  0.1710
   37MOL   H74039692   6.425   6.370   3.735 -1.2946 -1.9441  1.2674
   37MOL   H74139693   6.382   6.474   3.954 -0.3851 -0.8077  0.7316
   37MOL   H74239694   5.982   6.612   4.158 -1.3859 -0.1001 -0.0595
   37MOL   H74339695   6.028   6.457   4.085  1.4209  0.3053  0.8527
   37MOL   H74439696   5.944   6.580   3.996  0.0311  1.8568 -0.2791
   37MOL   H74539697   6.263   6.506   4.155 -0.2830 -0.6753  0.0327
   37MOL   H74639698   6.349   6.669   4.133  0.5941 -1.5810 -0.8804
   37MOL   H74739699   6.203   6.643   4.235 -0.0612  1.6435 -0.2945
   37MOL   H74839700   6.340   6.822   3.916 -0.2250 -2.3150  0.9411
   37MOL   H74939701   6.325   7.065   3.914  2.1551 -1.8683 -0.3157
   37MOL   H75039702   5.957   7.056   4.127 -0.0646 -1.5294 -0.1258
   37MOL   H75139703   5.969   6.821   4.146  1.5259 -0.2008  3.7078
   37MOL   H75239704   6.047   6.684   3.790 -1.0997 -2.1553 -2.6818
   37MOL   H75339705   6.119   6.609   3.564 -1.1719  0.0448  0.7313
   37MOL   H75439706   6.461   6.683   3.514  2.4325  0.6547  2.2347
   37MOL   H75539707   6.712   6.698   3.455  2.3162 -2.4758  0.9397
   37MOL   H75639708   6.980   6.743   3.227 -0.0386  1.3460  0.0033
   37MOL   H75739709   7.131   6.908   3.307 -0.6064  2.1673  2.6991
   37MOL   C75839710   6.138   7.281   3.906  0.2013 -0.2719 -0.3263
   37MOL   C75939711   6.235   7.380   3.890 -0.1252  0.3855 -0.6946
   37MOL   C76039712   6.246   7.451   3.770  0.1674  0.0200  0.1928
   37MOL   C76139713   6.157   7.429   3.668  0.0197  0.4889  0.6446
   37MOL   S76239714   6.177   7.515   3.513 -0.4017  0.5736  0.0017
   37MOL   O76339715   6.112   7.443   3.401  0.8554  0.5823 -0.0782
   37MOL   O76439716   6.320   7.557   3.501 -0.2786 -0.0374  0.0695
   37MOL   C76539717   6.071   7.661   3.544  0.1370  0.3350  0.5209
   37MOL   C76639718   5.947   7.645   3.617 -0.1790 -0.0332 -0.6711
   37MOL   C76739719   5.872   7.757   3.651  0.2512  0.9324  0.2257
   37MOL   C76839720   5.909   7.884   3.603 -0.8871 -0.1509  0.4403
   37MOL   O76939721   5.832   8.000   3.629 -0.1112  0.2453  0.3580
   37MOL   C77039722   5.692   7.995   3.642  0.1141  0.6720  0.1561
   37MOL   C77139723   5.605   8.016   3.535  0.2012  0.4093 -0.2901
   37MOL   C77239724   5.466   7.996   3.557  0.2362  0.0313  0.3317
   37MOL   C77339725   5.415   7.963   3.690  0.2745 -0.2614 -0.3569
   37MOL   C77439726   5.261   7.936   3.713 -0.2256  0.4217  0.1511
   37MOL   C77539727   5.246   7.779   3.702  0.2202 -0.5993 -0.7933
   37MOL   C77639728   5.222   7.983   3.859 -0.1092  0.7910  0.6398
   37MOL   C77739729   5.185   8.013   3.604  1.1859 -0.3919 -0.2620
   37MOL   C77839730   5.135   7.948   3.493  0.4744 -0.4157 -0.7857
   37MOL   C77939731   5.074   8.020   3.387 -0.1075  0.2564 -0.6086
   37MOL   C78039732   5.053   8.161   3.394 -0.3491 -0.1115 -0.7659
   37MOL   O78139733   4.993   8.232   3.290  0.0942 -0.6807  0.3829
   37MOL   C78239734   5.097   8.225   3.521 -0.1190  0.6361 -0.5736
   37MOL   C78339735   5.158   8.154   3.622 -0.5797  0.7341 -0.7495
   37MOL   C78439736   5.505   7.950   3.792 -0.6358  0.1578  0.5429
   37MOL   C78539737   5.638   7.974   3.769 -0.0401 -0.7870 -0.1828
   37MOL   C78639738   6.027   7.899   3.520  0.5607  0.6009  0.3788
   37MOL   C78739739   6.104   7.789   3.487 -0.3080 -0.2648 -0.2749
   37MOL   C78839740   6.052   7.333   3.681 -0.3490 -0.3811 -0.1712
   37MOL   C78939741   6.039   7.262   3.804  0.3792 -0.7541 -0.2238
   37MOL   H79039742   6.311   7.398   3.965 -1.5952  0.9588  0.6769
   37MOL   H79139743   6.333   7.514   3.756  0.8197 -0.3179  2.4955
   37MOL   H79239744   5.909   7.548   3.645  1.6621 -0.3032  1.0304
   37MOL   H79339745   5.782   7.744   3.710  0.8938  3.0148  1.7173
   37MOL   H79439746   5.636   8.021   3.432  0.2762  1.4338 -0.2204
   37MOL   H79539747   5.405   7.989   3.468 -1.4177 -0.2178  1.4687
   37MOL   H79639748   5.288   7.751   3.606  2.8772  1.2555 -0.2292
   37MOL   H79739749   5.142   7.749   3.719 -0.3180  1.2711 -0.6542
   37MOL   H79839750   5.301   7.712   3.769  0.3308 -1.3150 -1.5900
   37MOL   H79939751   5.115   7.972   3.878  0.0672 -0.6787  0.8395
   37MOL   H80039752   5.273   7.925   3.937 -0.7391 -2.4260 -1.2351
   37MOL   H80139753   5.255   8.086   3.875 -1.0680  1.5001 -1.7833
   37MOL   H80239754   5.164   7.845   3.476  1.6658 -0.4492  1.2936
   37MOL   H80339755   5.040   7.967   3.299  0.7040  0.7317 -1.2138
   37MOL   H80439756   5.080   0.077   3.532 -2.1274  0.1623  1.0688
   37MOL   H80539757   5.185   8.208   3.711 -1.5100 -0.2714  0.1652
   37MOL   H80639758   5.484   7.917   3.893  1.4945 -2.7073  0.1056
   37MOL   H80739759   5.705   7.962   3.853 -0.1054 -1.9096 -0.2724
   37MOL   H80839760   6.046   8.000   3.488  2.6907  0.9069  2.5234
   37MOL   H80939761   6.198   7.809   3.438 -0.5488  0.0774 -0.6010
   37MOL   H81039762   5.983   7.319   3.600 -0.4463 -2.4381  0.2388
   37MOL   H81139763   5.949   7.207   3.825 -1.4582  2.4816  0.6714
   37MOL   C81239764   5.059   0.098   3.260  0.4258  0.1499  0.4368
   37MOL   C81339765   4.975   0.216   3.262 -0.2693 -0.1924 -0.4726
   37MOL   C81439766   5.041   0.342   3.241  0.0841  0.2559 -0.2928
   37MOL   C81539767   5.181   0.348   3.214  0.3668 -0.4489 -0.1588
   37MOL   S81639768   5.265   0.507   3.186 -0.2292 -0.1297  0.1578
   37MOL   O81739769   5.161   0.614   3.169 -0.0975  0.8501 -0.2370
   37MOL   O81839770   5.363   0.492   3.077 -0.4044 -0.5570 -0.1537
   37MOL   C81939771   5.366   0.516   3.338 -0.1236  0.3214  0.2167
   37MOL   C82039772   5.507   0.505   3.334  0.3520  0.0310 -0.6538
   37MOL   C82139773   5.584   0.504   3.453  0.1977 -0.5110 -0.5249
   37MOL   C82239774   5.514   0.501   3.572 -0.5260 -1.1053 -1.2224
   37MOL   O82339775   5.583   0.480   3.686  0.1755  0.5669 -0.3808
   37MOL   C82439776   5.668   0.578   3.734  0.1211 -0.2554  0.7057
   37MOL   C82539777   5.620   0.656   3.842 -0.5042 -0.7405  0.5508
   37MOL   C82639778   5.701   0.752   3.913  0.8289  0.9113 -0.0212
   37MOL   C82739779   5.840   0.763   3.878  0.1857  0.6397 -0.5701
   37MOL   C82839780   5.941   0.859   3.949  0.2051  1.0482 -0.2602
   37MOL   C82939781   5.969   0.976   3.859 -0.0174 -0.2286 -0.2266
   37MOL   C83039782   5.873   0.909   4.075 -0.1392 -0.0359  0.1235
   37MOL   C83139783   6.062   0.774   3.995  0.4838 -0.0823  0.6463
   37MOL   C83239784   6.050   0.654   4.070 -0.1699 -0.0899 -0.3300
   37MOL   C83339785   6.164   0.580   4.111  0.0480 -0.4632  0.9119
   37MOL   C83439786   6.290   0.629   4.078  0.4504 -0.0966  0.2707
   37MOL   O83539787   6.401   0.583   4.131 -0.4171  0.2180  0.4653
   37MOL   C83639788   6.304   0.745   4.002 -0.6058 -0.4352 -0.2294
   37MOL   C83739789   6.191   0.816   3.963  0.8724 -0.3788 -0.6939
   37MOL   C83839790   5.889   0.689   3.771  0.0029 -0.0735  0.2406
   37MOL   C83939791   5.804   0.601   3.696  0.4315  0.1997  0.3607
   37MOL   C84039792   5.371   0.513   3.580  0.3886 -0.6661  0.9504
   37MOL   C84139793   5.296   0.530   3.461 -0.1397 -0.3186  0.6546
   37MOL   C84239794   5.256   0.227   3.198  0.2582  0.3024  0.2724
   37MOL   C84339795   5.196   0.103   3.224  0.9328  0.4443  0.8819
   37MOL   H84439796   4.875   0.203   3.299 -0.1894  2.2757  0.6658
   37MOL   H84539797   4.987   0.435   3.249  1.3416  0.8971  0.7543
   37MOL   H84639798   5.555   0.510   3.237  0.2090  0.3631 -0.7071
   37MOL   H84739799   5.691   0.492   3.444  0.4477  0.8606  0.4910
   37MOL   H84839800   5.519   0.642   3.878 -1.3678  1.6538 -0.8686
   37MOL   H84939801   5.653   0.802   3.996  1.6602 -0.2733  1.1971
   37MOL   H85039802   5.879   1.019   3.817 -0.0279 -0.4931 -0.4764
   37MOL   H85139803   6.033   0.949   3.775 -1.7786  1.8711 -2.3086
   37MOL   H85239804   6.024   1.053   3.913  0.0015  0.8494 -1.7475
   37MOL   H85339805   5.798   0.984   4.048 -0.0506 -0.2301 -0.6686
   37MOL   H85439806   5.828   0.831   4.136  0.2451  0.1547  0.6504
   37MOL   H85539807   5.936   0.951   4.153 -0.3172 -0.0181  0.2604
   37MOL   H85639808   5.956   0.607   4.096  0.0041 -0.0981  0.3027
   37MOL   H85739809   6.157   0.491   4.171 -0.4779 -0.1981  1.2485
   37MOL   H85839810   6.404   0.776   3.978 -0.4586  1.0535  2.1927
   37MOL   H85939811   6.205   0.914   3.918  1.0821  0.5521  1.3412
   37MOL   H86039812   5.992   0.694   3.740 -0.6518  2.5035 -1.6940
   37MOL   H86139813   5.855   0.534   3.629  1.0752  0.1940  0.8471
   37MOL   H86239814   5.325   0.507   3.677 -1.5601  0.5323  0.1288
   37MOL   H86339815   5.189   0.537   3.468 -0.0231  1.5014  0.7181
   37MOL   H86439816   5.360   0.235   3.171  0.5153 -0.8209  0.8761
   37MOL   H86539817   5.255   0.013   3.220  1.9238  0.8551  4.6413
   37MOL   C86639818   6.407   0.549   4.265  0.3481 -0.0403 -0.1393
   37MOL   C86739819   6.465   0.424   4.299 -0.1270 -0.6711 -0.4540
   37MOL   C86839820   6.479   0.386   4.431 -0.0226  0.1438 -0.4192
   37MOL   C86939821   6.431   0.470   4.529  0.0366  0.1996  0.4986
   37MOL   S87039822   6.456   0.414   4.702  0.2426  0.5601 -0.6610
   37MOL   O87139823   6.513   0.525   4.777 -0.6256  0.0052  0.4036
   37MOL   O87239824   6.514   0.284   4.708  0.1007 -0.4837 -0.3856
   37MOL   C87339825   6.282   0.390   4.760  0.4666 -0.4386 -0.3258
   37MOL   C87439826   6.185   0.341   4.670  0.1633 -0.1413  0.0283
   37MOL   C87539827   6.059   0.296   4.723 -0.7418  0.2783  0.5286
   37MOL   C87639828   6.037   0.312   4.862 -0.7441 -0.2749 -0.5668
   37MOL   O87739829   5.918   0.279   4.924 -0.6211 -0.5715  0.2865
   37MOL   C87839830   5.813   0.234   4.852  0.3634  0.4052 -0.3343
   37MOL   C87939831   5.788   0.099   4.814 -0.2652  0.1688  0.6089
   37MOL   C88039832   5.685   0.068   4.719 -0.1582 -0.1366 -0.3068
   37MOL   C88139833   5.604   0.169   4.662  0.4390 -0.1091 -0.3003
   37MOL   C88239834   5.514   0.126   4.544  0.2692 -0.2692  0.7322
   37MOL   C88339835   5.425   0.010   4.586 -0.2268 -0.3019 -0.4398
   37MOL   C88439836   5.418   0.244   4.494  0.3209  0.0840  0.4342
   37MOL   C88539837   5.598   0.070   4.426 -0.1343 -0.9863 -1.0891
   37MOL   C88639838   5.733   0.098   4.408  0.4388  0.2077  0.2573
   37MOL   C88739839   5.809   0.054   4.297  0.5667 -0.4805  0.4477
   37MOL   C88839840   5.738   0.006   4.186  0.0099  0.1513  0.2585
   37MOL   O88939841   5.804   8.228   4.069  0.1407  0.2139 -0.4732
   37MOL   C89039842   5.603   8.228   4.201  0.0739 -0.2392  0.4158
   37MOL   C89139843   5.534   0.007   4.320  0.1264 -0.2926  0.5508
   37MOL   C89239844   5.619   0.298   4.708 -0.7197 -0.5083 -0.7301
   37MOL   C89339845   5.720   0.328   4.798 -0.0109 -0.2885 -0.0434
   37MOL   C89439846   6.133   0.375   4.944 -0.7606 -0.0949  0.0594
   37MOL   C89539847   6.257   0.410   4.897 -0.3821  0.2676  0.1885
   37MOL   C89639848   6.358   0.588   4.499 -0.0054  0.0821 -0.5893
   37MOL   C89739849   6.353   0.629   4.364 -0.0071 -0.4065  1.1591
   37MOL   H89839850   6.504   0.360   4.221 -2.1907  0.5006 -2.5146
   37MOL   H89939851   6.520   0.289   4.455  1.4694  1.4045  2.3629
   37MOL   H90039852   6.214   0.316   4.569 -0.0055 -0.5583  0.0823
   37MOL   H90139853   5.984   0.252   4.659  0.5407 -0.0770 -0.7906
   37MOL   H90239854   5.862   0.026   4.844 -1.1266 -1.3605 -0.8906
   37MOL   H90339855   5.674   8.214   4.706  1.5112 -0.0498 -2.7062
   37MOL   H90439856   5.360   0.040   4.669  0.0492 -0.9066  0.0011
   37MOL   H90539857   5.483   8.172   4.596 -0.0768 -0.4629 -2.6516
   37MOL   H90639858   5.350   8.243   4.510  0.4066 -3.5214 -0.2590
   37MOL   H90739859   5.481   0.320   4.450  0.3221  0.2027  0.6410
   37MOL   H90839860   5.349   0.218   4.413  1.8726 -0.2073 -0.8249
   37MOL   H90939861   5.369   0.283   4.583 -0.4723  1.5725 -0.6350
   37MOL   H91039862   5.788   0.141   4.490 -0.0360  2.3605 -0.5339
   37MOL   H91139863   5.913   0.079   4.286 -0.0408  2.8701  1.7937
   37MOL   H91239864   5.555   8.181   4.116  0.8148  1.0677 -0.7453
   37MOL   H91339865   5.427   0.011   4.313  0.1729 -0.2060 -0.2072
   37MOL   H91439866   5.565   0.384   4.672 -0.3549  0.3960  0.8535
   37MOL   H91539867   5.729   0.432   4.828  2.5440  0.0383 -1.7504
   37MOL   H91639868   6.119   0.385   5.051 -1.2101 -2.2967  0.2276
   37MOL   H91739869   6.334   0.443   4.966 -0.0143  1.2426 -0.6708
   37MOL   H91839870   6.326   0.656   4.577  0.9226  0.4855 -0.5537
   37MOL   H91939871   6.308   0.722   4.332  2.8308  0.7527  0.4396
   37MOL   C92039872   5.854   8.108   4.038 -0.9682  0.5205  0.4176
   37MOL   C92139873   5.824   7.993   4.112 -0.5518  0.6129  0.5657
   37MOL   C92239874   5.889   7.868   4.095 -0.3807 -0.5148 -0.7375
   37MOL   C92339875   5.979   7.865   3.987  0.4185 -0.3593 -0.2326
   37MOL   S92439876   6.088   7.718   3.976  0.1523 -0.3226 -0.0347
   37MOL   O92539877   6.203   7.746   3.890 -0.0339 -0.1853 -0.6208
   37MOL   O92639878   6.005   7.602   3.941 -0.5708 -0.1619  0.3085
   37MOL   C92739879   6.149   7.704   4.153  0.1101  0.3098 -0.1001
   37MOL   C92839880   6.191   7.824   4.214 -0.2271  0.7963 -0.5306
   37MOL   C92939881   6.218   7.823   4.351 -0.0832 -0.5668 -0.9811
   37MOL   C93039882   6.216   7.703   4.420  0.6524 -0.6535  0.4038
   37MOL   O93139883   6.251   7.703   4.553 -0.3134 -0.1019 -0.1081
   37MOL   C93239884   6.379   7.666   4.584  0.0897 -0.2406 -0.3816
   37MOL   C93339885   6.479   7.763   4.564  0.6295  0.5726 -0.6689
   37MOL   C93439886   6.610   7.738   4.617  0.2588 -0.3292 -0.5342
   37MOL   C93539887   6.648   7.614   4.676 -0.5620  0.2331 -0.0478
   37MOL   C93639888   6.795   7.586   4.726  0.6731  0.4120  0.5089
   37MOL   C93739889   6.801   7.574   4.880 -0.4312 -0.8741 -0.7670
   37MOL   C93839890   6.844   7.449   4.678 -0.4187 -0.3879  0.3850
   37MOL   C93939891   6.886   7.696   4.673  0.3707  0.3460  0.1530
   37MOL   C94039892   6.923   7.805   4.758 -0.0305  0.9710  0.0334
   37MOL   C94139893   7.007   7.906   4.706  0.5396  0.4601  0.6187
   37MOL   C94239894   7.062   7.898   4.574  0.2439 -0.6384  0.3752
   37MOL   O94339895   7.149   7.991   4.521 -0.7420 -0.1233  0.8389
   37MOL   C94439896   7.018   7.796   4.493  0.4533 -0.4392 -0.1298
   37MOL   C94539897   6.928   7.697   4.537 -0.2108  0.3419 -0.2239
   37MOL   C94639898   6.544   7.519   4.690 -0.8898  0.0562 -0.3841
   37MOL   C94739899   6.412   7.545   4.644  0.6860  0.9319  0.8571
   37MOL   C94839900   6.177   7.580   4.355  0.0358  0.0523 -0.1527
   37MOL   C94939901   6.139   7.583   4.216  0.4607 -0.0015 -0.3441
   37MOL   C95039902   6.008   7.971   3.906  0.7611 -0.0708  0.7947
   37MOL   C95139903   5.952   8.095   3.937 -0.1365 -0.2572  0.5925
   37MOL   H95239904   5.751   7.993   4.191 -0.7893 -2.1693  0.4067
   37MOL   H95339905   5.870   7.784   4.161  0.2223  0.9363  1.3234
   37MOL   H95439906   6.180   7.925   4.176 -0.7108  1.5314  1.4958
   37MOL   H95539907   6.240   7.912   4.409 -0.4357 -1.2083  0.1666
   37MOL   H95639908   6.453   7.856   4.517 -0.4565  0.1092 -0.9906
   37MOL   H95739909   6.691   7.809   4.624 -0.1137  0.0594 -0.1211
   37MOL   H95839910   6.764   7.659   4.937  2.0453 -0.2109 -0.0505
   37MOL   H95939911   6.907   7.558   4.901 -0.5095  0.2987  0.6086
   37MOL   H96039912   6.746   7.493   4.928 -0.7946 -0.5105 -0.5693
   37MOL   H96139913   6.952   7.440   4.690  0.3051  3.9976 -1.7857
   37MOL   H96239914   6.783   7.375   4.730 -0.6553  0.8933  2.0150
   37MOL   H96339915   6.835   7.437   4.570  0.7723  0.8211  0.1343
   37MOL   H96439916   6.899   7.813   4.863  0.3184 -0.4828  0.2300
   37MOL   H96539917   7.020   7.983   4.780 -2.7248  0.4002  1.2867
   37MOL   H96639918   7.051   7.791   4.390  1.1638 -3.1729  0.1713
   37MOL   H96739919   6.892   7.625   4.464  1.0934 -1.8440  1.2248
   37MOL   H96839920   6.559   7.425   4.741 -1.0617  0.1682 -0.1286
   37MOL   H96939921   6.339   7.465   4.650  2.3062 -0.5051  2.2557
   37MOL   H97039922   6.184   7.490   4.415 -1.5109  0.7185  1.0383
   37MOL   H97139923   6.111   7.490   4.168  0.1640 -0.7376  1.2138
   37MOL   H97239924   6.074   7.948   3.823  0.0539 -0.3905  0.3193
   37MOL   H97339925   5.996   8.173   3.877 -1.7751 -0.8386 -1.4134
   37MOL   C97439926   7.273   7.998   4.581  0.4157  0.3422  0.6547
   37MOL   C97539927   7.334   8.125   4.597 -0.4796  0.3447 -0.5932
   37MOL   C97639928   7.459   8.138   4.663  0.3389  0.1248 -0.1564
   37MOL   C97739929   7.524   8.020   4.709  0.6179 -0.0172 -0.4148
   37MOL   S97839930   7.677   8.041   4.804 -0.2176 -0.3873 -0.0830
   37MOL   O97939931   7.769   8.124   4.725  0.4585 -0.2245 -0.3057
   37MOL   O98039932   7.715   7.902   4.828 -0.4717  0.0219 -0.0945
   37MOL   C98139933   7.633   8.123   4.961 -0.6837 -0.6430  0.6587
   37MOL   C98239934   7.613   0.007   4.959  0.8380  0.7525 -0.3727
   37MOL   C98339935   7.576   0.066   5.080  0.2002  0.5297 -0.1434
   37MOL   C98439936   7.578   8.250   5.200  0.7532  0.0398 -0.1118
   37MOL   O98539937   7.543   0.058   5.321 -0.7965  0.2759 -0.2033
   37MOL   C98639938   7.406   0.088   5.352 -0.5122  0.6565  0.2516
   37MOL   C98739939   7.382   0.227   5.379  0.8714 -0.6349 -0.0455
   37MOL   C98839940   7.249   0.269   5.393  0.7050  0.0017  0.5080
   37MOL   C98939941   7.143   0.172   5.398  0.0812 -0.6612 -0.0767
   37MOL   C99039942   6.998   0.220   5.416  0.1242 -0.1327  0.3175
   37MOL   C99139943   6.991   0.368   5.457 -0.1543  0.1067 -0.4587
   37MOL   C99239944   6.936   0.217   5.273  0.4732 -0.3354 -0.0714
   37MOL   C99339945   6.921   0.129   5.515 -0.1515  0.2157  0.2234
   37MOL   C99439946   6.801   0.061   5.482  0.8085 -0.3350  0.1943
   37MOL   C99539947   6.746   8.227   5.580  0.0825 -0.6922  0.9815
   37MOL   C99639948   6.806   8.219   5.708 -0.2550 -0.0387 -0.0134
   37MOL   O99739949   6.742   8.141   5.801 -0.0315 -0.0643 -0.2286
   37MOL   C99839950   6.921   0.032   5.737  0.5295 -0.6210  0.4190
   37MOL   C99939951   6.984   0.108   5.637  0.0613 -0.0129 -0.0451
   37MOL     C139952   7.164   0.035   5.376  0.6131 -0.0927 -0.5716
   37MOL     C239953   7.296   8.242   5.344 -0.1019 -0.0495  0.0284
   37MOL     C339954   7.600   8.112   5.204  0.2271 -0.0165  0.6180
   37MOL     C439955   7.627   8.054   5.081 -0.3918  0.6897 -0.0253
   37MOL     C539956   7.459   7.898   4.695 -0.1946  0.0354 -0.1700
   37MOL     C639957   7.338   7.886   4.636  0.2168 -0.3278  0.2012
   37MOL     H739958   7.294   8.221   4.571  1.5924  1.4779  0.3344
   37MOL     H839959   7.514   8.231   4.664 -2.5246  1.8657  0.0021
   37MOL     H939960   7.618   0.070   4.871  0.9866  0.4395 -0.5892
   37MOL    H1039961   7.562   0.173   5.084  0.9765  0.5870  1.5901
   37MOL    H1139962   7.458   0.304   5.375 -0.7931  1.0882  0.7527
   37MOL    H1239963   7.228   0.372   5.417  0.3287 -0.3632  1.7637
   37MOL    H1339964   6.890   0.402   5.478  0.0238 -2.6095  5.6701
   37MOL    H1439965   7.025   0.432   5.375 -3.7905  1.5457 -0.9254
   37MOL    H1539966   7.045   0.396   5.548  0.7314 -2.7941 -0.0306
   37MOL    H1639967   6.996   0.283   5.210  1.2924 -0.4682  0.5660
   37MOL    H1739968   6.937   0.118   5.226 -1.9260  0.9776 -3.0767
   37MOL    H1839969   6.832   0.250   5.262  0.7434  0.2061 -1.0552
   37MOL    H1939970   6.751   0.076   5.388  1.1669 -0.8531 -0.0815
   37MOL    H2039971   6.644   8.193   5.569 -0.4046  1.3100 -0.8233
   37MOL    H2139972   6.967   0.041   5.835  1.0335  2.6533 -0.0380
   37MOL    H2239973   7.069   0.169   5.664  0.4267 -1.0224  1.1828
   37MOL    H2339974   7.086   8.216   5.394 -0.7449  1.6140  0.6009
   37MOL    H2439975   7.315   8.138   5.320 -1.3454  0.0667 -1.5641
   37MOL    H2539976   7.597   8.054   5.295 -1.7086  0.3964  0.8439
   37MOL    H2639977   7.633   7.946   5.079 -0.8334  0.6688 -0.4824
   37MOL    H2739978   7.515   7.814   4.734 -1.9481 -0.3888  1.5113
   37MOL    H2839979   7.295   7.788   4.626  1.8729 -1.0922  0.4720
   37MOL    C2939980   6.659   8.198   5.898 -0.2692  0.2582  0.8370
   37MOL    C3039981   6.527   8.236   5.864  0.7422  0.2965 -0.0697
   37MOL    C3139982   6.445   0.043   5.964  0.3906  0.0542 -0.1529
   37MOL    C3239983   6.494   0.065   6.094 -0.0571  0.4630  0.2679
   37MOL    S3339984   6.389   0.132   6.224  0.1134  0.1872 -0.6421
   37MOL    O3439985   6.464   0.252   6.266 -0.1176 -0.4049  0.4644
   37MOL    O3539986   6.372   0.017   6.318 -0.1654 -0.3808  0.0434
   37MOL    C3639987   6.231   0.178   6.155  0.1570 -0.2304 -0.3034
   37MOL    C3739988   6.210   0.305   6.096 -0.3746  0.3176  0.0300
   37MOL    C3839989   6.077   0.337   6.053 -0.5748  0.3828  0.3769
   37MOL    C3939990   5.973   0.239   6.058 -0.3176 -0.0944 -0.5269
   37MOL    O4039991   5.841   0.273   6.012 -0.1593  0.3170  0.2438
   37MOL    C4139992   5.731   0.262   6.097 -0.5768  1.0383 -0.0452
   37MOL    C4239993   5.725   0.324   6.227  0.4232 -0.9470 -0.4691
   37MOL    C4339994   5.605   0.310   6.304  0.5212 -1.2035  0.0118
   37MOL    C4439995   5.499   0.225   6.265  0.5057 -0.0600 -0.5636
   37MOL    C4539996   5.378   0.195   6.355  0.4430  0.2454  0.7987
   37MOL    C4639997   5.386   0.050   6.403 -0.3365 -0.3385 -0.2894
   37MOL    C4739998   5.375   0.286   6.481 -0.2284 -0.0391 -0.5231
   37MOL    C4839999   5.252   0.228   6.276  0.0077 -0.6193  0.2704
   37MOL    C4940000   5.158   0.125   6.249 -0.2644  0.3543 -0.7352
   37MOL    C5040001   5.033   0.155   6.189  1.1832 -0.2973  0.6420
   37MOL    C5140002   5.007   0.287   6.135  0.3786  0.3172  0.3051
   37MOL    O5240003   4.883   0.312   6.075 -0.3254  0.0573 -0.3693
   37MOL    C5340004   5.109   0.383   6.149 -0.3699  0.2087  0.3158
   37MOL    C5440005   5.231   0.351   6.213 -0.1126 -0.6759 -0.0089
   37MOL    C5540006   5.513   0.154   6.144 -0.8272 -0.0771 -0.1826
   37MOL    C5640007   5.625   0.176   6.060  0.4682  0.4985 -0.2695
   37MOL    C5740008   6.002   0.110   6.108 -0.4746  0.9634  0.6351
   37MOL    C5840009   6.128   0.077   6.156 -0.0551  0.0170 -0.3480
   37MOL    C5940010   6.629   0.034   6.115  0.6062  0.4594  0.0484
   37MOL    C6040011   6.709   8.216   6.024 -0.4108 -0.5181  0.3756
   37MOL    H6140012   6.496   8.226   5.761  0.4399  1.1933 -0.0703
   37MOL    H6240013   6.350   0.069   5.920  0.2490  0.4780  0.3937
   37MOL    H6340014   6.287   0.380   6.103  0.1342 -0.3588  2.3176
   37MOL    H6440015   6.051   0.434   6.011  1.1286 -0.0832 -1.8844
   37MOL    H6540016   5.811   0.378   6.262  0.5019 -0.3113 -1.6146
   37MOL    H6640017   5.598   0.375   6.390  0.1099  0.6301 -1.3626
   37MOL    H6740018   5.369   8.233   6.322 -0.6648  0.1017 -0.6094
   37MOL    H6840019   5.316   0.031   6.484  0.8191 -0.6498  0.6472
   37MOL    H6940020   5.486   0.037   6.443  0.1622 -0.3091 -1.5102
   37MOL    H7040021   5.370   0.389   6.447  2.3139  1.0401  2.1979
   37MOL    H7140022   5.295   0.260   6.550 -0.4787 -2.2267 -1.5888
   37MOL    H7240023   5.470   0.281   6.534 -1.3482 -0.1503  1.5265
   37MOL    H7340024   5.166   0.024   6.286 -0.7757  1.1141  1.5641
   37MOL    H7440025   4.962   0.074   6.178 -0.0855  0.6486  1.5860
   37MOL    H7540026   5.095   0.479   6.102  0.5152  0.0452 -0.2849
   37MOL    H7640027   5.302   0.432   6.220 -1.1706  0.1604  1.4963
   37MOL    H7740028   5.436   0.086   6.112 -0.8401  0.1070 -0.5433
   37MOL    H7840029   5.617   0.135   5.961  0.5600 -0.3522  0.0733
   37MOL    H7940030   5.926   0.034   6.119  0.5631  0.0879  1.9175
   37MOL    H8040031   6.149   8.233   6.196  0.1347  0.0856 -0.2776
   37MOL    H8140032   6.671   0.052   6.213  1.5824 -0.7808 -0.1266
   37MOL    H8240033   6.804   8.180   6.061 -0.7587 -0.4439  1.3708
   37MOL    H8340034   4.881   0.277   5.987  2.5098 -1.9941  0.2943
   38MOL     C140035   2.831   4.033   4.412  0.4785 -0.5400 -0.0468
   38MOL     C240036   2.849   3.952   4.291 -0.2527 -0.0622 -0.1749
   38MOL     C340037   2.733   3.924   4.211  1.0027  0.0201 -0.5149
   38MOL     C440038   2.608   3.981   4.245 -0.2891 -0.0064  0.6975
   38MOL     S540039   2.464   3.948   4.146  0.2177 -0.1123 -0.0670
   38MOL     O640040   2.347   3.970   4.230 -0.3742 -0.0284 -0.5606
   38MOL     O740041   2.477   3.823   4.065 -0.3847  0.2508  0.2225
   38MOL     C840042   2.453   4.076   4.024 -0.0855  0.4094 -0.1223
   38MOL     C940043   2.564   4.152   3.997 -0.6307 -0.5160  0.4928
   38MOL    C1040044   2.562   4.236   3.885 -0.0171  0.6441 -0.0669
   38MOL    C1140045   2.442   4.257   3.811  0.2415 -0.2261 -0.2901
   38MOL    O1240046   2.449   4.343   3.706 -0.1222 -0.0328  0.0469
   38MOL    C1340047   2.422   4.477   3.723  0.0857 -0.0469 -0.7286
   38MOL    C1440048   2.357   4.545   3.619  0.3515  0.4098  0.2280
   38MOL    C1540049   2.333   4.684   3.635 -0.5306  0.2486  0.2689
   38MOL    C1640050   2.346   4.753   3.760  0.0208  0.2094  0.2474
   38MOL    C1740051   2.302   4.900   3.775 -0.5530 -0.2153  0.4982
   38MOL    C1840052   2.175   4.920   3.689  0.0915 -0.5028  0.3775
   38MOL    C1940053   2.260   4.930   3.924  0.5413 -0.1230  0.4824
   38MOL    C2040054   2.419   4.982   3.715 -0.7765  1.0048 -0.3045
   38MOL    C2140055   2.496   5.054   3.804  0.3386 -0.4519 -0.1294
   38MOL    C2240056   2.603   5.131   3.758  0.0139  0.4677 -0.0674
   38MOL    C2340057   2.640   5.131   3.624  0.0916  0.0724  0.6896
   38MOL    O2440058   2.748   5.203   3.576 -0.2982  0.1275 -0.3712
   38MOL    C2540059   2.555   5.072   3.534 -0.0860 -0.5202  0.2844
   38MOL    C2640060   2.446   5.006   3.578 -0.3396  0.1577  1.1135
   38MOL    C2740061   2.412   4.683   3.858  0.2247 -0.1483 -0.3386
   38MOL    C2840062   2.449   4.547   3.845 -0.2635  0.5605 -0.0650
   38MOL    C2940063   2.325   4.186   3.849 -0.0028  0.6470  0.0735
   38MOL    C3040064   2.325   4.101   3.958  1.1456 -0.4244  0.5427
   38MOL    C3140065   2.596   4.062   4.360 -0.1774 -0.0153 -0.0568
   38MOL    C3240066   2.708   4.088   4.441  0.1035  0.2607 -0.3628
   38MOL    H3340067   2.943   3.902   4.276 -0.6894 -0.2077 -2.6424
   38MOL    H3440068   2.737   3.859   4.125 -1.9188 -0.5028 -0.3383
   38MOL    H3540069   2.662   4.129   4.037 -0.9381 -0.6833  1.1466
   38MOL    H3640070   2.654   4.277   3.846  0.6905 -0.4768  0.3929
   38MOL    H3740071   2.330   4.507   3.521  0.7238  2.3332 -0.6547
   38MOL    H3840072   2.293   4.734   3.548  1.0934  1.5250  0.2285
   38MOL    H3940073   2.154   5.027   3.681 -0.1633 -0.5729  0.0975
   38MOL    H4040074   2.094   4.864   3.736 -0.7621 -1.4638 -2.1627
   38MOL    H4140075   2.187   4.883   3.587  0.9134 -0.8065  0.5842
   38MOL    H4240076   2.205   5.024   3.931  0.1574 -0.4416  1.7613
   38MOL    H4340077   2.191   4.850   3.950 -1.1025  0.7791 -0.9353
   38MOL    H4440078   2.337   4.924   4.001 -0.3638 -1.1849  1.3211
   38MOL    H4540079   2.475   5.050   3.910  2.1973  1.2311  0.3198
   38MOL    H4640080   2.666   5.176   3.833 -0.9270 -0.0805  1.0660
   38MOL    H4740081   2.582   5.080   3.429 -1.4006 -0.0801 -0.0345
   38MOL    H4840082   2.372   4.962   3.513  1.4185 -0.7896 -0.3047
   38MOL    H4940083   2.436   4.745   3.943 -1.3971 -1.2909  1.0054
   38MOL    H5040084   2.508   4.498   3.921 -0.1820  1.6385  0.5842
   38MOL    H5140085   2.233   4.192   3.794 -0.5879 -3.0344  0.5153
   38MOL    H5240086   2.248   4.032   3.988  1.1148 -2.0101 -2.9155
   38MOL    H5340087   2.493   4.087   4.381  0.8175  3.6278  0.8735
   38MOL    H5440088   2.698   4.161   4.520  1.7353 -0.0279  0.1211
   38MOL    H5540089   2.921   4.060   4.464 -0.5714  0.3155  1.3404
   38MOL    C5640090   2.856   5.136   3.524 -0.2992 -0.0319 -0.1053
   38MOL    C5740091   2.884   5.001   3.556 -0.1336 -0.0395 -0.0285
   38MOL    C5840092   2.999   4.937   3.509  0.0953 -0.5405  0.4555
   38MOL    C5940093   3.091   5.007   3.430  0.2608  0.3128 -0.0822
   38MOL    S6040094   3.246   4.924   3.380  0.2354 -0.0697  0.5208
   38MOL    O6140095   3.226   4.780   3.372 -0.5046 -0.3813 -0.1385
   38MOL    O6240096   3.357   4.980   3.461 -0.5307 -0.1068  0.3806
   38MOL    C6340097   3.268   4.971   3.211  0.0788  0.5314 -0.2174
   38MOL    C6440098   3.164   4.937   3.116  0.0007 -0.3500  0.1057
   38MOL    C6540099   3.181   4.977   2.983 -0.4251  0.1308  0.3991
   38MOL    C6640100   3.292   5.062   2.948 -0.0682 -0.0916 -0.7574
   38MOL    O6740101   3.315   5.102   2.820  0.5165  0.6286 -0.1682
   38MOL    C6840102   3.431   5.158   2.778  0.4517 -0.3692  0.3708
   38MOL    C6940103   3.479   5.287   2.826  0.5244  0.2820  0.3050
   38MOL    C7040104   3.601   5.340   2.782 -0.6937 -0.6175  0.2362
   38MOL    C7140105   3.685   5.272   2.690 -0.3364  0.5594  0.3064
   38MOL    C7240106   3.822   5.345   2.652 -0.0434 -0.2788  0.1528
   38MOL    C7340107   3.894   5.367   2.785  0.2945 -0.0305  0.1727
   38MOL    C7440108   3.913   5.249   2.562  0.4453 -0.0791  0.8128
   38MOL    C7540109   3.797   5.475   2.574  0.2669 -0.2058  0.2493
   38MOL    C7640110   3.726   5.475   2.450  0.0639 -0.5262 -0.2707
   38MOL    C7740111   3.686   5.595   2.386  0.2715  0.1078  0.4899
   38MOL    C7840112   3.727   5.719   2.435  0.6831  0.3368  0.1205
   38MOL    O7940113   3.711   5.837   2.368  0.3191  0.2292  0.1402
   38MOL    C8040114   3.803   5.720   2.550 -1.0841  0.0876 -0.0939
   38MOL    C8140115   3.843   5.603   2.617  0.1995 -0.3821 -0.1680
   38MOL    C8240116   3.633   5.149   2.643 -0.7129 -0.6508  0.1535
   38MOL    C8340117   3.511   5.085   2.687  0.7314  0.2112 -0.3072
   38MOL    C8440118   3.384   5.106   3.046  0.1499  0.0321  0.1460
   38MOL    C8540119   3.374   5.056   3.174 -0.2728 -1.0139  0.5350
   38MOL    C8640120   3.057   5.144   3.397 -0.0019  0.6435  0.3326
   38MOL    C8740121   2.942   5.211   3.443  0.1258 -0.7763 -0.0620
   38MOL    H8840122   2.818   4.944   3.621  1.3469  0.2845  1.8106
   38MOL    H8940123   3.023   4.835   3.533  0.5892 -0.4073  0.5413
   38MOL    H9040124   3.085   4.868   3.144  0.6836 -1.7155 -1.2236
   38MOL    H9140125   3.114   4.946   2.904  1.1092  1.5405 -1.5086
   38MOL    H9240126   3.412   5.349   2.884 -0.2553  0.0303 -0.3223
   38MOL    H9340127   3.628   5.439   2.816 -1.2354 -0.5345  0.4480
   38MOL    H9440128   3.986   5.422   2.764  1.8743 -3.2503 -1.6515
   38MOL    H9540129   3.924   5.274   2.833 -2.1213 -1.2383 -0.6187
   38MOL    H9640130   3.838   5.429   2.856 -0.1232  0.5517 -0.6637
   38MOL    H9740131   3.872   5.200   2.474  2.7008  0.0544 -0.3578
   38MOL    H9840132   4.003   5.303   2.530  0.5686 -2.4775 -3.1987
   38MOL    H9940133   3.961   5.174   2.625 -0.3035 -0.3938  1.0082
   38MOL   H10040134   3.700   5.380   2.406 -1.2230 -1.1168  1.6830
   38MOL   H10140135   3.631   5.593   2.293  1.7310  3.6902 -0.5188
   38MOL   H10240136   3.832   5.817   2.589 -0.2066 -0.8478  1.6279
   38MOL   H10340137   3.895   5.627   2.708 -2.1885  2.1263  0.6271
   38MOL   H10440138   3.703   5.095   2.582  2.4799  1.0854  2.1305
   38MOL   H10540139   3.477   4.990   2.650 -1.0715 -0.1961  2.2782
   38MOL   H10640140   3.475   5.161   3.026  0.9496 -1.1424  0.5004
   38MOL   H10740141   3.443   5.077   3.254  0.9493 -1.5690 -0.3538
   38MOL   H10840142   3.128   5.193   3.333  0.6319 -2.0726 -1.1467
   38MOL   H10940143   2.919   5.315   3.423 -1.8688 -1.3291 -0.7141
   38MOL   C11040144   3.595   5.861   2.312  0.2270 -1.2312 -0.3231
   38MOL   C11140145   3.584   5.827   2.176  1.0386 -0.5629  0.5010
   38MOL   C11240146   3.470   5.860   2.096 -0.2722  0.2747  0.4758
   38MOL   C11340147   3.360   5.907   2.168  0.7829  0.1414 -0.0480
   38MOL   S11440148   3.205   5.926   2.087 -0.1624  0.3474  0.1317
   38MOL   O11540149   3.101   5.881   2.180  0.4166 -0.2184 -0.0472
   38MOL   O11640150   3.203   5.867   1.949 -0.3783  1.1608 -0.4501
   38MOL   C11740151   3.166   6.106   2.073 -0.6513  0.3376 -0.7466
   38MOL   C11840152   3.028   6.141   2.103  0.0275 -0.6083  0.3063
   38MOL   C11940153   2.988   6.272   2.089  0.0340 -0.3425 -0.2984
   38MOL   C12040154   3.080   6.369   2.037 -0.5588  0.4607 -0.0858
   38MOL   O12140155   3.057   6.503   2.016  0.7727  0.0370 -0.0036
   38MOL   C12240156   2.937   6.537   1.971  0.2682 -0.2657 -0.4802
   38MOL   C12340157   2.832   6.548   2.061 -0.1582 -0.1793 -0.6058
   38MOL   C12440158   2.702   6.568   2.019 -0.5244  0.2558 -0.1318
   38MOL   C12540159   2.668   6.577   1.884 -0.4734 -0.1247 -0.2457
   38MOL   C12640160   2.519   6.581   1.834  0.4922  0.0379 -0.3751
   38MOL   C12740161   2.422   6.500   1.921  0.0557  0.6006  0.2983
   38MOL   C12840162   2.476   6.734   1.847  0.6290 -0.5585 -0.5161
   38MOL   C12940163   2.507   6.531   1.690 -0.4275  0.0395 -0.0017
   38MOL   C13040164   2.556   6.403   1.661 -0.4136 -0.0824  0.0573
   38MOL   C13140165   2.550   6.358   1.527 -0.2158  0.0625  0.3732
   38MOL   C13240166   2.486   6.436   1.427  0.2244  1.0696  0.0012
   38MOL   O13340167   2.494   6.398   1.296 -0.1105  0.7256 -0.0155
   38MOL   C13440168   2.427   6.556   1.461  0.0412  0.0573 -0.6405
   38MOL   C13540169   2.441   6.607   1.588 -0.0492  1.0841 -0.2645
   38MOL   C13640170   2.779   6.579   1.794  0.9523 -0.1202  0.6005
   38MOL   C13740171   2.912   6.564   1.832 -0.3666  0.6322  0.0709
   38MOL   C13840172   3.211   6.330   1.998  0.3090  0.1289 -0.5589
   38MOL   C13940173   3.252   6.199   2.008  0.3298  0.4246  0.1526
   38MOL   C14040174   3.364   5.938   2.305 -0.6060 -0.4179 -0.9311
   38MOL   C14140175   3.486   5.925   2.379  0.2699  0.0759 -0.2313
   38MOL   H14240176   3.669   5.778   2.132 -0.1897 -1.7357 -0.6409
   38MOL   H14340177   3.469   5.843   1.989  2.1652 -2.8070  0.8615
   38MOL   H14440178   2.960   6.067   2.143 -2.6721  1.3012 -0.6382
   38MOL   H14540179   2.886   6.292   2.121 -0.4428  0.3779 -2.1729
   38MOL   H14640180   2.864   6.537   2.163  1.5417 -0.4791 -1.1538
   38MOL   H14740181   2.624   6.561   2.095 -0.5158 -0.1502 -0.1579
   38MOL   H14840182   2.430   6.391   1.919  0.8845  0.6543  0.5121
   38MOL   H14940183   2.319   6.508   1.884  0.8118  0.6821 -1.8303
   38MOL   H15040184   2.412   6.526   2.027 -0.4739  1.0386  0.1448
   38MOL   H15140185   2.530   6.810   1.791 -2.5805  0.6916 -1.9992
   38MOL   H15240186   2.373   6.757   1.820  1.1391  2.1162 -0.3299
   38MOL   H15340187   2.485   6.765   1.951 -2.6089 -0.1297 -0.3123
   38MOL   H15440188   2.608   6.346   1.736 -1.0804 -1.3769 -0.4337
   38MOL   H15540189   2.593   6.266   1.491 -1.9204 -0.3365 -0.7168
   38MOL   H15640190   2.391   6.628   1.388  1.9449  0.8355 -0.8415
   38MOL   H15740191   2.393   6.700   1.615  0.6994  1.4971 -0.3257
   38MOL   H15840192   2.774   6.582   1.686 -1.1743  1.3267  0.7016
   38MOL   H15940193   2.998   6.559   1.767 -0.2501  0.1327  0.2647
   38MOL   H16040194   3.273   6.404   1.949  4.2431 -1.5453  1.5931
   38MOL   H16140195   3.350   6.157   1.992  0.7595  0.7481  1.8995
   38MOL   H16240196   3.277   5.983   2.349  0.1589 -1.0379  1.2456
   38MOL   H16340197   3.488   5.953   2.483 -0.3999 -2.1443  0.3910
   38MOL   C16440198   2.392   6.338   1.233  0.0373 -0.4984 -0.4981
   38MOL   C16540199   2.263   6.330   1.290 -0.0510 -0.1394  0.4591
   38MOL   C16640200   2.162   6.272   1.216 -0.5806  0.2875 -0.4068
   38MOL   C16740201   2.185   6.220   1.089 -0.1083 -0.6871  0.4040
   38MOL   S16840202   2.054   6.170   0.982  0.4084  0.0231 -0.0414
   38MOL   O16940203   1.936   6.133   1.057  0.1645 -0.3995 -0.2685
   38MOL   O17040204   2.110   6.076   0.883  0.0743 -0.7331  1.1132
   38MOL   C17140205   2.009   6.325   0.899  0.5637 -0.0109  0.0595
   38MOL   C17240206   2.084   6.441   0.905 -1.1578 -0.6150  0.1366
   38MOL   C17340207   2.052   6.554   0.826 -0.3415  0.7600 -0.6341
   38MOL   C17440208   1.946   6.546   0.734  0.2379 -0.0218 -0.2742
   38MOL   O17540209   1.909   6.656   0.661 -0.3939  0.7752 -0.6682
   38MOL   C17640210   2.005   6.699   0.573  0.0916  0.1283  0.7009
   38MOL   C17740211   2.024   6.623   0.458  1.0123 -0.1601  0.9244
   38MOL   C17840212   2.098   6.667   0.348  0.3995 -0.5903 -0.5570
   38MOL   C17940213   2.176   6.783   0.369 -0.5289  0.2008 -0.4567
   38MOL   C18040214   2.278   6.835   0.270  0.3022 -0.0105  0.6984
   38MOL   C18140215   2.414   6.830   0.347  0.2661  0.4837  0.0849
   38MOL   C18240216   2.298   6.738   0.160  0.8485 -0.0655 -1.0684
   38MOL   C18340217   2.247   6.973   0.213 -0.8049  0.2226  0.0580
   38MOL   C18440218   2.339   7.084   0.219  0.2110  0.0459 -0.5033
   38MOL   C18540219   2.300   7.216   0.177 -0.7588  0.6593  0.1792
   38MOL   C18640220   2.174   7.241   0.126 -0.3189 -0.9627  0.5087
   38MOL   O18740221   2.143   7.367   0.081 -0.1602 -0.2919  0.6381
   38MOL   C18840222   2.089   7.128   0.115 -0.2812  0.3902  1.2402
   38MOL   C18940223   2.126   6.999   0.158 -0.2001  0.4526  0.2527
   38MOL   C19040224   2.163   6.863   0.486  0.3431  0.7141  0.2121
   38MOL   C19140225   2.078   6.814   0.586 -0.5466 -0.1830 -0.3956
   38MOL   C19240226   1.870   6.427   0.733 -0.2360 -0.2929 -0.0770
   38MOL   C19340227   1.905   6.318   0.805 -0.1554 -0.7215 -0.5507
   38MOL   C19440228   2.314   6.217   1.039 -0.3948 -0.7769  0.0192
   38MOL   C19540229   2.421   6.274   1.112 -0.1284 -0.3761 -0.1723
   38MOL   H19640230   2.234   6.355   1.391 -0.8135 -0.2768  0.2830
   38MOL   H19740231   2.061   6.285   1.251 -0.7928  2.9418 -1.8366
   38MOL   H19840232   2.178   6.444   0.958 -1.0895 -1.4329  0.0647
   38MOL   H19940233   2.110   6.644   0.838  0.3044  0.5876 -2.3516
   38MOL   H20040234   1.962   6.537   0.442  3.2046 -1.3659 -1.5008
   38MOL   H20140235   2.095   6.602   0.263  1.3882 -2.1971  0.6051
   38MOL   H20240236   2.422   6.905   0.426  3.0189  0.6333 -0.2698
   38MOL   H20340237   2.499   6.852   0.282  0.1645  2.5004  0.6146
   38MOL   H20440238   2.423   6.731   0.393 -1.6056  0.2244 -0.0492
   38MOL   H20540239   2.204   6.726   0.106 -0.9529  3.1498  1.2337
   38MOL   H20640240   2.373   6.772   0.089  0.4736  3.6922  0.2335
   38MOL   H20740241   2.326   6.642   0.203 -1.5509  0.6038  2.1830
   38MOL   H20840242   2.434   7.077   0.270 -0.4255  0.3491  0.7610
   38MOL   H20940243   2.374   7.295   0.187 -0.0027 -0.1441  0.9967
   38MOL   H21040244   1.994   7.135   0.066  0.8599 -0.9222 -1.2070
   38MOL   H21140245   2.066   6.912   0.137  1.8528 -0.5558 -1.6894
   38MOL   H21240246   2.211   6.959   0.500 -0.2395  1.2512 -1.3045
   38MOL   H21340247   2.071   6.871   0.678  1.7114  0.8894 -0.8523
   38MOL   H21440248   1.786   6.413   0.666  0.3699  0.9294 -1.1422
   38MOL   H21540249   1.853   6.225   0.788  0.7771 -0.9945 -1.9832
   38MOL   H21640250   2.335   6.174   0.943  0.0298 -0.2686 -0.1215
   38MOL   H21740251   2.520   6.278   1.069  0.0930  1.7252  0.4716
   38MOL   C21840252   2.010   7.399   0.049 -0.4411 -0.3966 -0.5499
   38MOL   C21940253   1.910   7.374   0.145  0.6585  0.0115 -0.1615
   38MOL   C22040254   1.775   7.386   0.106  0.4942  0.0388  0.2156
   38MOL   C22140255   1.741   7.426   8.229  0.1292  0.0133  0.8033
   38MOL   S22240256   1.572   7.457   8.192 -0.4214  0.0983 -0.0126
   38MOL   O22340257   1.557   7.601   8.220  0.3287  0.0271 -0.0081
   38MOL   O22440258   1.488   7.353   0.010 -0.4437 -0.6357 -0.1197
   38MOL   C22540259   1.551   7.424   8.012 -1.0558  0.7489  0.1286
   38MOL   C22640260   1.595   7.518   7.916 -0.2930  0.0170 -0.4429
   38MOL   C22740261   1.587   7.493   7.777  0.2497  0.5243 -0.3439
   38MOL   C22840262   1.542   7.362   7.741 -0.8618  0.1221 -0.5201
   38MOL   O22940263   1.535   7.329   7.609 -0.0378 -0.4775 -0.0749
   38MOL   C23040264   1.417   7.368   7.540  0.2261  0.7769 -0.7845
   38MOL   C23140265   1.288   7.388   7.599  0.4880  0.4872 -0.0323
   38MOL   C23240266   1.171   7.421   7.524  0.4251  0.5307  0.6489
   38MOL   C23340267   1.185   7.441   7.391 -0.3235 -0.1312  0.4611
   38MOL   C23440268   1.061   7.488   7.309 -0.2749 -0.2258 -0.6260
   38MOL   C23540269   0.967   7.570   7.392  0.8354  0.3236 -0.3135
   38MOL   C23640270   1.112   7.579   7.199 -0.7259 -0.3182  0.1509
   38MOL   C23740271   0.993   7.374   7.238 -0.4919 -0.3432  0.2417
   38MOL   C23840272   0.880   7.393   7.160 -0.3578  0.3239 -0.2453
   38MOL   C23940273   0.824   7.287   7.086  0.1992  0.9793 -0.2843
   38MOL   C24040274   0.886   7.158   7.086 -0.7249 -0.2071 -0.3478
   38MOL   O24140275   0.848   7.054   7.007 -0.3952 -0.1360 -0.4140
   38MOL   C24240276   0.999   7.140   7.166  0.2902 -0.7228  0.3001
   38MOL   C24340277   1.048   7.242   7.242 -0.2218 -0.2530 -0.1226
   38MOL   C24440278   1.307   7.425   7.329 -0.1067  0.4870  0.0299
   38MOL   C24540279   1.420   7.393   7.401  0.5605 -0.7470  0.1695
   38MOL   C24640280   1.495   7.270   7.840 -0.1365  0.0386  0.5835
   38MOL   C24740281   1.495   7.302   7.976 -0.5389 -0.2276 -0.2276
   38MOL   C24840282   1.844   7.457   8.132  0.4031 -0.2212  0.5663
   38MOL   C24940283   1.977   7.444   8.171  0.2367 -0.0868  0.5271
   38MOL   H25040284   1.941   7.336   0.241 -2.4663 -0.7190  0.6091
   38MOL   H25140285   1.701   7.368   0.183 -0.6379 -0.3460 -0.9622
   38MOL   H25240286   1.622   7.612   7.961 -0.3380 -0.3948  0.4422
   38MOL   H25340287   1.613   7.578   7.716 -0.3456  0.6548 -0.4186
   38MOL   H25440288   1.266   7.382   7.705  0.2210 -0.3985 -0.1322
   38MOL   H25540289   1.076   7.426   7.575  0.4715  1.9195  0.6084
   38MOL   H25640290   0.880   7.606   7.338 -0.1358 -2.0062 -0.3950
   38MOL   H25740291   1.005   7.655   7.448 -0.6110  0.3396  0.6571
   38MOL   H25840292   0.922   7.503   7.465 -1.2938  0.6268 -1.3086
   38MOL   H25940293   1.166   7.518   7.127 -0.3756  0.4898 -0.2757
   38MOL   H26040294   1.032   7.615   7.133 -0.5133 -1.3936 -0.7151
   38MOL   H26140295   1.171   7.661   7.239  0.2965 -0.8582 -0.2264
   38MOL   H26240296   0.827   7.487   7.150  1.2847  1.5211  2.0029
   38MOL   H26340297   0.733   7.298   7.028  1.3731  1.0732 -2.1580
   38MOL   H26440298   1.048   7.045   7.178  1.2601 -0.3462 -0.6367
   38MOL   H26540299   1.122   7.220   7.317 -0.0724 -1.4432 -0.6184
   38MOL   H26640300   1.319   7.426   7.222 -0.0269  0.2482  0.0361
   38MOL   H26740301   1.507   7.377   7.340 -0.6251 -2.4601 -1.1245
   38MOL   H26840302   1.449   7.177   7.808 -0.6907 -0.2471  2.1295
   38MOL   H26940303   1.451   7.240   8.053  1.0395  0.0887  0.9363
   38MOL   H27040304   1.826   7.494   8.032  1.4462 -0.8592  0.1327
   38MOL   H27140305   2.060   7.474   8.109  0.0140  1.6643  1.0689
   38MOL   C27240306   0.717   7.037   6.973 -0.1248 -0.2298 -0.1656
   38MOL   C27340307   0.665   7.085   6.848 -0.3421  0.8762  0.4092
   38MOL   C27440308   0.527   7.067   6.826 -0.4062  0.4532  0.3858
   38MOL   C27540309   0.441   7.025   6.928 -0.1647 -0.1960 -0.1762
   38MOL   S27640310   0.267   7.035   6.908  0.1308 -0.0789 -0.5257
   38MOL   O27740311   0.201   6.916   6.962  0.1668 -0.1964  0.1707
   38MOL   O27840312   0.230   7.077   6.772 -0.0945 -0.1062 -0.0863
   38MOL   C27940313   0.217   7.171   7.011 -0.2430  0.3387 -0.3709
   38MOL   C28040314   0.172   7.142   7.141  0.6627 -0.9077  0.1334
   38MOL   C28140315   0.128   7.247   7.222 -0.3122  0.8001 -0.5712
   38MOL   C28240316   0.123   7.383   7.174 -0.7770 -0.0797 -0.3976
   38MOL   O28340317   0.064   7.478   7.255 -0.0931  0.4261  0.0129
   38MOL   C28440318   0.095   7.613   7.235 -0.0443  0.5689 -0.2940
   38MOL   C28540319   0.224   7.658   7.273 -0.5278 -0.5522  0.6397
   38MOL   C28640320   0.259   7.790   7.258 -0.1634 -0.0171 -0.4168
   38MOL   C28740321   0.172   7.879   7.192  0.3715 -0.0351  0.7641
   38MOL   C28840322   0.204   8.032   7.161 -0.2018 -0.0308  0.3200
   38MOL   C28940323   0.173   8.127   7.281  0.4445 -0.4505  0.1349
   38MOL   C29040324   0.357   8.043   7.146 -0.1326  0.5926 -0.4375
   38MOL   C29140325   0.137   8.084   7.032  0.4075  0.2309 -0.4879
   38MOL   C29240326   0.198   8.069   6.902 -0.5361  0.0346  0.7798
   38MOL   C29340327   0.144   8.127   6.783  0.4099 -0.1316 -0.2314
   38MOL   C29440328   0.026   8.203   6.797 -1.1024  0.2604 -0.4406
   38MOL   O29540329   8.232   0.011   6.684 -0.0183 -0.6304  0.2134
   38MOL   C29640330   8.209   8.222   6.921 -0.0716  0.1826 -0.6790
   38MOL   C29740331   0.013   8.161   7.034  0.3869 -0.1886 -0.1060
   38MOL   C29840332   0.047   7.829   7.142 -0.0300  0.9405 -0.3556
   38MOL   C29940333   0.007   7.694   7.163  0.5586  0.3642 -0.0020
   38MOL   C30040334   0.171   7.405   7.044  0.6780  0.3538 -0.5614
   38MOL   C30140335   0.208   7.298   6.959 -0.9661  0.6902 -0.4887
   38MOL   C30240336   0.492   6.977   7.045  0.5810 -0.1993 -0.7938
   38MOL   C30340337   0.630   6.985   7.068 -0.0039  0.5110  0.1854
   38MOL   H30440338   0.733   7.122   6.773 -0.7876 -0.0536 -0.4688
   38MOL   H30540339   0.486   7.088   6.728 -0.5307 -3.8665 -0.5981
   38MOL   H30640340   0.173   7.043   7.184 -2.8798 -0.9054  0.3660
   38MOL   H30740341   0.108   7.224   7.326  0.3349  1.3273 -0.3305
   38MOL   H30840342   0.301   7.592   7.309  0.2079  0.3861  0.8166
   38MOL   H30940343   0.355   7.820   7.296  0.3495 -0.5737 -1.2448
   38MOL   H31040344   0.223   8.105   7.375 -0.1040 -0.9409  0.3140
   38MOL   H31140345   0.073   8.127   7.325 -0.1130  1.1722 -1.0583
   38MOL   H31240346   0.185   8.230   7.247 -2.0847 -0.3302 -0.4819
   38MOL   H31340347   0.389   8.146   7.133 -5.3835  2.2994 -0.9493
   38MOL   H31440348   0.418   8.023   7.234 -1.0768  0.5991  0.2261
   38MOL   H31540349   0.395   7.977   7.068 -0.0630 -1.0653  0.9475
   38MOL   H31640350   0.293   8.018   6.890 -0.4718  0.0248  1.2837
   38MOL   H31740351   0.209   8.119   6.697 -0.7964  0.1143 -1.1730
   38MOL   H31840352   8.118   0.027   6.930  0.1207  0.4614 -0.5232
   38MOL   H31940353   8.218   8.161   7.131  1.0815 -2.7385  0.2820
   38MOL   H32040354   8.243   7.883   7.069 -0.7302  0.2381 -0.3312
   38MOL   H32140355   8.169   7.650   7.126 -0.3426  1.5290  0.7978
   38MOL   H32240356   0.159   7.503   6.999 -3.3187  1.0558  1.8439
   38MOL   H32340357   0.234   7.331   6.859 -0.9681  1.6711 -0.1792
   38MOL   H32440358   0.429   6.928   7.118 -0.3953  0.4778 -1.1700
   38MOL   H32540359   0.662   6.938   7.160  1.7592  2.0172  0.3642
   38MOL   C32640360   0.055   0.044   6.579  0.4220  0.2743  0.4949
   38MOL   C32740361   0.134   0.161   6.587  0.1901 -0.0522  0.0859
   38MOL   C32840362   0.234   0.184   6.483  0.2697 -0.1655 -0.5764
   38MOL   C32940363   0.232   0.108   6.367 -0.4668 -0.0271  0.3496
   38MOL   S33040364   0.333   0.152   6.221  0.3380  0.1552  0.0172
   38MOL   O33140365   0.392   0.286   6.253 -0.0225 -0.0741 -0.7137
   38MOL   O33240366   0.249   0.141   6.105  0.3252  0.4952 -0.0605
   38MOL   C33340367   0.478   0.047   6.228 -0.4582  0.4136 -0.0570
   38MOL   C33440368   0.551   0.054   6.349 -0.2698  0.6555  0.2099
   38MOL   C33540369   0.669   8.232   6.358 -0.5100  0.2215  0.0453
   38MOL   C33640370   0.704   8.143   6.255  0.2485  0.1630 -0.2436
   38MOL   O33740371   0.822   8.080   6.276 -0.3631  0.0770 -0.3474
   38MOL   C33840372   0.918   8.089   6.176  0.3696  0.4024 -0.8185
   38MOL   C33940373   0.918   7.995   6.073  0.3132  0.5681  0.3122
   38MOL   C34040374   1.024   7.995   5.977  0.4862 -0.5023 -0.4048
   38MOL   C34140375   1.128   8.093   5.980  0.2302  0.0161 -0.0171
   38MOL   C34240376   1.242   8.098   5.876  0.5463 -0.4402  1.1716
   38MOL   C34340377   1.195   8.210   5.780 -0.1550  0.1934 -0.4436
   38MOL   C34440378   1.371   8.149   5.935  0.3039 -0.3853 -0.3199
   38MOL   C34540379   1.259   7.960   5.815 -0.2183 -0.3255 -0.7857
   38MOL   C34640380   1.187   7.922   5.700 -0.7742 -0.3526  0.0517
   38MOL   C34740381   1.175   7.788   5.662 -0.3496 -0.2640 -0.0833
   38MOL   C34840382   1.260   7.695   5.724 -0.5146  0.5187 -0.4088
   38MOL   O34940383   1.287   7.573   5.662 -0.3937  0.6048 -0.1297
   38MOL   C35040384   1.341   7.727   5.840 -0.1694 -0.4012 -0.4124
   38MOL   C35140385   1.337   7.863   5.884 -0.1545 -0.2715 -0.4727
   38MOL   C35240386   1.122   8.191   6.085 -0.3974  0.2529  0.1804
   38MOL   C35340387   1.014   8.189   6.178 -0.7961 -0.3641 -0.3756
   38MOL   C35440388   0.624   8.135   6.138 -0.3763 -0.1068  0.6523
   38MOL   C35540389   0.511   8.216   6.122  0.0119 -0.3603  0.5273
   38MOL   C35640390   0.157   8.245   6.360  0.4143 -0.3097 -0.7480
   38MOL   C35740391   0.059   8.216   6.461 -0.1703  0.2877 -0.5909
   38MOL   H35840392   0.134   0.209   6.684 -1.7155  1.1955 -0.5112
   38MOL   H35940393   0.301   0.268   6.491  0.2719 -0.0337 -1.8498
   38MOL   H36040394   0.518   0.127   6.422 -2.0152 -0.2117  0.3062
   38MOL   H36140395   0.737   8.220   6.441  2.1748  0.8173 -1.9938
   38MOL   H36240396   0.847   7.914   6.071  0.6320  0.2160  2.4507
   38MOL   H36340397   1.016   7.918   5.901  1.5452 -2.0337  0.9950
   38MOL   H36440398   1.263   8.222   5.695 -1.3610 -1.6430 -1.6834
   38MOL   H36540399   1.188   0.053   5.832 -0.5095  0.6798 -1.3728
   38MOL   H36640400   1.093   8.186   5.750 -0.9954  2.0110  0.8583
   38MOL   H36740401   1.444   8.121   5.859  0.4520  0.3961 -0.4713
   38MOL   H36840402   1.369   0.005   5.941 -0.6313 -0.2147 -3.0421
   38MOL   H36940403   1.402   8.110   6.032 -0.6732  0.2453  0.2551
   38MOL   H37040404   1.130   7.993   5.641 -0.7149  1.0919  1.6979
   38MOL   H37140405   1.123   7.767   5.569  1.5191  2.0261 -1.7026
   38MOL   H37240406   1.395   7.651   5.895 -0.7842 -1.7278 -1.6004
   38MOL   H37340407   1.400   7.886   5.968  1.6382 -3.6810 -0.7765
   38MOL   H37440408   1.199   0.013   6.092 -0.2081  0.0626  0.0950
   38MOL   H37540409   1.017   0.002   6.263 -1.1915 -1.7292  0.7202
   38MOL   H37640410   0.660   8.078   6.054  1.9735  3.2638 -0.7433
   38MOL   H37740411   0.451   8.209   6.032  1.5631 -1.4157 -0.4593
   38MOL   H37840412   0.152   8.192   6.266 -1.4687 -0.6770 -0.4583
   38MOL   H37940413   8.249   8.129   6.460  1.6482 -1.1499 -5.2544
   38MOL   C38040414   1.185   7.481   5.671 -0.1969  0.0674 -0.0277
   38MOL   C38140415   1.197   7.372   5.580 -0.1774  0.1971  0.3725
   38MOL   C38240416   1.085   7.278   5.570 -0.2053 -0.9877  0.0670
   38MOL   C38340417   0.970   7.290   5.649  0.1488 -0.7337 -0.5640
   38MOL   S38440418   0.834   7.172   5.631 -0.0868  0.2516 -0.0090
   38MOL   O38540419   0.888   7.043   5.688 -0.4457  0.2918 -0.6470
   38MOL   O38640420   0.786   7.186   5.491  0.2597  0.1834 -0.8747
   38MOL   C38740421   0.693   7.222   5.732 -0.0059  0.2328  0.0076
   38MOL   C38840422   0.615   7.335   5.701  0.3634 -0.2158  0.5513
   38MOL   C38940423   0.499   7.374   5.768 -0.3645 -0.0378  0.3536
   38MOL   C39040424   0.451   7.299   5.877  0.1525  0.0621  0.5688
   38MOL   O39140425   0.337   7.333   5.945  0.0952  0.0543 -0.3061
   38MOL   C39240426   0.224   7.389   5.900 -0.2642 -0.8474  0.0713
   38MOL   C39340427   0.179   7.377   5.768  0.6540 -0.8576 -0.1157
   38MOL   C39440428   0.058   7.441   5.728  0.0143 -0.1598 -0.5400
   38MOL   C39540429   8.229   7.514   5.817  0.1758  0.0638  0.0902
   38MOL   C39640430   8.101   7.586   5.771  0.3554 -1.0398  0.6693
   38MOL   C39740431   8.011   7.627   5.889  0.4515  0.6960  0.0886
   38MOL   C39840432   8.151   7.716   5.704  0.4714 -0.3749 -0.4049
   38MOL   C39940433   8.034   7.492   5.667  0.0545 -0.3108 -0.3473
   38MOL   C40040434   7.966   7.375   5.711  0.4186 -0.2868  0.0004
   38MOL   C40140435   7.918   7.276   5.617 -0.1955  0.6956 -0.2669
   38MOL   C40240436   7.931   7.293   5.478 -0.2042  0.2640  0.1069
   38MOL   O40340437   7.914   7.188   5.386  0.3583 -0.2307 -0.0708
   38MOL   C40440438   7.993   7.412   5.430  0.8664 -0.5024 -0.0673
   38MOL   C40540439   8.033   7.512   5.521 -0.2788  0.5780  0.0418
   38MOL   C40640440   0.022   7.515   5.953  0.5842  0.3458  0.2047
   38MOL   C40740441   0.138   7.450   5.990  0.3573  0.1214 -0.0315
   38MOL   C40840442   0.528   7.192   5.923  0.0649 -0.5922 -0.4605
   38MOL   C40940443   0.650   7.151   5.852  0.3969 -0.3740  0.3909
   38MOL   C41040444   0.961   7.396   5.741  0.3191 -0.3969 -0.1877
   38MOL   C41140445   1.062   7.495   5.750 -0.5303 -0.4811 -0.0548
   38MOL   H41240446   1.292   7.357   5.532  0.4042  1.4553  1.1015
   38MOL   H41340447   1.091   7.198   5.498  1.4398 -2.7019  2.0314
   38MOL   H41440448   0.646   7.400   5.620 -1.4735 -0.4009 -0.3423
   38MOL   H41540449   0.443   7.462   5.741  1.2189  1.1045  0.7492
   38MOL   H41640450   0.241   7.327   5.695  0.9105  3.7798 -3.2876
   38MOL   H41740451   0.027   7.439   5.624 -1.3562 -0.1046 -0.1371
   38MOL   H41840452   7.913   7.662   5.856  0.0458  1.8192  2.4111
   38MOL   H41940453   8.059   7.703   5.949  1.4750  0.2206 -0.1231
   38MOL   H42040454   7.988   7.538   5.948  0.9451 -0.0576 -0.8339
   38MOL   H42140455   8.203   7.781   5.775  2.0609 -0.8721 -1.0824
   38MOL   H42240456   8.216   7.716   5.617  0.9117 -1.0371 -0.0826
   38MOL   H42340457   8.072   7.768   5.651  0.2108 -1.2559 -0.8956
   38MOL   H42440458   7.958   7.359   5.818 -0.6151  0.0671 -0.0122
   38MOL   H42540459   7.869   7.192   5.665  1.0523  0.5706  0.8434
   38MOL   H42640460   8.008   7.430   5.324  1.3890 -1.2313 -0.1160
   38MOL   H42740461   8.077   7.602   5.482  0.0343  0.5601  0.3495
   38MOL   H42840462   8.221   7.558   6.036 -1.1314 -0.2028 -0.6306
   38MOL   H42940463   0.151   7.440   6.097  1.0407 -0.9011 -0.1925
   38MOL   H43040464   0.511   7.134   6.012 -1.1604  0.2045 -0.1698
   38MOL   H43140465   0.697   7.056   5.875 -0.0958 -0.7366 -0.0889
   38MOL   H43240466   0.878   7.396   5.810  1.8752  0.1738  1.7028
   38MOL   H43340467   1.051   7.575   5.822 -1.6330  0.7746 -1.5800
   38MOL   C43440468   7.807   7.107   5.394  0.2013 -0.2508 -0.2947
   38MOL   C43540469   7.675   7.151   5.410  0.5818  0.6688 -0.2516
   38MOL   C43640470   7.574   7.051   5.422  0.5934  0.1650 -0.0261
   38MOL   C43740471   7.603   6.916   5.417  0.1592  0.4247  0.1106
   38MOL   S43840472   7.467   6.794   5.437 -0.1056 -0.3217 -0.6369
   38MOL   O43940473   7.514   6.659   5.405  0.3082 -0.0071  0.1946
   38MOL   O44040474   7.348   6.848   5.359 -0.0301 -0.6539 -0.5345
   38MOL   C44140475   7.427   6.796   5.608 -0.0511 -0.0034  0.3958
   38MOL   C44240476   7.519   6.838   5.705 -0.1865 -0.0958 -0.1551
   38MOL   C44340477   7.475   6.834   5.842 -0.1048  0.7549  0.7952
   38MOL   C44440478   7.343   6.798   5.874  0.7291 -0.7308  0.1569
   38MOL   O44540479   7.302   6.801   6.003  0.3981  0.0510 -0.4841
   38MOL   C44640480   7.238   6.690   6.063  0.0205 -0.2082  0.4708
   38MOL   C44740481   7.319   6.586   6.122 -0.1312  0.1420  1.2633
   38MOL   C44840482   7.256   6.486   6.198  0.2870  0.1155  0.2458
   38MOL   C44940483   7.111   6.486   6.215 -0.8262  0.3174  0.4088
   38MOL   C45040484   7.032   6.381   6.296 -0.8073 -0.3006 -0.2618
   38MOL   C45140485   7.027   6.240   6.225 -0.4299 -1.2205 -0.7210
   38MOL   C45240486   7.113   6.354   6.436 -0.2383 -0.4340  0.2692
   38MOL   C45340487   6.891   6.429   6.340 -0.7574  0.1770  0.0337
   38MOL   C45440488   6.885   6.539   6.424  0.0344 -0.0273 -0.2464
   38MOL   C45540489   6.765   6.593   6.471  0.3453  0.0197 -0.3421
   38MOL   C45640490   6.644   6.540   6.427  0.4954 -0.6180  0.3975
   38MOL   O45740491   6.522   6.588   6.468 -0.3323  0.0501  0.1090
   38MOL   C45840492   6.643   6.420   6.352  0.2392  0.2827 -0.0046
   38MOL   C45940493   6.767   6.368   6.299 -0.0406 -0.0470 -0.3459
   38MOL   C46040494   7.040   6.583   6.148 -0.4628 -0.6402 -0.3236
   38MOL   C46140495   7.099   6.680   6.070  0.3022 -0.2896  0.3008
   38MOL   C46240496   7.251   6.771   5.770 -0.2454 -0.1906  0.3577
   38MOL   C46340497   7.291   6.764   5.637  0.2099 -0.1174  0.4253
   38MOL   C46440498   7.730   6.869   5.391  0.2969  0.3263 -0.3683
   38MOL   C46540499   7.834   6.967   5.367 -0.2529 -0.0586  0.1817
   38MOL   H46640500   7.636   7.252   5.406 -2.1045 -0.3804 -3.5082
   38MOL   H46740501   7.469   7.070   5.438  0.1078 -1.4437 -1.1188
   38MOL   H46840502   7.621   6.864   5.683  0.4092 -2.6593 -0.5213
   38MOL   H46940503   7.542   6.859   5.923  0.7808  0.5221  0.1343
   38MOL   H47040504   7.426   6.581   6.108 -0.0971  2.4476  0.5644
   38MOL   H47140505   7.318   6.409   6.241 -1.7670 -0.7606  1.7451
   38MOL   H47240506   7.000   6.242   6.119 -2.1172  1.2894 -0.2972
   38MOL   H47340507   6.951   6.172   6.263 -0.1012 -2.5442 -2.3450
   38MOL   H47440508   7.122   6.188   6.225  1.4703  2.0223  3.1025
   38MOL   H47540509   7.127   6.452   6.483 -0.6053 -0.1678 -0.1662
   38MOL   H47640510   7.061   6.287   6.504 -1.0848  0.6848  0.7313
   38MOL   H47740511   7.206   6.299   6.421  0.6397  1.5870 -2.1438
   38MOL   H47840512   6.973   6.584   6.469  0.1270 -0.2501 -0.2055
   38MOL   H47940513   6.764   6.671   6.545  0.3282 -2.0327  1.9150
   38MOL   H48040514   6.548   6.382   6.318  0.5802 -0.0398 -0.6188
   38MOL   H48140515   6.762   6.279   6.238  2.3954 -1.7867  1.8838
   38MOL   H48240516   6.932   6.586   6.151 -0.5339 -1.5301 -1.8622
   38MOL   H48340517   7.035   6.751   6.019 -1.3533 -0.5542  1.9598
   38MOL   H48440518   7.150   6.749   5.801 -1.5081  2.5674 -1.6157
   38MOL   H48540519   7.227   6.747   5.552  0.6857  2.7266 -0.5464
   38MOL   H48640520   7.746   6.763   5.381  3.2281  0.6966 -0.1015
   38MOL   H48740521   7.934   6.934   5.343 -0.2755 -1.3408  1.7258
   38MOL   C48840522   6.482   6.717   6.441  0.1755 -0.5609  0.8789
   38MOL   C48940523   6.372   6.772   6.512 -0.2585  0.1412  0.2279
   38MOL   C49040524   6.332   6.901   6.471 -0.1466 -0.3148 -0.4467
   38MOL   C49140525   6.399   6.971   6.372  0.0344 -0.3586 -0.3700
   38MOL   S49240526   6.346   7.141   6.325  0.1904 -0.2542 -0.0376
   38MOL   O49340527   6.224   7.175   6.399  0.7385 -0.1916 -0.4149
   38MOL   O49440528   6.355   7.142   6.175 -0.1866  0.5533 -0.0723
   38MOL   C49540529   6.481   7.241   6.385  0.8875 -0.3972  0.3933
   38MOL   C49640530   6.504   7.369   6.326 -0.8579 -0.1657  0.0753
   38MOL   C49740531   6.613   7.440   6.378 -0.3629  0.7980 -0.5817
   38MOL   C49840532   6.700   7.390   6.476 -0.0514 -0.5222 -0.2307
   38MOL   O49940533   6.812   7.456   6.519 -0.3096  0.1130 -0.0968
   38MOL   C50040534   6.851   7.581   6.471 -0.1388  0.2529 -0.1185
   38MOL   C50140535   6.779   7.700   6.507  0.2669 -0.6041 -0.5811
   38MOL   C50240536   6.812   7.826   6.450 -0.1878 -0.0661 -0.5024
   38MOL   C50340537   6.933   7.835   6.382  0.5499  0.1563  0.3050
   38MOL   C50440538   6.983   7.967   6.316 -0.3751 -0.6312 -0.5705
   38MOL   C50540539   6.876   8.074   6.312  0.6971 -0.3803  0.4018
   38MOL   C50640540   7.104   8.021   6.406  0.7319 -0.2151  0.2100
   38MOL   C50740541   7.037   7.946   6.174 -0.0640  0.2285  0.0179
   38MOL   C50840542   7.163   7.998   6.129  0.5751 -0.2584  0.6933
   38MOL   C50940543   7.197   7.989   5.990 -0.0729 -0.2333  0.6173
   38MOL   C51040544   7.110   7.935   5.894  0.0329  0.1463 -0.3619
   38MOL   O51140545   7.142   7.932   5.759 -0.7156 -0.2761 -0.0603
   38MOL   C51240546   6.988   7.884   5.943 -0.6868 -0.0533 -0.1393
   38MOL   C51340547   6.952   7.889   6.080  0.0621  0.2222  0.0578
   38MOL   C51440548   7.015   7.724   6.365  0.2775  0.6969 -0.0587
   38MOL   C51540549   6.977   7.597   6.411 -0.3529 -0.2917 -0.2083
   38MOL   C51640550   6.672   7.267   6.532  0.2612 -0.5705 -0.4305
   38MOL   C51740551   6.557   7.201   6.498 -0.0526  0.2076 -0.0479
   38MOL   C51840552   6.508   6.915   6.308  0.8369  0.4543  0.0262
   38MOL   C51940553   6.548   6.789   6.338 -0.2322  0.0294 -0.5252
   38MOL   H52040554   6.316   6.712   6.582 -0.9554 -0.9669 -1.2632
   38MOL   H52140555   6.250   6.956   6.518  1.5994  0.8164  1.3630
   38MOL   H52240556   6.439   7.412   6.251 -0.3988  0.5782  0.1096
   38MOL   H52340557   6.635   7.536   6.333  0.7161  0.4147 -0.8839
   38MOL   H52440558   6.684   7.691   6.559  0.3708 -2.0857 -0.6101
   38MOL   H52540559   6.741   7.908   6.449  0.2795  0.3537  0.1394
   38MOL   H52640560   6.916   8.157   6.253 -0.9975 -0.4581 -0.8629
   38MOL   H52740561   6.861   8.110   6.414  1.5251  0.5703  0.2105
   38MOL   H52840562   6.780   8.049   6.269  0.7439  0.8220 -0.4192
   38MOL   H52940563   7.078   8.039   6.510  1.8901  1.1214  0.2967
   38MOL   H53040564   7.185   7.948   6.412 -0.5310 -1.6172  0.4653
   38MOL   H53140565   7.145   8.115   6.368 -2.5607  1.2935  0.2804
   38MOL   H53240566   7.229   8.055   6.193  0.7013  1.6461 -1.0691
   38MOL   H53340567   7.290   8.038   5.965 -0.5997  1.7745  2.3904
   38MOL   H53440568   6.920   7.831   5.878 -1.3203 -0.7945  1.1035
   38MOL   H53540569   6.857   7.864   6.125  0.1082 -0.7213 -0.3394
   38MOL   H53640570   7.106   7.736   6.308  0.2051  4.2679  0.4767
   38MOL   H53740571   7.044   7.513   6.398 -0.2936 -0.0051 -1.7914
   38MOL   H53840572   6.736   7.221   6.606  0.4067 -0.2815 -0.3775
   38MOL   H53940573   6.550   7.108   6.551 -2.2186  1.1595  1.4303
   38MOL   H54040574   6.546   6.970   6.222  2.7219  0.8388  1.0657
   38MOL   H54140575   6.627   6.745   6.280  0.8121  1.5362 -0.2667
   38MOL   C54240576   7.245   7.845   5.725 -0.0717 -0.5858 -0.1239
   38MOL   C54340577   7.255   7.714   5.778  0.1653 -1.1783  0.6447
   38MOL   C54440578   7.371   7.634   5.741 -0.2427 -0.1791 -0.1743
   38MOL   C54540579   7.463   7.678   5.645  0.0978 -0.4325 -0.0834
   38MOL   S54640580   7.600   7.571   5.613  0.0486 -0.1672  0.3036
   38MOL   O54740581   7.548   7.456   5.524  0.0597 -0.2058 -0.3082
   38MOL   O54840582   7.669   7.544   5.737  0.2401 -0.1707 -0.4527
   38MOL   C54940583   7.710   7.671   5.508  0.3288  0.7147  0.0518
   38MOL   C55040584   7.773   7.784   5.572  0.0181 -0.0106  0.2672
   38MOL   C55140585   7.844   7.871   5.489  0.6922  0.2176 -0.8949
   38MOL   C55240586   7.871   7.841   5.354  1.0987  0.4731  0.0383
   38MOL   O55340587   7.919   7.935   5.266 -0.2034  0.1707  0.0220
   38MOL   C55440588   8.053   7.964   5.279 -0.4104  0.1325 -0.5948
   38MOL   C55540589   8.135   7.941   5.168 -0.1006  0.5471 -0.4957
   38MOL   C55640590   0.020   7.969   5.164 -0.2756  0.1083 -0.0786
   38MOL   C55740591   0.081   8.023   5.281  0.5593  0.0806 -0.3644
   38MOL   C55840592   0.223   8.082   5.281  0.5357  0.1354  0.8058
   38MOL   C55940593   0.213   8.206   5.192  0.0035  0.3173 -0.1721
   38MOL   C56040594   0.285   8.130   5.411  0.5918 -0.0857 -0.3217
   38MOL   C56140595   0.313   7.969   5.221  0.1043  0.0364 -0.0031
   38MOL   C56240596   0.304   7.837   5.269 -0.1637 -0.1511  0.5601
   38MOL   C56340597   0.389   7.735   5.218  0.7387 -0.7399 -0.2503
   38MOL   C56440598   0.473   7.761   5.110  0.3831 -0.7494  0.1210
   38MOL   O56540599   0.567   7.669   5.076  0.0658  0.2444  0.6721
   38MOL   C56640600   0.481   7.896   5.065 -0.4457  0.7249 -0.0353
   38MOL   C56740601   0.409   8.001   5.127 -0.1965  0.2913  0.6992
   38MOL   C56840602   8.251   8.043   5.395 -0.1201 -0.4628  0.0995
   38MOL   C56940603   8.113   8.016   5.393 -0.9726 -0.5114  0.1855
   38MOL   C57040604   7.824   7.716   5.301  0.4324  0.6213 -0.1188
   38MOL   C57140605   7.741   7.636   5.377 -0.2761  0.0408 -0.5686
   38MOL   C57240606   7.447   7.804   5.583  0.7998  0.6978 -0.6340
   38MOL   C57340607   7.345   7.890   5.627  0.1208  0.4841 -0.7352
   38MOL   H57440608   7.184   7.667   5.844 -1.1201  1.0032  0.8590
   38MOL   H57540609   7.385   7.534   5.780  0.7605  0.0627  0.0873
   38MOL   H57640610   7.749   7.816   5.672 -1.9530 -0.3655 -0.0612
   38MOL   H57740611   7.873   7.970   5.523  0.3626  1.0737 -2.9822
   38MOL   H57840612   8.083   7.895   5.085 -0.5294 -0.2047  0.1869
   38MOL   H57940613   0.073   7.956   5.070  2.0776 -2.0710  1.5005
   38MOL   H58040614   0.308   0.001   5.168 -0.0889  0.3144 -0.5455
   38MOL   H58140615   0.137   0.024   5.223 -2.0119 -0.0875 -3.8181
   38MOL   H58240616   0.174   8.177   5.094 -0.1845  0.0467 -0.0185
   38MOL   H58340617   0.303   8.047   5.479  0.5467  0.6333  0.5836
   38MOL   H58440618   0.380   8.177   5.385  0.7369  0.1651  0.6353
   38MOL   H58540619   0.225   8.208   5.458 -1.5547 -2.8365  1.7286
   38MOL   H58640620   0.236   7.825   5.353 -2.1036  1.4740 -0.7058
   38MOL   H58740621   0.382   7.638   5.264 -1.1975  0.4413  2.0510
   38MOL   H58840622   0.562   7.925   5.000 -1.2604 -0.5143 -1.6279
   38MOL   H58940623   0.425   8.097   5.080 -1.8005 -0.9221 -2.4886
   38MOL   H59040624   0.039   8.095   5.480  1.8524 -1.6755 -0.0826
   38MOL   H59140625   8.042   8.057   5.463 -1.1973  0.0338 -0.3515
   38MOL   H59240626   7.843   7.687   5.198 -1.3137 -0.8513 -0.0608
   38MOL   H59340627   7.704   7.545   5.334  1.6328 -1.6947  1.3320
   38MOL   H59440628   7.523   7.854   5.525  0.8428  0.3619 -0.8763
   38MOL   H59540629   7.343   7.993   5.595 -1.5343  0.9602  0.8247
   38MOL   C59640630   0.543   7.578   4.978  0.5452 -0.2499 -0.5863
   38MOL   C59740631   0.417   7.534   4.948  0.0123  1.1951  1.0840
   38MOL   C59840632   0.401   7.437   4.850 -0.4907  0.9697 -0.3089
   38MOL   C59940633   0.511   7.384   4.780 -0.3141  0.1196 -0.2619
   38MOL   S60040634   0.493   7.253   4.656  0.0682  0.2978  0.1309
   38MOL   O60140635   0.357   7.196   4.667 -0.5557 -0.0913 -0.0380
   38MOL   O60240636   0.618   7.170   4.669 -0.0801 -0.4119  0.1799
   38MOL   C60340637   0.493   7.347   4.498 -0.5853 -0.1274 -0.4202
   38MOL   C60440638   0.558   7.290   4.388 -0.2732  0.6175 -0.0661
   38MOL   C60540639   0.570   7.358   4.262 -0.0729  0.1837  0.4167
   38MOL   C60640640   0.505   7.486   4.244 -0.4493 -0.0899  0.3221
   38MOL   O60740641   0.519   7.566   4.131 -0.1399 -0.4458  0.0121
   38MOL   C60840642   0.565   7.516   4.014 -0.4772  0.1837 -0.6707
   38MOL   C60940643   0.513   7.403   3.943 -0.6721 -1.1805 -0.0658
   38MOL   C61040644   0.574   7.374   3.820  0.0531 -0.3852  0.2259
   38MOL   C61140645   0.682   7.443   3.767 -0.4705 -0.2818 -0.2335
   38MOL   C61240646   0.724   7.426   3.614 -1.1176 -0.7372 -0.3591
   38MOL   C61340647   0.658   7.309   3.551  0.0502 -0.1954 -0.6608
   38MOL   C61440648   0.665   7.548   3.544 -0.6018 -0.4628 -0.5176
   38MOL   C61540649   0.878   7.426   3.602  0.0914  0.8786  0.3542
   38MOL   C61640650   0.947   7.506   3.504  0.6847  0.1685 -0.5490
   38MOL   C61740651   1.082   7.477   3.472  0.3109  0.4612  0.6294
   38MOL   C61840652   1.157   7.385   3.550 -0.8522 -0.3795 -0.5339
   38MOL   O61940653   1.292   7.369   3.528  0.3138 -0.2832  0.2954
   38MOL   C62040654   1.089   7.314   3.651  0.5368 -0.1387 -0.1456
   38MOL   C62140655   0.950   7.332   3.679 -0.1604 -0.1614 -0.1045
   38MOL   C62240656   0.732   7.558   3.835 -0.1147  0.5380 -1.1048
   38MOL   C62340657   0.675   7.584   3.962 -0.7527  0.2113 -0.3204
   38MOL   C62440658   0.430   7.535   4.350  0.1274 -0.2803  0.3149
   38MOL   C62540659   0.424   7.470   4.474  0.2026  0.3290 -0.3363
   38MOL   C62640660   0.638   7.428   4.813 -0.2118  0.0968  0.2068
   38MOL   C62740661   0.656   7.521   4.914 -0.5429 -0.4995  0.1550
   38MOL   H62840662   0.323   7.576   4.983 -1.8944 -2.1617  0.2306
   38MOL   H62940663   0.301   7.398   4.845  0.4354 -1.4209 -1.2165
   38MOL   H63040664   0.628   7.208   4.400 -0.1757  0.4051 -1.9466
   38MOL   H63140665   0.640   7.315   4.191 -0.2057  1.3528 -0.4511
   38MOL   H63240666   0.434   7.339   3.980 -0.9125 -0.5286  0.5620
   38MOL   H63340667   0.532   7.290   3.768  0.2333 -0.2065 -0.2140
   38MOL   H63440668   0.549   7.312   3.553  0.1188  3.1980  1.1433
   38MOL   H63540669   0.697   7.216   3.593  1.4275  0.3070 -0.8009
   38MOL   H63640670   0.676   7.306   3.443 -2.1665  1.7562 -1.1217
   38MOL   H63740671   0.684   7.549   3.436 -1.2463 -0.3109 -0.6362
   38MOL   H63840672   0.557   7.543   3.557 -0.8276 -1.1248 -2.4093
   38MOL   H63940673   0.715   7.637   3.581 -0.6537 -1.1604  1.2440
   38MOL   H64040674   0.903   7.579   3.437 -1.9327  1.1712  2.1705
   38MOL   H64140675   1.130   7.540   3.398  1.1302  0.7496  1.4025
   38MOL   H64240676   1.149   7.234   3.693 -0.5602 -0.6023  0.5498
   38MOL   H64340677   0.916   7.267   3.758 -1.0993  1.2371  0.6545
   38MOL   H64440678   0.807   7.628   3.801 -0.2734  0.7612 -0.9940
   38MOL   H64540679   0.698   7.678   4.010 -0.0944 -0.3985  0.5639
   38MOL   H64640680   0.381   7.630   4.341  1.2868  0.0369 -3.3540
   38MOL   H64740681   0.357   7.508   4.550  0.8367 -3.5095  2.2962
   38MOL   H64840682   0.724   7.399   4.756  0.5726  0.0768  1.3882
   38MOL   H64940683   0.753   7.557   4.945 -0.5358  1.1418 -1.6647
   38MOL   C65040684   1.337   7.255   3.460  0.2308 -0.3554 -0.5517
   38MOL   C65140685   1.360   7.132   3.518  0.0327 -0.2403  0.3834
   38MOL   C65240686   1.414   7.025   3.449 -0.1936 -0.1393 -0.2322
   38MOL   C65340687   1.439   7.034   3.314 -0.2859  0.0680  0.2532
   38MOL   S65440688   1.515   6.901   3.220  0.5381  0.2903  0.6351
   38MOL   O65540689   1.635   6.855   3.290 -0.3164  0.4867 -0.2789
   38MOL   O65640690   1.530   6.941   3.079 -0.5945 -0.1264  0.3021
   38MOL   C65740691   1.402   6.760   3.217 -0.5184  0.2105 -0.5746
   38MOL   C65840692   1.286   6.767   3.138  0.0935 -0.4575  0.0995
   38MOL   C65940693   1.193   6.661   3.147 -0.2031 -0.6225 -0.2147
   38MOL   C66040694   1.214   6.552   3.233  0.3309 -0.4797 -0.2111
   38MOL   O66140695   1.126   6.448   3.227 -0.0564 -0.0214  0.8747
   38MOL   C66240696   1.168   6.331   3.159 -0.1892 -0.4738  0.0371
   38MOL   C66340697   1.131   6.199   3.201  0.1045 -0.3277 -0.3209
   38MOL   C66440698   1.157   6.086   3.119  0.2075 -0.4968  0.1045
   38MOL   C66540699   1.224   6.095   2.997  0.5046  0.0789  0.6305
   38MOL   C66640700   1.245   5.971   2.912 -0.1073 -0.2924 -0.8112
   38MOL   C66740701   1.210   5.841   2.982 -0.2893  0.6569  0.3138
   38MOL   C66840702   1.144   5.980   2.795 -0.1178  0.3524  0.2808
   38MOL   C66940703   1.391   5.974   2.871  0.1254  0.0781  0.0153
   38MOL   C67040704   1.485   5.937   2.966 -0.7893  1.5107  0.0012
   38MOL   C67140705   1.623   5.943   2.939  0.1765  0.0644 -0.0119
   38MOL   C67240706   1.664   5.982   2.813 -0.4334  0.0224  0.3394
   38MOL   O67340707   1.794   5.987   2.787  0.0966 -0.3927 -0.3191
   38MOL   C67440708   1.571   6.002   2.713 -1.0857  0.0783  0.4987
   38MOL   C67540709   1.436   6.013   2.739 -0.4787  0.6921  0.5315
   38MOL   C67640710   1.273   6.223   2.960 -0.5070 -0.6616 -0.0448
   38MOL   C67740711   1.245   6.336   3.043  0.0261  0.3207  0.1901
   38MOL   C67840712   1.328   6.545   3.312  0.1178  0.3923 -0.4129
   38MOL   C67940713   1.416   6.651   3.308  0.1020  0.1388 -0.2487
   38MOL   C68040714   1.397   7.150   3.247  0.0986 -0.0071  0.3362
   38MOL   C68140715   1.358   7.265   3.317  0.6433 -0.5164 -0.3457
   38MOL   H68240716   1.344   7.125   3.624  4.3040 -1.5427  1.0211
   38MOL   H68340717   1.433   6.935   3.505  0.8178  1.2870  1.8054
   38MOL   H68440718   1.266   6.853   3.076  0.6736  0.2524  0.8908
   38MOL   H68540719   1.105   6.656   3.084  1.8979 -0.8879 -3.2311
   38MOL   H68640720   1.072   6.187   3.290  3.1504  2.9434  2.3062
   38MOL   H68740721   1.106   5.999   3.157 -1.2373 -0.7492 -2.3468
   38MOL   H68840722   1.227   5.745   2.933  1.9008 -0.1579  2.5135
   38MOL   H68940723   1.107   5.835   3.017 -0.5145  0.8496 -0.3083
   38MOL   H69040724   1.261   5.828   3.078 -1.8884  1.9933  1.3780
   38MOL   H69140725   1.156   6.061   2.723  1.3694 -0.6412 -0.6225
   38MOL   H69240726   1.169   5.889   2.740 -0.1808  0.9284 -0.7129
   38MOL   H69340727   1.039   5.984   2.826 -0.1457 -1.0251  0.4245
   38MOL   H69440728   1.451   5.906   3.064  0.4140  0.4445  0.0962
   38MOL   H69540729   1.697   5.910   3.011  1.4379  0.0878 -1.2893
   38MOL   H69640730   1.614   6.032   2.618 -0.9082 -0.9745  0.2406
   38MOL   H69740731   1.366   6.037   2.661 -1.1727  3.0549  1.8342
   38MOL   H69840732   1.337   6.230   2.874  2.8353  0.2590  2.3797
   38MOL   H69940733   1.267   6.434   3.003 -0.0463  2.0821  4.2514
   38MOL   H70040734   1.345   6.457   3.372  0.5036  0.7129 -0.0511
   38MOL   H70140735   1.508   6.656   3.365  0.2646  0.0901 -0.5039
   38MOL   H70240736   1.416   7.148   3.141 -1.2836 -0.0917  0.0860
   38MOL   H70340737   1.339   7.353   3.257  1.4422  1.4121  2.1661
   38MOL   C70440738   1.875   6.048   2.879 -0.3898 -0.2608  0.0461
   38MOL   C70540739   1.950   5.976   2.977 -0.5389  0.1894 -0.5604
   38MOL   C70640740   2.035   6.052   3.060 -0.5661  0.4151  0.3049
   38MOL   C70740741   2.061   6.185   3.041  0.3472  0.1470 -0.0443
   38MOL   S70840742   2.186   6.264   3.136 -0.2138  0.5282 -0.1998
   38MOL   O70940743   2.224   6.390   3.068 -0.0384 -0.6867  0.2286
   38MOL   O71040744   2.291   6.167   3.164 -0.0586  0.7169  0.1577
   38MOL   C71140745   2.103   6.309   3.295  0.3250  0.6251 -0.0992
   38MOL   C71240746   2.048   6.202   3.371  0.0790  0.4867  0.0190
   38MOL   C71340747   2.007   6.232   3.504 -0.1701  0.0190 -0.7335
   38MOL   C71440748   2.036   6.355   3.563  0.2936  0.8780  0.1665
   38MOL   O71540749   2.008   6.383   3.694 -0.0888 -0.4429 -0.2500
   38MOL   C71640750   2.087   6.317   3.785 -0.7785  0.0770 -0.1925
   38MOL   C71740751   2.023   6.225   3.877  0.2090 -0.0173 -0.5453
   38MOL   C71840752   2.100   6.153   3.966 -0.5137 -0.6497  0.4187
   38MOL   C71940753   2.238   6.155   3.964  0.2519  0.4472 -0.3974
   38MOL   C72040754   2.308   6.046   4.047  0.5269 -0.3870 -0.1343
   38MOL   C72140755   2.458   6.048   4.019 -0.5303  0.1660 -0.1137
   38MOL   C72240756   2.290   6.079   4.194 -0.5201 -0.0572 -0.2954
   38MOL   C72340757   2.254   5.912   4.011 -0.6019  0.4714 -1.0423
   38MOL   C72440758   2.200   5.889   3.885  0.3342  0.0201  0.3761
   38MOL   C72540759   2.152   5.765   3.847 -0.0353 -0.3819  0.2308
   38MOL   C72640760   2.151   5.660   3.939  0.3637 -0.6043 -0.3264
   38MOL   O72740761   2.099   5.533   3.917 -0.1629 -0.6668 -0.3808
   38MOL   C72840762   2.207   5.680   4.068 -0.3219  0.2252 -0.4779
   38MOL   C72940763   2.264   5.805   4.104  0.2415  0.1100 -0.0238
   38MOL   C73040764   2.305   6.249   3.880  0.0114 -0.0920  0.2140
   38MOL   C73140765   2.229   6.335   3.797  0.0191 -0.0730  0.5960
   38MOL   C73240766   2.091   6.461   3.485  0.6370 -0.4061 -0.6566
   38MOL   C73340767   2.127   6.436   3.350 -0.2381 -0.1225 -0.0642
   38MOL   C73440768   1.997   6.258   2.935 -0.2521  0.2065 -0.3967
   38MOL   C73540769   1.910   6.180   2.855 -0.1052  0.5129  0.5758
   38MOL   H73640770   1.934   5.871   3.000  1.3135  0.2868  1.3069
   38MOL   H73740771   2.097   5.997   3.128  0.5400  2.0793  0.6611
   38MOL   H73840772   2.041   6.100   3.338  1.1527  0.6619 -0.7644
   38MOL   H73940773   1.969   6.161   3.577  1.1354 -1.7837 -1.7582
   38MOL   H74040774   1.915   6.213   3.881  0.4392 -1.4393  2.5316
   38MOL   H74140775   2.049   6.085   4.032  2.7320 -2.7817  0.8718
   38MOL   H74240776   2.468   6.010   3.917 -0.2134 -0.6642  0.2251
   38MOL   H74340777   2.518   5.982   4.081 -2.0644  0.5285  1.8023
   38MOL   H74440778   2.505   6.144   4.038 -0.4079 -0.2127  1.5799
   38MOL   H74540779   2.303   6.186   4.215 -0.1201  0.2098 -1.8396
   38MOL   H74640780   2.199   6.038   4.236  0.2712 -1.9953 -0.4152
   38MOL   H74740781   2.373   6.032   4.248 -1.6231 -2.5765 -0.7703
   38MOL   H74840782   2.188   5.967   3.811  1.6313 -0.5202 -0.4283
   38MOL   H74940783   2.102   5.761   3.751 -1.7028  2.2111  0.9626
   38MOL   H75040784   2.209   5.596   4.135  1.3022 -2.3834 -3.6197
   38MOL   H75140785   2.309   5.825   4.200 -0.9254  1.4093  0.2803
   38MOL   H75240786   2.410   6.259   3.859 -0.4935 -0.6277 -2.9065
   38MOL   H75340787   2.280   6.406   3.734  1.7627  0.7806  2.9293
   38MOL   H75440788   2.116   6.561   3.517 -0.6462 -0.3634  0.2616
   38MOL   H75540789   2.188   6.503   3.291 -2.6017  2.2043  0.0659
   38MOL   H75640790   2.011   6.363   2.913  1.0211  0.1543  0.0972
   38MOL   H75740791   1.873   6.222   2.763  1.7961 -0.3514 -0.6096
   38MOL   C75840792   2.117   5.474   3.792  0.2358 -0.1511  0.0888
   38MOL   C75940793   2.216   5.374   3.778  0.1874 -0.3097 -0.5956
   38MOL   C76040794   2.242   5.315   3.648  0.0035  0.5105  0.3710
   38MOL   C76140795   2.175   5.366   3.536 -0.1193  0.5206  0.4567
   38MOL   S76240796   2.200   5.292   3.371  0.0884  0.0883 -0.0465
   38MOL   O76340797   2.097   5.343   3.274  0.0735  0.0863 -0.4838
   38MOL   O76440798   2.231   5.149   3.386  0.3291 -0.5427  0.3166
   38MOL   C76540799   2.357   5.361   3.302  0.3484 -0.2063 -0.0683
   38MOL   C76640800   2.473   5.390   3.381  0.1093  0.5537 -0.0626
   38MOL   C76740801   2.587   5.442   3.318  0.1006 -0.4203 -1.0782
   38MOL   C76840802   2.590   5.477   3.184 -0.3365  0.1252 -0.2734
   38MOL   O76940803   2.707   5.515   3.129 -0.0387  0.3664  0.2712
   38MOL   C77040804   2.720   5.645   3.087 -0.6626 -0.8225  0.0304
   38MOL   C77140805   2.748   5.753   3.181  0.1220  0.7447 -0.2057
   38MOL   C77240806   2.779   5.880   3.130 -0.3434  0.3029  0.1493
   38MOL   C77340807   2.761   5.912   2.992 -0.1112  0.1607 -0.5441
   38MOL   C77440808   2.787   6.057   2.937  0.2348  0.7784 -0.3437
   38MOL   C77540809   2.841   6.152   3.041 -0.0704  0.7699  0.0902
   38MOL   C77640810   2.907   6.053   2.844  0.1769  0.0356 -0.0520
   38MOL   C77740811   2.667   6.116   2.859  0.9500  0.0479 -0.6927
   38MOL   C77840812   2.554   6.163   2.932 -0.0159  0.7781 -0.4759
   38MOL   C77940813   2.443   6.222   2.868  0.5179  0.8250  0.6122
   38MOL   C78040814   2.431   6.211   2.730  0.4790 -0.4691 -0.3796
   38MOL   O78140815   2.319   6.264   2.671 -0.1236 -0.9558 -0.1382
   38MOL   C78240816   2.542   6.158   2.658  0.8202  0.5048  0.0281
   38MOL   C78340817   2.660   6.115   2.719 -0.1200 -0.0360 -0.2682
   38MOL   C78440818   2.731   5.812   2.903  0.2729  0.1709  0.4319
   38MOL   C78540819   2.708   5.681   2.947 -0.6331  0.2463 -0.1386
   38MOL   C78640820   2.468   5.456   3.105  0.4422  0.2168  0.1683
   38MOL   C78740821   2.360   5.395   3.167  0.0543  0.4950  0.3316
   38MOL   C78840822   2.078   5.462   3.549 -0.1781 -0.5938  0.0761
   38MOL   C78940823   2.044   5.519   3.676  0.0008  0.1505  0.1085
   38MOL   H79040824   2.278   5.348   3.863 -0.2435  0.5709 -0.0008
   38MOL   H79140825   2.319   5.244   3.622 -0.1055 -0.1360  1.7750
   38MOL   H79240826   2.467   5.367   3.486  2.2565  0.5361  0.0740
   38MOL   H79340827   2.675   5.471   3.373 -0.1294  2.2464 -2.0711
   38MOL   H79440828   2.749   5.734   3.287 -0.0938 -1.6254 -0.5993
   38MOL   H79540829   2.808   5.960   3.197 -1.7543  1.5168 -0.6450
   38MOL   H79640830   2.875   6.251   3.009 -3.5485  1.7323 -0.8434
   38MOL   H79740831   2.933   6.111   3.082  0.8623  1.0256 -1.7000
   38MOL   H79840832   2.772   6.176   3.121 -0.2276  2.6689 -0.5893
   38MOL   H79940833   2.894   5.978   2.766  1.5182  0.1407 -0.3856
   38MOL   H80040834   2.933   6.150   2.802  2.0550 -0.4460 -0.0534
   38MOL   H80140835   2.997   6.013   2.892  0.0652 -0.0664  0.0728
   38MOL   H80240836   2.554   6.148   3.038  0.2095  1.2836 -0.4016
   38MOL   H80340837   2.358   6.257   2.924 -0.5476  0.0322 -0.4673
   38MOL   H80440838   2.528   6.144   2.552 -1.2680 -2.2959  0.6099
   38MOL   H80540839   2.722   6.065   2.646 -0.2093 -0.2435 -0.2039
   38MOL   H80640840   2.734   5.833   2.797  0.4109  1.1454  0.6245
   38MOL   H80740841   2.694   5.604   2.873 -0.5610 -0.8823  1.0254
   38MOL   H80840842   2.469   5.494   3.004  0.4729  0.7914  0.3822
   38MOL   H80940843   2.264   5.401   3.118  0.6084  1.6244 -0.6544
   38MOL   H81040844   2.013   5.486   3.467 -0.3588 -0.3387  0.2914
   38MOL   H81140845   1.962   5.589   3.677 -0.7299 -0.6774 -0.5696
   38MOL   C81240846   2.240   6.183   2.595 -0.9901 -0.4970 -0.0738
   38MOL   C81340847   2.231   6.199   2.452  0.4236 -0.5120 -0.4023
   38MOL   C81440848   2.137   6.126   2.384  0.3591 -0.6248 -0.0719
   38MOL   C81540849   2.070   6.024   2.441  0.1526  0.3968  0.5333
   38MOL   S81640850   1.966   5.932   2.327 -0.0238  0.0305  0.1497
   38MOL   O81740851   2.042   5.903   2.207 -0.4424 -1.0542 -0.2786
   38MOL   O81840852   1.846   6.014   2.318  0.2857  0.2025 -0.2010
   38MOL   C81940853   1.930   5.783   2.411  0.1085  0.2450 -0.1397
   38MOL   C82040854   1.799   5.748   2.445  0.4851  0.7066  0.5325
   38MOL   C82140855   1.777   5.618   2.493 -0.8223 -0.0224 -0.2939
   38MOL   C82240856   1.882   5.525   2.512  0.6777  0.0166  1.2736
   38MOL   O82340857   1.848   5.398   2.542  0.0403  0.5455 -0.3065
   38MOL   C82440858   1.907   5.324   2.637 -0.2288  1.1488  0.1305
   38MOL   C82540859   1.987   5.214   2.597 -0.1275 -0.3372  0.2684
   38MOL   C82640860   2.044   5.120   2.689 -0.4848 -0.6807 -0.5465
   38MOL   C82740861   2.018   5.139   2.827 -0.2912 -0.2106 -0.4579
   38MOL   C82840862   2.080   5.043   2.932  0.0658 -0.1230 -0.3470
   38MOL   C82940863   2.060   5.098   3.069 -0.2048 -0.0502 -0.7302
   38MOL   C83040864   2.004   4.905   2.910 -0.2017  0.7681  0.5682
   38MOL   C83140865   2.228   5.033   2.912 -1.0117  0.6406 -0.3588
   38MOL   C83240866   2.303   5.145   2.885  0.0465  0.1961  0.5324
   38MOL   C83340867   2.439   5.146   2.878  0.6281  0.2942  0.0870
   38MOL   C83440868   2.512   5.032   2.892 -0.4334  0.0318 -0.0050
   38MOL   O83540869   2.649   5.021   2.887 -0.4999 -0.2436 -0.1945
   38MOL   C83640870   2.444   4.910   2.905  0.2222 -0.5158  0.1944
   38MOL   C83740871   2.302   4.907   2.914 -0.1892 -0.5751  0.0111
   38MOL   C83840872   1.928   5.246   2.868  0.5483  0.0066  0.5143
   38MOL   C83940873   1.871   5.332   2.771 -0.1940 -0.1832  0.6419
   38MOL   C84040874   2.015   5.561   2.489 -0.6201  0.3707  0.0989
   38MOL   C84140875   2.037   5.697   2.441  0.5573  0.3420  0.2294
   38MOL   C84240876   2.073   6.006   2.580 -0.2578 -0.4995 -0.3035
   38MOL   C84340877   2.168   6.082   2.658 -0.5390  0.3791  0.4514
   38MOL   H84440878   2.302   6.258   2.395  0.7443 -1.7672 -1.3220
   38MOL   H84540879   2.126   6.143   2.278  0.2617  0.6232  0.1361
   38MOL   H84640880   1.716   5.815   2.428  0.3553  0.5703  0.6279
   38MOL   H84740881   1.674   5.597   2.519 -0.6771 -2.7736 -1.6911
   38MOL   H84840882   2.019   5.197   2.495 -0.3116  2.4031 -0.2992
   38MOL   H84940883   2.105   5.041   2.647 -1.2604  0.0444 -3.1363
   38MOL   H85040884   2.110   5.030   3.137  0.8358  0.1165 -1.3107
   38MOL   H85140885   1.955   5.095   3.097 -1.0805 -1.5258 -3.9078
   38MOL   H85240886   2.103   5.198   3.083  0.4176 -0.4169 -0.0006
   38MOL   H85340887   2.011   4.858   2.812 -0.5136 -2.0316  1.8437
   38MOL   H85440888   2.042   4.834   2.983 -0.1200  0.2085 -0.0151
   38MOL   H85540889   1.899   4.926   2.931 -0.6640 -0.4722 -0.4230
   38MOL   H85640890   2.244   5.233   2.864  0.2905 -0.2814 -2.4875
   38MOL   H85740891   2.487   5.241   2.859  0.3532  0.2247 -1.0191
   38MOL   H85840892   2.495   4.815   2.913  3.9097  1.3128 -0.4080
   38MOL   H85940893   2.254   4.812   2.932 -1.3377 -0.0642 -0.3434
   38MOL   H86040894   1.903   5.266   2.971  2.1484 -0.5971  1.0290
   38MOL   H86140895   1.806   5.411   2.806 -0.2087  0.2472 -0.3575
   38MOL   H86240896   2.100   5.496   2.504 -0.3521 -0.1408 -3.3506
   38MOL   H86340897   2.137   5.720   2.407 -0.4603  1.0878 -2.4349
   38MOL   H86440898   2.020   5.928   2.635 -1.6307  1.4012  1.1577
   38MOL   H86540899   2.170   6.064   2.764 -1.2291  0.0224  0.4093
   38MOL   C86640900   2.731   5.126   2.911 -0.2855 -0.0136 -0.2339
   38MOL   C86740901   2.778   5.137   3.048  0.8217 -0.6391 -0.2190
   38MOL   C86840902   2.873   5.239   3.074  0.4733  0.5493  0.6747
   38MOL   C86940903   2.923   5.327   2.974 -0.2878  1.0648 -0.0750
   38MOL   S87040904   3.056   5.435   3.029  0.1017  0.6349  0.1503
   38MOL   O87140905   3.163   5.357   3.093 -0.2254 -0.4122 -0.4187
   38MOL   O87240906   2.999   5.538   3.117  0.8293 -0.8034  0.1760
   38MOL   C87340907   3.116   5.516   2.879 -0.8635  0.6827  0.2409
   38MOL   C87440908   3.185   5.434   2.789  0.2836 -0.2221 -0.4321
   38MOL   C87540909   3.221   5.485   2.665  0.7212  0.4596  0.1610
   38MOL   C87640910   3.198   5.623   2.637  0.2141 -0.6391 -0.2679
   38MOL   O87740911   3.229   5.673   2.516 -0.5139 -0.2186  0.3768
   38MOL   C87840912   3.184   5.605   2.405  0.4711 -0.3551  0.3137
   38MOL   C87940913   3.282   5.563   2.304  0.8624  0.0030 -0.2926
   38MOL   C88040914   3.240   5.492   2.188 -0.0756  0.0763  0.2555
   38MOL   C88140915   3.106   5.473   2.151 -0.0636 -0.1452  0.1618
   38MOL   C88240916   3.059   5.418   2.016 -0.4022  0.1433 -0.7003
   38MOL   C88340917   3.123   5.499   1.904 -0.8221 -0.7153  0.0082
   38MOL   C88440918   3.123   5.277   2.012 -0.1976  0.7192  1.2238
   38MOL   C88540919   2.902   5.403   1.994 -1.0558  0.7573 -0.0249
   38MOL   C88640920   2.835   5.286   2.008 -0.2864 -0.0892 -0.2318
   38MOL   C88740921   2.691   5.278   2.008 -0.8664 -0.0335 -0.4637
   38MOL   C88840922   2.615   5.390   1.976  0.4878  0.0777  0.7042
   38MOL   O88940923   2.481   5.384   1.970  0.1840  0.1174 -0.4259
   38MOL   C89040924   2.685   5.514   1.953 -0.5549 -0.7241 -0.6732
   38MOL   C89140925   2.824   5.517   1.968 -0.4883 -0.3703 -0.0829
   38MOL   C89240926   3.010   5.505   2.253  0.0399  0.2752 -0.5860
   38MOL   C89340927   3.050   5.562   2.376 -0.6366 -0.0519 -0.5491
   38MOL   C89440928   3.138   5.707   2.732  0.5245 -0.4255 -0.2938
   38MOL   C89540929   3.093   5.651   2.856 -0.2630 -0.7180  0.4120
   38MOL   C89640930   2.874   5.320   2.842  0.4626 -0.0715  0.7362
   38MOL   C89740931   2.779   5.212   2.813 -0.3013  0.1205  0.6596
   38MOL   H89840932   2.741   5.075   3.128 -0.8222  0.1958 -0.3144
   38MOL   H89940933   2.894   5.269   3.176 -2.0059  0.7948  1.1341
   38MOL   H90040934   3.187   5.327   2.803  2.4706 -0.2731 -1.0547
   38MOL   H90140935   3.260   5.424   2.585  0.9961  0.9639 -0.0864
   38MOL   H90240936   3.385   5.586   2.326  0.3780  1.8489  0.1803
   38MOL   H90340937   3.323   5.469   2.123 -0.8392 -0.2948 -0.5879
   38MOL   H90440938   3.096   5.604   1.916  0.9609  0.1408 -3.0073
   38MOL   H90540939   3.086   5.463   1.808 -0.5792 -1.5927  0.2382
   38MOL   H90640940   3.232   5.493   1.901 -0.7387  0.8152 -0.4825
   38MOL   H90740941   3.090   5.219   1.926  0.7852  0.5556  0.9448
   38MOL   H90840942   3.232   5.275   2.014 -0.1873 -3.2689  1.1737
   38MOL   H90940943   3.083   5.214   2.092 -0.9334 -0.6272 -0.1877
   38MOL   H91040944   2.886   5.194   2.036 -0.4677  0.1618  0.9747
   38MOL   H91140945   2.634   5.186   2.014 -0.1607 -0.5283 -1.2798
   38MOL   H91240946   2.635   5.605   1.923 -0.3004 -0.5063 -0.4386
   38MOL   H91340947   2.869   5.614   1.956 -0.3346 -0.2242  1.4952
   38MOL   H91440948   2.907   5.473   2.251 -0.6545  2.3502  0.6726
   38MOL   H91540949   2.981   5.580   2.458  3.3403  1.0786  2.7130
   38MOL   H91640950   3.112   5.808   2.706 -0.4911 -0.1775  1.6363
   38MOL   H91740951   3.037   5.716   2.922 -2.1077 -2.9933  1.1264
   38MOL   H91840952   2.902   5.382   2.758 -0.1790  0.0560  0.6108
   38MOL   H91940953   2.746   5.184   2.714 -0.7038 -0.1867  0.8788
   38MOL   C92040954   2.419   5.357   1.857 -0.4467 -0.3424  0.1611
   38MOL   C92140955   2.438   5.431   1.741 -0.0232  0.4338  0.3990
   38MOL   C92240956   2.357   5.425   1.631  0.1568  0.5014 -0.7221
   38MOL   C92340957   2.240   5.344   1.637 -0.0511  0.3347  0.1349
   38MOL   S92440958   2.113   5.338   1.501 -0.2764 -0.1418  0.5304
   38MOL   O92540959   2.177   5.369   1.372 -0.5253 -0.1306 -0.1165
   38MOL   O92640960   2.002   5.421   1.553 -0.7421 -0.3139  0.3090
   38MOL   C92740961   2.066   5.167   1.488 -0.5567 -0.2676 -0.2892
   38MOL   C92840962   2.167   5.060   1.484  0.3279 -0.5041 -0.4241
   38MOL   C92940963   2.131   4.927   1.454  0.3781  1.0802 -0.1701
   38MOL   C93040964   1.992   4.895   1.427  0.4707  0.2301  0.1030
   38MOL   O93140965   1.947   4.772   1.398 -0.4641  0.3462  0.1285
   38MOL   C93240966   1.828   4.723   1.460  0.4712 -0.3177  0.3504
   38MOL   C93340967   1.741   4.646   1.387 -0.3423 -0.0364 -0.0459
   38MOL   C93440968   1.622   4.596   1.442 -0.1967  0.3692 -0.4902
   38MOL   C93540969   1.596   4.608   1.578  0.2012 -0.3425  0.0627
   38MOL   C93640970   1.466   4.559   1.648  0.4091 -0.1299 -0.1843
   38MOL   C93740971   1.384   4.684   1.686  0.6227 -0.0532 -0.3344
   38MOL   C93840972   1.375   4.482   1.556 -0.4366  0.1484 -0.1010
   38MOL   C93940973   1.506   4.472   1.769  0.1664 -0.1631  0.5618
   38MOL   C94040974   1.496   4.519   1.904 -0.2707  0.1050 -0.1282
   38MOL   C94140975   1.531   4.442   2.015  0.7393  0.4867 -0.6559
   38MOL   C94240976   1.585   4.317   1.992  0.3277 -0.6468 -0.3396
   38MOL   O94340977   1.631   4.236   2.097  0.2068  0.1752 -0.4745
   38MOL   C94440978   1.586   4.260   1.863 -0.9004 -0.5108 -0.1432
   38MOL   C94540979   1.557   4.341   1.752  0.1727  0.3315 -0.4429
   38MOL   C94640980   1.681   4.686   1.658 -0.1086  0.2206 -0.1768
   38MOL   C94740981   1.796   4.736   1.601 -0.3649 -0.2356  0.1018
   38MOL   C94840982   1.899   4.997   1.439  0.5594  0.4298  0.1414
   38MOL   C94940983   1.931   5.132   1.455 -0.0086 -0.7144 -0.6538
   38MOL   C95040984   2.219   5.263   1.752 -0.2038 -0.1396 -0.1758
   38MOL   C95140985   2.313   5.268   1.860 -0.9619  0.1767 -0.6205
   38MOL   H95240986   2.531   5.483   1.724 -0.8573  1.0202 -2.5487
   38MOL   H95340987   2.379   5.486   1.545  1.7604  0.8786 -0.0608
   38MOL   H95440988   2.270   5.091   1.488 -0.0712  0.7797  0.2149
   38MOL   H95540989   2.207   4.850   1.457 -1.9546 -1.2370  1.6270
   38MOL   H95640990   1.756   4.645   1.280 -1.6134  2.1805 -0.2903
   38MOL   H95740991   1.547   4.540   1.389 -0.0424 -0.2189 -0.0871
   38MOL   H95840992   1.298   4.663   1.751 -0.9515  3.8311 -1.0681
   38MOL   H95940993   1.341   4.729   1.598  0.2478  0.0802 -0.0835
   38MOL   H96040994   1.446   4.764   1.726  0.4413  1.0122 -2.1278
   38MOL   H96140995   1.430   4.394   1.522  0.0391  0.4882 -0.2161
   38MOL   H96240996   1.285   4.445   1.605 -0.6373  1.3298  0.4325
   38MOL   H96340997   1.329   4.524   1.467 -0.5253  0.4433  0.0824
   38MOL   H96440998   1.458   4.616   1.931 -1.1401 -0.6548  1.4646
   38MOL   H96540999   1.518   4.478   2.116  2.0490  2.2963 -1.1089
   38MOL   H96641000   1.632   4.167   1.834 -0.0246 -0.1262 -0.0194
   38MOL   H96741001   1.574   4.298   1.654  1.0762 -2.4685  0.9058
   38MOL   H96841002   1.663   4.702   1.763  0.0512  1.1241 -0.2794
   38MOL   H96941003   1.864   4.784   1.669 -3.3834  1.3831  2.0479
   38MOL   H97041004   1.794   4.981   1.419  0.4531 -1.0614  1.7851
   38MOL   H97141005   1.858   5.210   1.437  0.2709 -0.7090 -1.8024
   38MOL   H97241006   2.129   5.203   1.757 -0.0905 -0.1632  2.2598
   38MOL   H97341007   2.295   5.221   1.956  0.4605 -0.5397 -0.6912
   38MOL   C97441008   1.762   4.226   2.138  0.1086 -0.1982 -0.0239
   38MOL   C97541009   1.802   4.111   2.210 -0.2600 -0.1477  0.2677
   38MOL   C97641010   1.933   4.100   2.261 -0.2470 -0.2193  0.3050
   38MOL   C97741011   2.022   4.203   2.244  0.5516  0.0163  0.0426
   38MOL   S97841012   2.188   4.186   2.324 -0.1176 -0.2623  0.1726
   38MOL   O97941013   2.164   4.097   2.438  0.2914  0.0899  0.2972
   38MOL   O98041014   2.231   4.323   2.345  0.2125 -0.3497  0.4221
   38MOL   C98141015   2.301   4.112   2.215 -0.6841  0.5967 -0.3857
   38MOL   C98241016   2.285   3.967   2.204  0.1195 -0.5396 -0.1129
   38MOL   C98341017   2.386   3.884   2.156 -0.0025 -0.0509  0.1158
   38MOL   C98441018   2.506   3.942   2.109  0.6373  0.3864 -0.1219
   38MOL   O98541019   2.598   3.854   2.060  0.4985  0.0477  0.6449
   38MOL   C98641020   2.725   3.893   2.054 -0.0212 -0.0554  0.2405
   38MOL   C98741021   2.796   3.920   1.930  0.5340 -0.1768 -0.7883
   38MOL   C98841022   2.925   3.967   1.926  0.2554 -0.7745 -0.2828
   38MOL   C98941023   2.995   3.981   2.045 -0.0584 -0.1631  0.1123
   38MOL   C99041024   3.130   4.050   2.049  0.4497  0.7954  0.6845
   38MOL   C99141025   3.199   4.036   1.912  0.0570 -0.2289  0.3426
   38MOL   C99241026   3.108   4.193   2.071  0.2474  0.0961 -0.7060
   38MOL   C99341027   3.225   3.977   2.148 -0.0714 -0.7961  0.4136
   38MOL   C99441028   3.277   4.046   2.256  0.5712  0.7791 -0.4586
   38MOL   C99541029   3.366   3.977   2.342 -0.3657 -0.6725 -0.1511
   38MOL   C99641030   3.390   3.836   2.328 -0.5607  0.4766 -0.1585
   38MOL   O99741031   3.482   3.775   2.414 -0.1533 -0.4073  0.0320
   38MOL   C99841032   3.337   3.765   2.226  0.3288 -0.3288 -0.1698
   38MOL   C99941033   3.255   3.840   2.137 -0.5654 -1.1576  0.1885
   38MOL     C141034   2.931   3.940   2.168 -0.3300 -0.3131  0.5441
   38MOL     C241035   2.800   3.893   2.171 -0.3436 -0.4032  0.2111
   38MOL     C341036   2.516   4.081   2.109 -0.3976 -0.1977 -0.9119
   38MOL     C441037   2.414   4.166   2.161 -0.3409 -0.0281  0.8648
   38MOL     C541038   1.984   4.316   2.179 -0.4946  0.2376 -0.0055
   38MOL     C641039   1.856   4.331   2.119 -0.2386 -0.3537 -1.1799
   38MOL     H741040   1.737   4.027   2.230  2.1443 -2.3069 -0.5737
   38MOL     H841041   1.960   4.008   2.310  1.1846 -0.7601 -1.4360
   38MOL     H941042   2.190   3.930   2.239 -0.8724  1.7021 -0.3358
   38MOL    H1041043   2.372   3.778   2.142  1.4765  0.0011 -2.0504
   38MOL    H1141044   2.742   3.907   1.837 -0.8380 -0.6746  0.0548
   38MOL    H1241045   2.964   3.994   1.829  0.2135  1.7107  0.3383
   38MOL    H1341046   3.218   3.930   1.894 -1.3707 -0.3979 -0.1835
   38MOL    H1441047   3.298   4.081   1.914  0.3213 -0.6945 -1.6870
   38MOL    H1541048   3.162   4.080   1.820  1.9433  0.3945 -0.1433
   38MOL    H1641049   3.043   4.229   1.991  1.5104  2.2419 -0.8048
   38MOL    H1741050   3.044   4.199   2.159  1.3743 -2.8349  0.3712
   38MOL    H1841051   3.194   4.260   2.073 -1.1326  1.9592 -1.9902
   38MOL    H1941052   3.271   4.152   2.273  2.7110  0.7065  0.9798
   38MOL    H2041053   3.413   4.028   2.426  1.8926 -0.5867 -1.4275
   38MOL    H2141054   3.357   3.660   2.212  0.1692 -0.5619  1.3458
   38MOL    H2241055   3.205   3.787   2.057 -0.5243 -1.4689  0.3676
   38MOL    H2341056   2.986   3.959   2.259  0.4020 -1.4621  0.3501
   38MOL    H2441057   2.760   3.859   2.266  0.2490  1.1929  1.0524
   38MOL    H2541058   2.608   4.123   2.072  0.2616 -1.7601 -1.0797
   38MOL    H2641059   2.434   4.272   2.155  2.0246 -0.3644  2.1345
   38MOL    H2741060   2.054   4.398   2.168  2.2065 -1.9797  0.3732
   38MOL    H2841061   1.825   4.423   2.071  2.5872  2.0303  1.3390
   38MOL    C2941062   3.439   3.664   2.483 -0.2955 -0.0984  0.3045
   38MOL    C3041063   3.354   3.678   2.592 -0.2371  0.9163  0.5777
   38MOL    C3141064   3.314   3.564   2.665 -0.0119 -0.7913  0.1395
   38MOL    C3241065   3.362   3.435   2.624 -0.5405  0.3491 -0.1068
   38MOL    S3341066   3.314   3.284   2.701  0.6614 -0.2919  0.0977
   38MOL    O3441067   3.435   3.208   2.721 -0.2459 -0.1245 -0.3969
   38MOL    O3541068   3.207   3.232   2.614 -0.2605 -0.1639 -0.5103
   38MOL    C3641069   3.243   3.315   2.863  0.6701 -0.0358  0.2205
   38MOL    C3741070   3.322   3.347   2.972 -0.1979 -0.4760  0.0960
   38MOL    C3841071   3.269   3.368   3.102  0.5794 -0.0691 -0.0594
   38MOL    C3941072   3.133   3.349   3.129  0.4416  0.5171  0.4964
   38MOL    O4041073   3.074   3.361   3.250 -0.2893  0.1233 -0.2094
   38MOL    C4141074   3.075   3.248   3.333  0.2745 -0.6734  0.5895
   38MOL    C4241075   3.000   3.251   3.451 -0.6001  0.5519  0.4022
   38MOL    C4341076   2.992   3.136   3.536  0.7034 -0.0106  0.0862
   38MOL    C4441077   3.082   3.032   3.513  0.6548 -0.1875 -0.6723
   38MOL    C4541078   3.110   2.934   3.628 -0.1022  0.3544  0.5977
   38MOL    C4641079   3.009   2.953   3.750 -0.3462 -0.4609 -0.0910
   38MOL    C4741080   3.081   2.790   3.584  0.5550 -0.7175  0.9323
   38MOL    C4841081   3.258   2.958   3.677 -1.2259  0.6895 -0.2889
   38MOL    C4941082   3.363   2.865   3.664  0.5329  0.6171 -0.0077
   38MOL    C5041083   3.498   2.896   3.707  0.2899 -0.1922 -0.1730
   38MOL    C5141084   3.526   3.024   3.761  0.6643 -0.4883  0.0026
   38MOL    O5241085   3.647   3.064   3.792 -0.3243  0.6297 -0.2311
   38MOL    C5341086   3.420   3.111   3.783  0.8216 -0.9486  0.3665
   38MOL    C5441087   3.291   3.083   3.737  0.0192  0.8095  1.0009
   38MOL    C5541088   3.163   3.030   3.399  0.8066 -0.1527  0.0590
   38MOL    C5641089   3.147   3.136   3.306 -0.2186 -0.0107 -0.0678
   38MOL    C5741090   3.050   3.322   3.020 -0.5016 -0.2353  0.0879
   38MOL    C5841091   3.098   3.315   2.885  0.1888 -0.0585  0.2602
   38MOL    C5941092   3.458   3.425   2.522  0.4275  0.5793 -0.1915
   38MOL    C6041093   3.503   3.544   2.453 -0.0775  0.1183 -0.2474
   38MOL    H6141094   3.318   3.778   2.611  0.3266  1.0494  0.9575
   38MOL    H6241095   3.249   3.580   2.749  2.3728  0.4688  1.8084
   38MOL    H6341096   3.427   3.363   2.958 -0.3198 -0.2708 -0.5721
   38MOL    H6441097   3.340   3.386   3.181  1.9843 -2.1429 -0.7971
   38MOL    H6541098   2.941   3.336   3.480  0.7481  0.8819  2.2881
   38MOL    H6641099   2.930   3.139   3.624  0.0872 -4.3821 -0.0558
   38MOL    H6741100   3.037   2.897   3.839 -1.6249  2.3767  2.1609
   38MOL    H6841101   2.910   2.921   3.720 -0.9109  1.1881 -0.0260
   38MOL    H6941102   3.017   3.053   3.794  2.8781 -1.5111  1.8507
   38MOL    H7041103   3.114   2.733   3.671  3.1377  2.8509  2.4370
   38MOL    H7141104   2.978   2.762   3.561  1.6898 -3.0685 -1.5550
   38MOL    H7241105   3.138   2.768   3.494  2.3696  3.3545  0.9704
   38MOL    H7341106   3.357   2.773   3.608  0.0256  0.1886  0.7488
   38MOL    H7441107   3.580   2.826   3.696  0.9739  0.7247 -1.0794
   38MOL    H7541108   3.443   3.204   3.831 -0.8142 -0.8622  1.0171
   38MOL    H7641109   3.220   3.164   3.747 -1.1421 -0.1967  0.9644
   38MOL    H7741110   3.230   2.948   3.379 -0.3355 -0.3850 -3.0377
   38MOL    H7841111   3.206   3.126   3.216 -0.4488 -1.4308 -0.0706
   38MOL    H7941112   2.947   3.296   3.038 -0.9604  0.3930 -1.5510
   38MOL    H8041113   3.031   3.299   2.802  0.3004 -0.0344  0.1658
   38MOL    H8141114   3.507   3.332   2.500 -0.9783 -0.4260  0.7854
   38MOL    H8241115   3.581   3.534   2.379  0.7214  1.5092  0.3720
   38MOL    H8341116   3.707   2.993   3.808  0.3929  1.2077 -0.3554
   39MOL     C141117   6.480   2.142   2.477 -0.0480 -0.0501  0.1679
   39MOL     C241118   6.382   2.142   2.372  0.4703  0.2842  0.5866
   39MOL     C341119   6.427   2.092   2.247 -0.2835  0.5673 -0.6544
   39MOL     C441120   6.559   2.056   2.220  0.0578 -0.3139 -0.5264
   39MOL     S541121   6.596   2.013   2.057  0.2134 -0.1730  0.3761
   39MOL     O641122   6.484   2.047   1.975  0.0599 -0.4438  0.2687
   39MOL     O741123   6.636   1.872   2.047  0.4902 -0.4865 -0.4029
   39MOL     C841124   6.734   2.121   2.006 -0.4621 -0.4486  0.2692
   39MOL     C941125   6.810   2.081   1.897  0.5569  0.2311 -0.4000
   39MOL    C1041126   6.928   2.153   1.863 -0.5983  0.5109  0.6929
   39MOL    C1141127   6.963   2.266   1.926  0.1302  0.1608 -0.4643
   39MOL    O1241128   7.079   2.337   1.913 -0.2833 -0.3363  0.2867
   39MOL    C1341129   7.117   2.383   1.790  0.3769  0.4170  0.1677
   39MOL    C1441130   7.234   2.334   1.727 -0.5414  0.1755  0.1292
   39MOL    C1541131   7.274   2.392   1.599  0.0650  0.0491  0.0304
   39MOL    C1641132   7.195   2.498   1.546  0.4093 -0.0914  0.8205
   39MOL    C1741133   7.239   2.576   1.416  0.4713 -0.0636  0.2955
   39MOL    C1841134   7.248   2.728   1.449  0.2601 -0.7037 -0.2205
   39MOL    C1941135   7.375   2.529   1.368 -0.0715  0.3111  0.0735
   39MOL    C2041136   7.132   2.557   1.299 -0.0741 -0.0231 -0.2908
   39MOL    C2141137   7.139   2.645   1.189 -0.0175 -0.4257  0.0063
   39MOL    C2241138   7.048   2.633   1.084  0.0584 -0.1657 -0.1599
   39MOL    C2341139   6.949   2.531   1.088  0.8830  1.0745 -0.0614
   39MOL    O2441140   6.855   2.523   0.986  0.1352 -0.2596  0.5622
   39MOL    C2541141   6.939   2.443   1.198 -0.2245  0.8130 -0.1666
   39MOL    C2641142   7.026   2.458   1.304 -0.7817 -0.5948 -0.5705
   39MOL    C2741143   7.072   2.534   1.611  0.2440  0.5966 -0.2613
   39MOL    C2841144   7.037   2.479   1.731 -0.2626  0.3932  0.0017
   39MOL    C2941145   6.868   2.323   2.023  0.6047 -0.2651 -0.2839
   39MOL    C3041146   6.760   2.243   2.068  0.4642  0.0075 -0.5410
   39MOL    C3141147   6.654   2.065   2.324  0.1930 -0.4451 -0.0002
   39MOL    C3241148   6.612   2.106   2.449  0.5245 -0.2456  0.3049
   39MOL    H3341149   6.281   2.176   2.391  0.7850  1.2575  0.5187
   39MOL    H3441150   6.354   2.083   2.168  0.0378  1.5667 -1.0787
   39MOL    H3541151   6.785   1.987   1.852  0.2323  0.0081  0.2376
   39MOL    H3641152   6.997   2.115   1.790 -0.4616  0.1535  1.0075
   39MOL    H3741153   7.296   2.262   1.777  0.8346 -1.0540 -3.1552
   39MOL    H3841154   7.365   2.367   1.546 -0.6978  2.8053 -2.7522
   39MOL    H3941155   7.154   2.782   1.463 -0.4823 -1.6418 -1.4341
   39MOL    H4041156   7.301   2.792   1.378 -1.8913 -1.4711 -2.6201
   39MOL    H4141157   7.308   2.736   1.539 -0.3198 -0.0021  0.1079
   39MOL    H4241158   7.419   2.585   1.285 -0.5866  0.7269  0.0796
   39MOL    H4341159   7.457   2.538   1.439  1.1536  1.6489 -1.4444
   39MOL    H4441160   7.384   2.430   1.324 -0.7565  0.0830  0.4438
   39MOL    H4541161   7.211   2.726   1.192 -0.2603 -0.2375  3.1108
   39MOL    H4641162   7.058   2.692   0.994 -0.2801 -0.4446 -0.3846
   39MOL    H4741163   6.868   2.361   1.193  0.2691  0.5384 -4.5517
   39MOL    H4841164   7.023   2.392   1.389 -1.4525 -0.7771 -0.7368
   39MOL    H4941165   7.014   2.615   1.571 -2.2932 -0.1631  1.7192
   39MOL    H5041166   6.941   2.507   1.770 -0.6218 -1.6438  0.6538
   39MOL    H5141167   6.886   2.423   2.060  0.8504 -0.7130  0.7972
   39MOL    H5241168   6.699   2.278   2.150  0.2607  0.9950 -1.1115
   39MOL    H5341169   6.759   2.053   2.303  0.2857  1.2712 -0.6180
   39MOL    H5441170   6.684   2.110   2.530  0.1985 -2.5895  0.7416
   39MOL    H5541171   6.456   2.174   2.577  2.5828  0.2201  0.7499
   39MOL    C5641172   6.721   2.491   1.004  0.3454  0.1217  0.2358
   39MOL    C5741173   6.637   2.576   1.075 -0.0488 -0.0309  0.2525
   39MOL    C5841174   6.505   2.544   1.095  0.8159  0.0355 -0.3584
   39MOL    C5941175   6.457   2.432   1.040  0.0958 -0.3596 -0.0512
   39MOL    S6041176   6.287   2.385   1.079  0.4522 -0.0752  0.2047
   39MOL    O6141177   6.223   2.492   1.155 -0.0949 -0.1009 -0.0743
   39MOL    O6241178   6.288   2.251   1.136  0.1004 -0.0554  0.1312
   39MOL    C6341179   6.193   2.363   0.926  0.3163 -0.0385 -1.1218
   39MOL    C6441180   6.217   2.260   0.828 -0.2997  0.0984 -0.6250
   39MOL    C6541181   6.130   2.250   0.713 -0.4192  0.3591  0.1725
   39MOL    C6641182   6.019   2.334   0.691  0.8404 -0.6598 -0.5221
   39MOL    O6741183   5.937   2.320   0.577 -0.2271 -0.1834 -0.7123
   39MOL    C6841184   5.916   2.430   0.505 -0.6037 -0.3939 -0.0672
   39MOL    C6941185   5.813   2.527   0.536 -0.5872  0.4201 -0.1597
   39MOL    C7041186   5.788   2.624   0.442 -0.6967 -0.6978  0.3224
   39MOL    C7141187   5.856   2.638   0.319  0.0315  0.3098  0.1898
   39MOL    C7241188   5.823   2.743   0.206 -0.5392 -0.0854  0.5009
   39MOL    C7341189   5.723   2.847   0.259  0.0181 -0.2241  0.2704
   39MOL    C7441190   5.942   2.837   0.167  0.8830  0.3304  0.7886
   39MOL    C7541191   5.764   2.679   0.079 -0.0716  0.0189  0.3843
   39MOL    C7641192   5.723   2.763   8.226  0.1923  0.4140 -0.0728
   39MOL    C7741193   5.667   2.713   8.103  0.6625  0.3349 -0.0337
   39MOL    C7841194   5.661   2.578   8.084 -0.1382 -1.1258 -0.4991
   39MOL    O7941195   5.619   2.526   7.968 -0.3934  0.4008  0.7813
   39MOL    C8041196   5.702   2.489   8.187  0.1477 -0.1088  0.4028
   39MOL    C8141197   5.755   2.542   0.056 -1.2468  0.5635 -0.3426
   39MOL    C8241198   5.948   2.547   0.292 -0.0114  0.2004  0.0460
   39MOL    C8341199   5.976   2.438   0.376 -0.1399  0.5016 -0.5626
   39MOL    C8441200   6.008   2.444   0.782  0.1791 -0.6039 -0.1541
   39MOL    C8541201   6.082   2.451   0.906 -0.7355 -0.2252  0.8124
   39MOL    C8641202   6.535   2.344   0.963 -0.1579  0.6205 -0.3514
   39MOL    C8741203   6.666   2.372   0.951 -0.0102 -0.1347 -0.1370
   39MOL    H8841204   6.680   2.663   1.122  1.7980 -1.9486  2.2753
   39MOL    H8941205   6.442   2.602   1.161  0.6852 -1.5805  0.9712
   39MOL    H9041206   6.290   2.181   0.833  1.3778  1.4818 -2.5579
   39MOL    H9141207   6.149   2.180   0.633 -0.2202  0.0235  0.5174
   39MOL    H9241208   5.749   2.525   0.623  0.1704  2.1634  0.4527
   39MOL    H9341209   5.708   2.693   0.465 -0.4537 -0.8836  1.8069
   39MOL    H9441210   5.773   2.897   0.343 -0.3717 -1.0928  1.0211
   39MOL    H9541211   5.631   2.797   0.289 -0.1709  0.2950  0.5602
   39MOL    H9641212   5.684   2.918   0.186  0.6013 -0.7376 -0.5425
   39MOL    H9741213   5.974   2.887   0.258 -2.4271  1.1920  1.5602
   39MOL    H9841214   6.024   2.781   0.122  0.6558 -0.7157  1.6691
   39MOL    H9941215   5.903   2.907   0.093 -0.5352 -1.5538 -0.2936
   39MOL   H10041216   5.723   2.871   8.233 -1.1764  0.3184  1.9418
   39MOL   H10141217   5.631   2.782   8.028 -0.2433  2.2238  2.0927
   39MOL   H10241218   5.690   2.382   8.174 -0.7144 -0.0745  0.8400
   39MOL   H10341219   5.781   2.465   0.127  1.8120  0.3030 -1.6678
   39MOL   H10441220   5.991   2.540   0.193  0.5935  0.8862  0.2545
   39MOL   H10541221   6.046   2.359   0.354  0.1936  0.4490  0.6570
   39MOL   H10641222   5.936   2.522   0.765 -1.4057 -1.8953  0.4724
   39MOL   H10741223   6.066   2.538   0.968 -0.2581  1.2163 -0.9992
   39MOL   H10841224   6.503   2.248   0.925  0.9825  0.0133  0.1843
   39MOL   H10941225   6.722   2.292   0.905 -1.2846 -2.1490  1.7080
   39MOL   C11041226   5.698   2.531   7.856 -0.1230  0.4024  0.4189
   39MOL   C11141227   5.671   2.633   7.760 -0.5742  0.9612 -0.2254
   39MOL   C11241228   5.765   2.645   7.652  0.5082  0.3054 -0.1718
   39MOL   C11341229   5.872   2.550   7.637  0.2920  0.1242 -0.2534
   39MOL   S11441230   5.992   2.561   7.508 -0.1291 -0.3177 -0.2398
   39MOL   O11541231   6.067   2.436   7.503  0.2538 -0.0053  0.2068
   39MOL   O11641232   6.066   2.688   7.518 -0.1796 -0.7015 -0.3954
   39MOL   C11741233   5.892   2.573   7.366  0.3994 -0.1901  0.2409
   39MOL   C11841234   5.849   2.701   7.316 -0.1192  0.0101 -0.2150
   39MOL   C11941235   5.772   2.705   7.197  0.7781  0.6802  0.2268
   39MOL   C12041236   5.744   2.590   7.120 -0.3776  0.2739 -0.4692
   39MOL   O12141237   5.668   2.608   7.006 -0.7303 -0.1204  0.1370
   39MOL   C12241238   5.639   2.502   6.921  1.1490 -0.2493  0.3730
   39MOL   C12341239   5.544   2.413   6.968 -0.0296  0.4508  0.2215
   39MOL   C12441240   5.507   2.300   6.888  0.1745 -0.6043  0.2272
   39MOL   C12541241   5.552   2.297   6.754 -0.2392 -0.4940 -0.0722
   39MOL   C12641242   5.508   2.182   6.664 -0.5004 -0.0252  0.3191
   39MOL   C12741243   5.547   2.198   6.514  0.1112  0.2019  0.2816
   39MOL   C12841244   5.564   2.049   6.718 -0.0190 -0.6295  0.1397
   39MOL   C12941245   5.353   2.176   6.665  1.1304  0.0532  0.0823
   39MOL   C13041246   5.279   2.058   6.700  0.6306  0.3238 -0.6980
   39MOL   C13141247   5.139   2.064   6.715  0.5330 -0.3063  0.4415
   39MOL   C13241248   5.067   2.188   6.704 -0.2019 -0.3382  0.2784
   39MOL   O13341249   4.929   2.194   6.738 -0.6288 -0.4639  0.4591
   39MOL   C13441250   5.141   2.306   6.665  0.1837  0.1679  0.1349
   39MOL   C13541251   5.279   2.294   6.645 -0.3069  0.3835 -0.1347
   39MOL   C13641252   5.649   2.387   6.707 -0.0232 -0.4810 -0.6608
   39MOL   C13741253   5.697   2.488   6.792  0.4231  0.0215 -0.3841
   39MOL   C13841254   5.796   2.466   7.166  0.0150  0.7204  0.3497
   39MOL   C13941255   5.855   2.458   7.295  0.1838  0.8706  0.4927
   39MOL   C14041256   5.886   2.440   7.726  0.7656  0.5439  0.2643
   39MOL   C14141257   5.800   2.431   7.837  1.1667  0.3793  0.4254
   39MOL   H14241258   5.592   2.705   7.769 -0.1392  1.3402  0.6956
   39MOL   H14341259   5.748   2.715   7.571 -0.8304 -0.1434 -0.3031
   39MOL   H14441260   5.879   2.794   7.361  1.6344 -0.5292 -0.2442
   39MOL   H14541261   5.733   2.797   7.156 -1.0168  0.2591  0.9000
   39MOL   H14641262   5.516   2.438   7.070 -0.1598 -0.5628  0.4408
   39MOL   H14741263   5.431   2.236   6.929  0.6047 -0.1033  1.8456
   39MOL   H14841264   5.655   2.212   6.512  0.0728  0.3848 -1.3863
   39MOL   H14941265   5.509   2.288   6.465 -0.0542  0.2768  0.5492
   39MOL   H15041266   5.512   2.111   6.459 -1.8840  1.3807 -0.3938
   39MOL   H15141267   5.553   1.956   6.662  1.8919 -1.6739  1.4014
   39MOL   H15241268   5.668   2.061   6.749 -0.4354 -1.5482  1.9981
   39MOL   H15341269   5.521   2.021   6.814  0.1787 -0.3048  0.3247
   39MOL   H15441270   5.331   1.964   6.711 -1.1296 -0.9649 -2.8378
   39MOL   H15541271   5.080   1.976   6.736 -0.7092  0.4607  0.2187
   39MOL   H15641272   5.088   2.398   6.647 -1.0530 -0.6244 -0.4310
   39MOL   H15741273   5.323   2.390   6.625  2.5277 -0.4186  1.9556
   39MOL   H15841274   5.708   2.373   6.617  0.6259  2.0800 -0.6669
   39MOL   H15941275   5.777   2.547   6.751 -0.1700 -0.7619 -2.7349
   39MOL   H16041276   5.780   2.385   7.097  1.0330 -0.7087  1.7501
   39MOL   H16141277   5.886   2.364   7.338 -0.1378  0.1722 -0.7948
   39MOL   H16241278   5.972   2.375   7.718  1.4158  1.4653 -0.3243
   39MOL   H16341279   5.805   2.349   7.907  0.6338  0.2392  0.3003
   39MOL   C16441280   4.882   2.301   6.809 -0.6373  0.2305  0.0284
   39MOL   C16541281   4.963   2.355   6.915  0.6993  0.9078 -0.3444
   39MOL   C16641282   4.909   2.449   7.006 -0.8007 -0.3028  0.2810
   39MOL   C16741283   4.776   2.489   6.992  0.5073 -0.4724  0.0033
   39MOL   S16841284   4.703   2.615   7.093 -0.3165 -0.1481  0.4480
   39MOL   O16941285   4.562   2.634   7.063  0.6605 -0.1433  0.3498
   39MOL   O17041286   4.788   2.738   7.097  0.4694  0.0927  0.0602
   39MOL   C17141287   4.707   2.548   7.256 -0.0694 -0.1680 -0.3929
   39MOL   C17241288   4.801   2.589   7.358  0.8307 -0.4912 -0.2453
   39MOL   C17341289   4.782   2.553   7.496  0.4949  0.4682 -0.2873
   39MOL   C17441290   4.671   2.474   7.528  0.0906  0.4645 -0.5569
   39MOL   O17541291   4.654   2.425   7.658  0.0500 -0.1646 -0.0945
   39MOL   C17641292   4.628   2.514   7.752  0.3065  0.4075  0.2916
   39MOL   C17741293   4.503   2.581   7.753 -0.7149  0.2158  0.9523
   39MOL   C17841294   4.473   2.671   7.853  0.2351 -0.0741 -0.2188
   39MOL   C17941295   4.561   2.702   7.959  0.6936  0.2868 -0.8140
   39MOL   C18041296   4.519   2.816   8.052 -0.0345  0.0603 -0.1943
   39MOL   C18141297   4.642   2.856   8.136 -0.1865 -0.8843 -0.0314
   39MOL   C18241298   4.472   2.947   7.983  0.1347  0.2021 -0.6643
   39MOL   C18341299   4.408   2.763   8.151  0.6158  0.1031  0.1470
   39MOL   C18441300   4.384   2.622   8.152 -0.2441 -0.1399 -0.5392
   39MOL   C18541301   4.286   2.572   8.240 -0.6077  0.8422 -0.2885
   39MOL   C18641302   4.215   2.660   0.078  0.1828 -0.0170 -0.5374
   39MOL   O18741303   4.129   2.603   0.173  0.0965 -0.3863  0.5700
   39MOL   C18841304   4.236   2.794   0.066  0.1213  0.3115  0.6316
   39MOL   C18941305   4.335   2.846   8.235  0.5841 -0.0172  0.0413
   39MOL   C19041306   4.689   2.631   7.956 -0.2974  0.1270 -0.1732
   39MOL   C19141307   4.722   2.541   7.855 -0.1309  0.2557  1.0006
   39MOL   C19241308   4.579   2.430   7.432  0.4559 -0.0062 -0.7362
   39MOL   C19341309   4.596   2.473   7.301  0.3207 -0.4726  0.0858
   39MOL   C19441310   4.693   2.433   6.888 -0.5414 -0.1415 -0.3291
   39MOL   C19541311   4.751   2.344   6.792 -0.1728 -0.6560 -0.3978
   39MOL   H19641312   5.067   2.330   6.927  0.0789 -1.4610  0.4937
   39MOL   H19741313   4.976   2.496   7.076  0.5701  0.4307 -1.5131
   39MOL   H19841314   4.884   2.648   7.321  1.2846 -2.0720 -1.8476
   39MOL   H19941315   4.847   2.577   7.579  2.2598  0.0310 -1.5228
   39MOL   H20041316   4.434   2.571   7.670  0.1285 -1.2920  0.4242
   39MOL   H20141317   4.377   2.721   7.849  0.9475  1.4738  1.4135
   39MOL   H20241318   4.676   2.776   8.202 -1.9046 -0.6007  1.2342
   39MOL   H20341319   4.614   2.940   8.198 -0.1379  1.2229 -2.7690
   39MOL   H20441320   4.726   2.894   8.078  0.0091 -1.9281 -0.4597
   39MOL   H20541321   4.387   2.917   7.923 -0.6986  1.5214 -0.1635
   39MOL   H20641322   4.457   3.020   8.063 -0.0637 -0.9321  0.3411
   39MOL   H20741323   4.542   2.980   7.906 -1.4246  0.3103 -2.0702
   39MOL   H20841324   4.433   2.548   8.090  1.2216 -0.5674  1.0808
   39MOL   H20941325   4.267   2.466   8.238  1.5153  0.4290  0.1813
   39MOL   H21041326   4.180   2.867   0.123  1.0633  0.1135  1.8325
   39MOL   H21141327   4.341   2.953   8.244 -0.5086 -0.1089  2.1585
   39MOL   H21241328   4.767   2.647   8.029 -0.2405  2.1644 -0.6478
   39MOL   H21341329   4.818   2.493   7.865 -0.2861  0.0300  1.4127
   39MOL   H21441330   4.504   2.359   7.464 -0.7131  1.6770  0.3538
   39MOL   H21541331   4.516   2.447   7.233 -0.5727 -0.8440  1.2669
   39MOL   H21641332   4.595   2.478   6.880  0.1037  1.2914 -0.3854
   39MOL   H21741333   4.689   2.298   6.716 -1.7116 -0.3671  0.6624
   39MOL   C21841334   4.171   2.615   0.305  0.0547  0.2044 -0.8346
   39MOL   C21941335   4.272   2.535   0.359  0.1957 -0.0947 -0.6039
   39MOL   C22041336   4.294   2.524   0.500 -0.8923  0.2586 -0.5837
   39MOL   C22141337   4.207   2.596   0.586 -0.1490  0.1685  0.3555
   39MOL   S22241338   4.212   2.577   0.772 -0.0832  0.0189 -0.5967
   39MOL   O22341339   4.084   2.622   0.826 -0.1496  0.0810  0.2961
   39MOL   O22441340   4.336   2.624   0.837  0.4416 -0.3370  0.0660
   39MOL   C22541341   4.214   2.398   0.793 -0.0209 -0.3953  0.1251
   39MOL   C22641342   4.327   2.315   0.772 -0.2572 -0.6875 -0.0687
   39MOL   C22741343   4.313   2.175   0.785 -0.0570  0.1963  0.2422
   39MOL   C22841344   4.191   2.119   0.813  0.8123  0.5343  0.7309
   39MOL   O22941345   4.175   1.985   0.822 -1.0986  0.5258 -0.1959
   39MOL   C23041346   4.243   1.900   0.738 -0.2172  0.3695  0.3546
   39MOL   C23141347   4.329   1.810   0.800 -0.1846  0.1582 -0.0713
   39MOL   C23241348   4.415   1.734   0.718 -0.3552  0.0209 -0.5783
   39MOL   C23341349   4.408   1.745   0.576 -0.2457  0.2907  0.3258
   39MOL   C23441350   4.500   1.658   0.489 -0.0891 -0.3897  0.4241
   39MOL   C23541351   4.435   1.517   0.478  0.0227  0.2005  0.4767
   39MOL   C23641352   4.528   1.713   0.353 -0.3494 -0.4720  0.0603
   39MOL   C23741353   4.641   1.651   0.556 -0.0711  0.1694  0.3032
   39MOL   C23841354   4.720   1.531   0.568  0.4123  0.0969  0.1583
   39MOL   C23941355   4.848   1.524   0.629  0.1416 -0.5976 -0.1364
   39MOL   C24041356   4.914   1.643   0.662  0.1288  0.7924 -0.4946
   39MOL   O24141357   5.045   1.632   0.708 -0.1051 -0.1622  0.2655
   39MOL   C24241358   4.838   1.761   0.649 -0.9192  0.0343 -0.2645
   39MOL   C24341359   4.702   1.770   0.603 -0.6313 -0.5528  0.1422
   39MOL   C24441360   4.303   1.819   0.519 -0.1092 -0.9223  0.1145
   39MOL   C24541361   4.219   1.894   0.598 -0.2774 -0.8611 -0.4016
   39MOL   C24641362   4.079   2.201   0.842  0.2808 -0.1076  0.3831
   39MOL   C24741363   4.091   2.339   0.835  0.2872 -0.1356  0.4009
   39MOL   C24841364   4.110   2.680   0.530  0.0203 -0.0916 -0.7061
   39MOL   C24941365   4.090   2.693   0.391 -0.0766  0.6490  0.5745
   39MOL   H25041366   4.342   2.483   0.296  2.1749 -2.2373  3.1423
   39MOL   H25141367   4.367   2.459   0.545 -2.6153  0.7627  3.0763
   39MOL   H25241368   4.422   2.354   0.739 -1.1896  0.7377 -1.1154
   39MOL   H25341369   4.401   2.120   0.753  0.2829  0.4542  0.7278
   39MOL   H25441370   4.337   1.814   0.908 -1.4889  2.1870 -0.0221
   39MOL   H25541371   4.494   1.676   0.763  1.9287  2.9794 -0.6123
   39MOL   H25641372   4.430   1.469   0.575 -2.1016  0.9802  0.7643
   39MOL   H25741373   4.500   1.464   0.408  2.7219  0.7405  2.4736
   39MOL   H25841374   4.334   1.519   0.438 -0.1479  0.4566  0.9235
   39MOL   H25941375   4.571   1.813   0.354 -0.4666 -0.4242  0.2462
   39MOL   H26041376   4.601   1.648   0.304 -0.8264 -0.8944 -0.0976
   39MOL   H26141377   4.444   1.718   0.284 -0.5691  1.1902  0.4335
   39MOL   H26241378   4.670   1.438   0.547  2.6380 -1.0840 -0.0338
   39MOL   H26341379   4.903   1.431   0.636  2.9332  0.9446 -0.8370
   39MOL   H26441380   4.887   1.853   0.677  1.2750 -0.9790 -0.6620
   39MOL   H26541381   4.659   1.869   0.601 -0.0697 -0.2991  0.7510
   39MOL   H26641382   4.286   1.817   0.412 -1.1853  0.9478  0.2292
   39MOL   H26741383   4.146   1.959   0.552 -1.1451 -0.7926  1.0514
   39MOL   H26841384   3.980   2.165   0.868  0.5536 -0.5785  0.7780
   39MOL   H26941385   4.006   2.403   0.849  1.1167  0.9496  0.5949
   39MOL   H27041386   4.045   2.726   0.603 -1.6981 -3.3563 -0.0671
   39MOL   H27141387   4.000   2.743   0.357 -2.0161 -1.7573  2.0745
   39MOL   C27241388   5.143   1.658   0.612 -0.8054  0.6440 -0.0556
   39MOL   C27341389   5.156   1.785   0.552  0.4709  0.0015 -1.1374
   39MOL   C27441390   5.256   1.810   0.454  0.3227  0.1819  0.0931
   39MOL   C27541391   5.341   1.708   0.421  0.1049  0.0445  1.2967
   39MOL   S27641392   5.481   1.729   0.309  0.0773  0.1355  0.3411
   39MOL   O27741393   5.440   1.647   0.193 -0.0641 -0.1608 -0.1490
   39MOL   O27841394   5.599   1.695   0.385 -0.0133  0.2734 -0.2225
   39MOL   C27941395   5.479   1.898   0.258  0.6994 -0.3038 -0.1917
   39MOL   C28041396   5.573   1.983   0.315  0.3592  0.3244  0.6426
   39MOL   C28141397   5.581   2.117   0.267 -0.1599 -0.3010  0.5441
   39MOL   C28241398   5.494   2.169   0.168  0.5049 -0.2174 -0.1675
   39MOL   O28341399   5.509   2.296   0.113  1.2793  0.1888  0.1778
   39MOL   C28441400   5.444   2.390   0.190  0.1023  0.4071 -0.7519
   39MOL   C28541401   5.517   2.466   0.284 -0.2805  0.8628  0.2742
   39MOL   C28641402   5.453   2.569   0.366  0.5867 -0.2841  0.7751
   39MOL   C28741403   5.314   2.601   0.339 -0.1882 -0.2938 -0.1734
   39MOL   C28841404   5.248   2.728   0.406  0.4322 -0.5177 -0.4680
   39MOL   C28941405   5.092   2.719   0.388 -0.7637 -0.4432 -0.2665
   39MOL   C29041406   5.287   2.747   0.553  0.3663  0.0622  0.1647
   39MOL   C29141407   5.290   2.855   0.335  0.8774 -0.1108  0.2876
   39MOL   C29241408   5.319   2.852   0.199  0.2530  0.1302  0.3584
   39MOL   C29341409   5.369   2.961   0.125  0.2870  0.1319 -0.1386
   39MOL   C29441410   5.383   3.084   0.189  0.4311  0.6373  0.2078
   39MOL   O29541411   5.434   3.198   0.128  0.2901  0.1169  0.4553
   39MOL   C29641412   5.340   3.095   0.325 -0.3401  0.8541  0.3713
   39MOL   C29741413   5.302   2.979   0.398 -0.0127  0.3076  0.5601
   39MOL   C29841414   5.245   2.522   0.242  0.6143  0.1813 -0.3845
   39MOL   C29941415   5.304   2.418   0.171 -0.2748  0.1115 -0.3430
   39MOL   C30041416   5.401   2.079   0.111  0.4747 -0.0061  0.1795
   39MOL   C30141417   5.398   1.942   0.152 -0.3343 -0.1858  0.4510
   39MOL   C30241418   5.334   1.582   0.478 -0.2981  0.8462 -0.1836
   39MOL   C30341419   5.236   1.555   0.576  0.0666 -0.7156 -0.2193
   39MOL   H30441420   5.091   1.864   0.588 -0.1562 -1.0059 -0.0223
   39MOL   H30541421   5.272   1.910   0.414 -0.9825 -0.0283 -0.9966
   39MOL   H30641422   5.635   1.944   0.395  2.5249 -1.9761 -2.0550
   39MOL   H30741423   5.659   2.180   0.307  1.1593 -1.6778  0.2059
   39MOL   H30841424   5.623   2.455   0.301 -0.0494  2.4692  0.0220
   39MOL   H30941425   5.506   2.617   0.446  2.1847 -0.9078  0.1162
   39MOL   H31041426   5.057   2.736   0.287 -0.5408  2.3118  0.0773
   39MOL   H31141427   5.038   2.794   0.446  1.6813 -0.3718  2.0357
   39MOL   H31241428   5.058   2.621   0.422  0.4510 -0.5678  0.6201
   39MOL   H31341429   5.393   2.771   0.564  0.4346  1.0845 -2.3143
   39MOL   H31441430   5.217   2.812   0.605  1.1462  0.8621  0.2335
   39MOL   H31541431   5.278   2.652   0.606  1.2089  0.5782  1.2486
   39MOL   H31641432   5.313   2.760   0.143 -2.0517  0.5888 -0.1850
   39MOL   H31741433   5.395   2.954   0.021 -0.3497  0.2906 -0.3098
   39MOL   H31841434   5.346   3.192   0.373 -0.9555 -0.1036  2.4628
   39MOL   H31941435   5.273   2.991   0.501  1.7794 -2.6079  1.4756
   39MOL   H32041436   5.142   2.547   0.218 -0.0543 -0.5425  1.6212
   39MOL   H32141437   5.245   2.371   0.094  0.8000  0.3059 -1.3089
   39MOL   H32241438   5.330   2.110   0.035 -0.4298  0.0524  1.0374
   39MOL   H32341439   5.332   1.872   0.101  0.4927 -0.4454 -0.2735
   39MOL   H32441440   5.410   1.511   0.451 -0.8116  0.2801 -0.1472
   39MOL   H32541441   5.242   1.460   0.627  1.8343 -0.4719  0.0659
   39MOL   C32641442   5.471   3.189   0.000 -0.0932  0.1454 -0.2748
   39MOL   C32741443   5.605   3.163   8.219  0.4171  0.1241 -0.2657
   39MOL   C32841444   5.647   3.148   8.085  0.5880 -0.3277 -0.0796
   39MOL   C32941445   5.549   3.152   7.989  0.2562  0.4599  0.9735
   39MOL   S33041446   5.607   3.133   7.817 -0.1798 -0.2193 -0.2989
   39MOL   O33141447   5.696   3.014   7.826 -0.1620  0.2226  0.3456
   39MOL   O33241448   5.656   3.264   7.775  0.2301 -0.5773 -0.4057
   39MOL   C33341449   5.467   3.089   7.710  0.4898  0.6482  0.0247
   39MOL   C33441450   5.420   3.179   7.615 -0.1395 -0.0177 -0.1986
   39MOL   C33541451   5.335   3.132   7.517  0.7079  0.6594  0.2525
   39MOL   C33641452   5.273   3.008   7.529 -0.3735  0.3634  0.4556
   39MOL   O33741453   5.193   2.970   7.429 -0.0626  0.0583 -0.5145
   39MOL   C33841454   5.058   2.971   7.443  0.4469  0.0744 -0.2689
   39MOL   C33941455   4.992   2.877   7.528  0.0392  0.7694 -0.1438
   39MOL   C34041456   4.849   2.876   7.539 -0.8138 -1.0529  0.1294
   39MOL   C34141457   4.773   2.965   7.456  0.3424 -1.1570 -1.0162
   39MOL   C34241458   4.619   2.955   7.454 -0.1729  0.1846  0.3040
   39MOL   C34341459   4.584   2.904   7.315 -0.0778  0.6086  0.2542
   39MOL   C34441460   4.562   2.840   7.550 -0.2440  0.1079 -0.0418
   39MOL   C34541461   4.548   3.087   7.478 -0.2053 -0.4781  0.5560
   39MOL   C34641462   4.492   3.118   7.602 -0.3727  0.1198 -0.3409
   39MOL   C34741463   4.417   3.233   7.619  0.0906  0.3702  0.2859
   39MOL   C34841464   4.407   3.330   7.519 -0.1500 -0.5682  0.2172
   39MOL   O34941465   4.340   3.454   7.533 -0.0887 -0.4093 -0.0165
   39MOL   C35041466   4.469   3.309   7.397 -0.2645  0.3730  0.1729
   39MOL   C35141467   4.535   3.185   7.377  0.4638 -0.4750 -0.1930
   39MOL   C35241468   4.840   3.058   7.371  0.1887  0.4213 -0.2177
   39MOL   C35341469   4.976   3.060   7.369  0.0570 -0.4193  0.1578
   39MOL   C35441470   5.314   2.921   7.631  0.4778  0.2179  0.6202
   39MOL   C35541471   5.408   2.961   7.730  0.3612 -0.3181  0.1357
   39MOL   C35641472   5.411   3.177   8.015  0.3051 -0.4720 -0.0315
   39MOL   C35741473   5.378   3.185   8.149 -0.1569 -0.2888 -0.1243
   39MOL   H35841474   5.684   3.162   0.041  0.9607 -2.3165 -0.8108
   39MOL   H35941475   5.751   3.141   8.055  0.6391  1.5731 -0.3580
   39MOL   H36041476   5.456   3.281   7.606 -3.8931  1.3432 -1.0178
   39MOL   H36141477   5.309   3.195   7.433  2.5095 -0.5835 -1.3069
   39MOL   H36241478   5.053   2.820   7.596 -2.7189 -0.4407  1.4065
   39MOL   H36341479   4.808   2.805   7.609 -1.4790 -0.1685  0.6474
   39MOL   H36441480   4.483   2.864   7.304  0.8229 -1.5745 -0.3573
   39MOL   H36541481   4.640   2.814   7.292 -0.1818  0.4219  0.7223
   39MOL   H36641482   4.616   2.966   7.232 -0.7440  1.6657  0.7736
   39MOL   H36741483   4.579   2.865   7.654 -0.1023 -1.2035  0.2611
   39MOL   H36841484   4.456   2.826   7.531 -0.0982  1.3427 -1.9817
   39MOL   H36941485   4.611   2.744   7.531  1.1050  1.3538 -3.2351
   39MOL   H37041486   4.512   3.064   7.693  0.8713  0.3734 -0.4532
   39MOL   H37141487   4.381   3.255   7.718  0.3659 -0.1607  0.5039
   39MOL   H37241488   4.467   3.376   7.313 -1.8388  1.0919  0.7603
   39MOL   H37341489   4.583   3.170   7.281  0.7251  2.1049 -0.5159
   39MOL   H37441490   4.778   3.124   7.312  0.3658 -0.5732 -1.5521
   39MOL   H37541491   5.028   3.126   7.302 -0.9343  1.4009  1.1499
   39MOL   H37641492   5.271   2.823   7.647  1.2173 -0.7282 -2.8081
   39MOL   H37741493   5.449   2.894   7.805 -1.0063 -0.0962  1.0990
   39MOL   H37841494   5.328   3.177   7.946  0.9465 -1.5572 -0.8162
   39MOL   H37941495   5.274   3.206   8.168 -0.0218  0.8052 -0.5308
   39MOL   C38041496   4.245   3.469   7.636 -0.2748  0.8469  0.0501
   39MOL   C38141497   4.232   3.581   7.720  0.7216 -0.7458 -0.3013
   39MOL   C38241498   4.132   3.578   7.825  0.0119 -0.3227  0.8621
   39MOL   C38341499   4.051   3.465   7.838  0.5329 -0.7021 -0.1477
   39MOL   S38441500   3.936   3.453   7.986  0.3254 -0.0669  0.5542
   39MOL   O38541501   3.804   3.400   7.943 -0.0303 -0.4593  0.1863
   39MOL   O38641502   3.943   3.586   8.044  0.0717  0.6729  0.6515
   39MOL   C38741503   4.023   3.343   8.096  0.7552 -0.9458  0.5649
   39MOL   C38841504   4.167   3.319   8.088  0.4791  0.0030  0.4823
   39MOL   C38941505   4.228   3.254   8.195  0.3327  0.2597  1.0416
   39MOL   C39041506   4.151   3.215   0.056 -0.5935 -0.1921  0.0939
   39MOL   O39141507   4.218   3.148   0.156  0.9905 -0.0435  0.0663
   39MOL   C39241508   4.307   3.221   0.229 -0.4196  0.5530  0.7022
   39MOL   C39341509   4.269   3.349   0.274  0.6027 -1.2354 -0.4544
   39MOL   C39441510   4.352   3.430   0.352  0.9955  0.1526  0.1056
   39MOL   C39541511   4.478   3.385   0.383 -0.0936 -0.0646 -0.1670
   39MOL   C39641512   4.572   3.466   0.472  0.3310  0.0288 -0.1421
   39MOL   C39741513   4.716   3.473   0.405 -0.5408 -0.7223 -0.3312
   39MOL   C39841514   4.522   3.610   0.513 -0.0667  0.3856  0.5984
   39MOL   C39941515   4.582   3.395   0.613 -0.3370  0.9974  0.0586
   39MOL   C40041516   4.675   3.434   0.715  0.4403  0.0114  0.2406
   39MOL   C40141517   4.680   3.367   0.838 -0.2461 -0.2648 -0.2534
   39MOL   C40241518   4.589   3.263   0.867  0.1285  0.5946  0.3565
   39MOL   O40341519   4.597   3.183   0.979  0.2046  0.2130 -0.1702
   39MOL   C40441520   4.493   3.236   0.770 -0.7109 -0.2985 -0.6543
   39MOL   C40541521   4.482   3.301   0.650  0.7410  0.2537 -0.3671
   39MOL   C40641522   4.524   3.260   0.339 -0.6344  0.3216  0.1778
   39MOL   C40741523   4.441   3.181   0.257 -0.6818  0.2485 -0.2797
   39MOL   C40841524   4.010   3.237   0.065 -0.0226  0.4562 -0.0680
   39MOL   C40941525   3.948   3.301   8.210  0.0515 -0.1575  0.5732
   39MOL   C41041526   4.051   3.359   7.747  0.9289 -0.7186 -0.3178
   39MOL   C41141527   4.144   3.365   7.647 -0.6203 -0.0579 -0.0626
   39MOL   H41241528   4.306   3.660   7.714  0.8068 -0.8928 -1.3164
   39MOL   H41341529   4.133   3.652   7.903 -1.9321 -0.8995  1.4609
   39MOL   H41441530   4.227   3.361   8.009 -0.7361  1.9049  0.5517
   39MOL   H41541531   4.335   3.243   8.203  0.4777  1.7820  1.3048
   39MOL   H41641532   4.170   3.384   0.248  0.3416 -1.0527  0.7671
   39MOL   H41741533   4.316   3.531   0.366  2.4909  0.2997  3.3043
   39MOL   H41841534   4.704   3.531   0.313 -2.9262 -3.0217 -1.5497
   39MOL   H41941535   4.765   3.379   0.377 -1.3004 -1.4975  0.9342
   39MOL   H42041536   4.783   3.523   0.474 -0.3490  1.1787 -1.8458
   39MOL   H42141537   4.512   3.666   0.421  1.8329  1.1271  0.8255
   39MOL   H42241538   4.430   3.610   0.571 -1.6829  1.2767 -1.8833
   39MOL   H42341539   4.603   3.663   0.564  1.5369 -1.0497 -0.3808
   39MOL   H42441540   4.753   3.508   0.706 -0.0252  0.4007 -0.7069
   39MOL   H42541541   4.747   3.402   0.916  0.2885  1.9390 -1.6353
   39MOL   H42641542   4.430   3.151   0.795  1.5504 -1.5599  0.9786
   39MOL   H42741543   4.393   3.282   0.592  1.2910 -1.2409 -0.7344
   39MOL   H42841544   4.625   3.227   0.361 -0.8458  1.5630  3.3383
   39MOL   H42941545   4.477   3.086   0.220  0.1110 -0.2595  1.7432
   39MOL   H43041546   3.958   3.205   0.154 -0.3465 -0.8139 -0.6992
   39MOL   H43141547   3.844   3.330   8.215  0.3720  0.9421  0.8680
   39MOL   H43241548   3.996   3.268   7.765 -1.9483  0.7394 -1.3608
   39MOL   H43341549   4.150   3.282   7.578 -0.6049  1.3627 -1.8284
   39MOL   C43441550   4.716   3.122   1.008  0.3512  0.3367 -1.0553
   39MOL   C43541551   4.771   3.017   0.928 -0.1712 -0.4986 -0.9827
   39MOL   C43641552   4.891   2.955   0.960  0.6110  0.7904 -0.6268
   39MOL   C43741553   4.957   2.986   1.081  0.3068 -0.1006  0.4648
   39MOL   S43841554   5.111   2.908   1.133 -0.0939 -0.2865 -0.0377
   39MOL   O43941555   5.215   3.015   1.157  0.4261  0.1848  0.0341
   39MOL   O44041556   5.146   2.814   1.027 -0.5328 -0.2221  1.0443
   39MOL   C44141557   5.093   2.818   1.291  0.4473  0.5475 -0.4970
   39MOL   C44241558   5.065   2.882   1.410  0.0526 -0.7315 -0.0880
   39MOL   C44341559   5.078   2.822   1.536  0.5540 -0.4248  0.2075
   39MOL   C44441560   5.119   2.690   1.539 -0.6202 -0.4332 -0.2688
   39MOL   O44541561   5.157   2.635   1.658 -0.1945  0.4071 -0.5115
   39MOL   C44641562   5.288   2.647   1.697 -0.8596 -0.1519  0.2808
   39MOL   C44741563   5.383   2.567   1.635 -0.7095  0.0419  0.3993
   39MOL   C44841564   5.517   2.594   1.641 -0.5607 -0.1503 -0.3618
   39MOL   C44941565   5.562   2.698   1.728 -1.0001  0.0414 -0.8784
   39MOL   C45041566   5.715   2.736   1.736 -0.5941 -0.4824 -0.3966
   39MOL   C45141567   5.806   2.626   1.679 -0.0171  0.7477 -0.2095
   39MOL   C45241568   5.738   2.858   1.660 -0.3512  0.2047  0.8033
   39MOL   C45341569   5.752   2.758   1.881 -0.1596 -0.6122 -0.2832
   39MOL   C45441570   5.816   2.872   1.931  0.4240  0.1716  0.3816
   39MOL   C45541571   5.860   2.876   2.064 -0.4723  0.3986  0.1289
   39MOL   C45641572   5.845   2.765   2.148 -0.3535  0.2370 -0.0512
   39MOL   O45741573   5.887   2.774   2.278  0.1722 -0.3752 -0.4617
   39MOL   C45841574   5.780   2.650   2.100 -0.4465 -0.5292  0.2570
   39MOL   C45941575   5.731   2.647   1.968 -0.4024  0.1893 -0.0606
   39MOL   C46041576   5.462   2.775   1.792 -0.4415  0.0694 -0.6895
   39MOL   C46141577   5.329   2.759   1.770 -0.4055 -0.1814  0.2614
   39MOL   C46241578   5.131   2.612   1.417 -0.8309  0.2146 -0.1050
   39MOL   C46341579   5.121   2.684   1.294  0.8761 -0.0968 -0.3265
   39MOL   C46441580   4.908   3.088   1.160  0.8413  0.2974  0.1002
   39MOL   C46541581   4.790   3.156   1.123 -0.8020 -0.6189 -0.2047
   39MOL   H46641582   4.703   2.993   0.847 -1.8432  1.7459 -0.2810
   39MOL   H46741583   4.927   2.873   0.898 -0.2732 -0.2491  0.2095
   39MOL   H46841584   5.050   2.989   1.413  0.1793 -0.7502  1.3542
   39MOL   H46941585   5.078   2.881   1.627 -1.2248  0.7248 -0.5058
   39MOL   H47041586   5.354   2.486   1.570 -1.0459 -0.3277  1.0051
   39MOL   H47141587   5.576   2.529   1.577  0.6493 -0.0542  0.6367
   39MOL   H47241588   5.800   2.528   1.726  3.0016 -0.3783 -2.0452
   39MOL   H47341589   5.910   2.660   1.685  0.8043 -1.8283  0.8446
   39MOL   H47441590   5.793   2.608   1.573 -0.9839 -0.0713  0.0394
   39MOL   H47541591   5.843   2.883   1.648 -0.6662  0.2792 -2.2308
   39MOL   H47641592   5.707   2.845   1.556 -1.7040 -2.1264  1.4388
   39MOL   H47741593   5.674   2.934   1.705 -2.8044 -1.8514  0.9011
   39MOL   H47841594   5.826   2.964   1.875  2.2942 -0.5938 -0.6207
   39MOL   H47941595   5.894   2.970   2.106 -1.8849  0.6750  0.6945
   39MOL   H48041596   5.765   2.561   2.160  1.2990 -2.0840 -1.5113
   39MOL   H48141597   5.679   2.556   1.945  1.8207 -1.9313  2.8518
   39MOL   H48241598   5.498   2.860   1.849  0.3190 -1.1782  0.7161
   39MOL   H48341599   5.248   2.823   1.803  0.8043  1.3168  0.4211
   39MOL   H48441600   5.146   2.506   1.406  0.6916  0.3302  0.7765
   39MOL   H48541601   5.132   2.635   1.199  0.0438 -0.1455 -0.4023
   39MOL   H48641602   4.963   3.130   1.243  0.2919  0.2989  0.4698
   39MOL   H48741603   4.769   3.241   1.186  1.9799  0.8610 -1.2165
   39MOL   C48841604   5.784   2.792   2.367 -0.0547  0.2375  0.4560
   39MOL   C48941605   5.746   2.694   2.465 -0.4155  0.0259 -0.0480
   39MOL   C49041606   5.628   2.717   2.542 -0.5150  0.4349 -0.1433
   39MOL   C49141607   5.562   2.837   2.544 -0.4215 -0.3425  0.2124
   39MOL   S49241608   5.414   2.871   2.649  0.0864  0.4644 -0.1560
   39MOL   O49341609   5.395   2.753   2.739  0.3264  0.4598  0.1086
   39MOL   O49441610   5.309   2.910   2.558 -0.4102 -0.3482  0.3254
   39MOL   C49541611   5.469   3.007   2.755 -0.1803  0.0241 -0.9631
   39MOL   C49641612   5.525   2.978   2.882  0.2721 -0.0610  0.0289
   39MOL   C49741613   5.545   3.087   2.965 -0.0426  1.0048  0.2087
   39MOL   C49841614   5.528   3.219   2.919  0.0854 -0.3021 -0.4887
   39MOL   O49941615   5.567   3.322   2.997 -0.1304  0.6154 -0.9678
   39MOL   C50041616   5.694   3.333   3.040  0.2193  0.8370 -0.3477
   39MOL   C50141617   5.738   3.280   3.158 -0.7823  0.0002 -0.5243
   39MOL   C50241618   5.865   3.315   3.209 -0.3867  0.1052 -0.4710
   39MOL   C50341619   5.961   3.388   3.136 -0.2989 -0.0998  0.2931
   39MOL   C50441620   6.095   3.419   3.197 -0.1694  0.3193  0.5104
   39MOL   C50541621   6.083   3.457   3.343 -0.1067 -0.3178 -1.0026
   39MOL   C50641622   6.158   3.278   3.188 -0.1873  0.2979  0.1694
   39MOL   C50741623   6.178   3.533   3.123 -0.4804  0.1218  0.6275
   39MOL   C50841624   6.144   3.668   3.145 -0.2437 -0.0598  0.2025
   39MOL   C50941625   6.237   3.768   3.117 -0.0101  0.5290  0.8087
   39MOL   C51041626   6.356   3.743   3.041  0.5345  0.2015 -0.2814
   39MOL   O51141627   6.443   3.843   3.024  0.5424 -0.7544  0.2928
   39MOL   C51241628   6.382   3.604   3.005  0.4179 -0.8104 -0.2712
   39MOL   C51341629   6.295   3.501   3.053 -0.3610 -0.3206  0.5560
   39MOL   C51441630   5.919   3.438   3.014 -0.4164  0.0291  0.7050
   39MOL   C51541631   5.788   3.409   2.967  0.2379  0.2772 -0.0607
   39MOL   C51641632   5.479   3.251   2.789  0.3802  0.1590  0.2623
   39MOL   C51741633   5.449   3.138   2.707 -0.4414 -0.1675 -0.5043
   39MOL   C51841634   5.598   2.941   2.458 -0.6890  0.3927 -0.6940
   39MOL   C51941635   5.705   2.914   2.362 -0.2080 -0.7300 -0.0418
   39MOL   H52041636   5.795   2.599   2.475  1.7907  1.2259  0.7383
   39MOL   H52141637   5.608   2.638   2.612  0.0386  0.1727 -0.2708
   39MOL   H52241638   5.531   2.875   2.914 -2.3142 -0.6011 -1.0853
   39MOL   H52341639   5.575   3.075   3.068  0.4367  1.4654  0.1261
   39MOL   H52441640   5.672   3.229   3.227 -0.1011  0.6466  0.6340
   39MOL   H52541641   5.902   3.272   3.301 -0.1893  1.8514  0.2982
   39MOL   H52641642   6.181   3.492   3.374 -0.3243 -1.2921  0.8114
   39MOL   H52741643   6.066   3.374   3.411 -4.0677  0.2663 -1.1814
   39MOL   H52841644   6.022   3.542   3.373  1.5840  1.4059 -2.3071
   39MOL   H52941645   6.249   3.293   3.245  1.0076  1.5001 -2.0122
   39MOL   H53041646   6.104   3.199   3.240  1.2349 -1.9493 -1.6393
   39MOL   H53141647   6.165   3.249   3.083 -2.6782  0.8232 -0.1852
   39MOL   H53241648   6.054   3.691   3.201 -2.8890 -2.5820 -2.7779
   39MOL   H53341649   6.231   3.871   3.149  1.2401  0.7914  0.2433
   39MOL   H53441650   6.479   3.593   2.957  1.1395  0.1997  0.9228
   39MOL   H53541651   6.312   3.403   3.011  1.2144 -0.9770  2.6109
   39MOL   H53641652   5.978   3.510   2.959  0.3502 -2.4414 -1.7897
   39MOL   H53741653   5.763   3.458   2.874 -2.0216  0.3185  0.5361
   39MOL   H53841654   5.474   3.352   2.752  0.5824 -0.1520 -0.6409
   39MOL   H53941655   5.417   3.157   2.606 -1.3898  0.7937 -0.0378
   39MOL   H54041656   5.553   3.040   2.458  1.1802  1.2501 -0.8800
   39MOL   H54141657   5.721   2.994   2.291  0.8630 -1.0777 -0.1860
   39MOL   C54241658   6.469   3.891   2.899  0.2324 -0.8621  0.4421
   39MOL   C54341659   6.390   3.995   2.844 -0.7091  0.8822  0.3127
   39MOL   C54441660   6.435   4.053   2.721  0.2410  1.1429  0.2523
   39MOL   C54541661   6.546   4.002   2.648  0.1254 -0.6273  0.0310
   39MOL   S54641662   6.592   4.082   2.491 -0.2474  0.3700 -0.0332
   39MOL   O54741663   6.732   4.054   2.459 -0.8229 -0.4345  0.2122
   39MOL   O54841664   6.547   4.226   2.492  0.3937  0.0999  0.2872
   39MOL   C54941665   6.504   4.002   2.360 -0.4862 -0.7308  0.7200
   39MOL   C55041666   6.367   4.015   2.368  0.7376  0.1743  0.0872
   39MOL   C55141667   6.287   3.952   2.271  0.1658  0.3442  1.1158
   39MOL   C55241668   6.357   3.900   2.159  0.2337  0.3120 -0.0870
   39MOL   O55341669   6.278   3.872   2.049  0.5350  0.5471  0.2113
   39MOL   C55441670   6.308   3.755   1.983 -0.2591 -0.4921 -0.1937
   39MOL   C55541671   6.413   3.744   1.884  1.0462 -0.3324 -0.2025
   39MOL   C55641672   6.443   3.618   1.835  0.3460  0.8051 -0.0737
   39MOL   C55741673   6.360   3.505   1.860 -0.1237 -0.8143  0.3214
   39MOL   C55841674   6.380   3.366   1.790 -0.1379 -0.1520  0.3289
   39MOL   C55941675   6.294   3.365   1.672 -0.0787  0.4537 -0.3810
   39MOL   C56041676   6.522   3.338   1.745 -0.6074 -0.1039  0.2935
   39MOL   C56141677   6.341   3.252   1.886  0.4356  0.3017 -0.2029
   39MOL   C56241678   6.250   3.151   1.864  0.6034 -0.0255 -0.8059
   39MOL   C56341679   6.219   3.052   1.961 -0.5383 -0.1521  0.7133
   39MOL   C56441680   6.287   3.052   2.085  0.6188  0.3022 -0.0151
   39MOL   O56541681   6.238   2.970   2.184 -0.4207 -1.2668  0.5775
   39MOL   C56641682   6.389   3.142   2.104 -0.4149 -0.4263  0.2923
   39MOL   C56741683   6.416   3.243   2.009 -0.3597 -0.0358 -1.0303
   39MOL   C56841684   6.240   3.521   1.934 -0.0397 -0.7795  0.2077
   39MOL   C56941685   6.222   3.642   2.006 -0.1411  0.6816 -0.4871
   39MOL   C57041686   6.494   3.899   2.154 -0.6935  0.3845 -0.1653
   39MOL   C57141687   6.572   3.948   2.252  0.3608  0.5336 -0.0858
   39MOL   C57241688   6.611   3.890   2.702  0.4481  0.0108  0.7624
   39MOL   C57341689   6.575   3.836   2.824 -0.0349 -0.0431  0.1109
   39MOL   H57441690   6.295   4.020   2.890 -1.3400  1.9389 -1.4986
   39MOL   H57541691   6.377   4.136   2.684 -2.4367 -0.9497 -0.3771
   39MOL   H57641692   6.327   4.064   2.456 -1.7310 -2.4203  0.4636
   39MOL   H57741693   6.181   3.939   2.287 -0.0063  1.6579  1.0921
   39MOL   H57841694   6.472   3.831   1.857 -0.4656  0.8006  0.0652
   39MOL   H57941695   6.530   3.611   1.772  0.9876  0.6050  0.8264
   39MOL   H58041696   6.189   3.370   1.700 -0.3056  1.1057 -1.2992
   39MOL   H58141697   6.307   3.272   1.616 -1.0475 -0.0486  0.2107
   39MOL   H58241698   6.308   3.451   1.606  1.0430  0.0834 -0.6291
   39MOL   H58341699   6.539   3.239   1.701 -1.4849  0.3487 -1.0555
   39MOL   H58441700   6.565   3.411   1.677  1.3504  0.3385  1.9460
   39MOL   H58541701   6.581   3.342   1.837  1.5608  1.9767 -1.1339
   39MOL   H58641702   6.195   3.125   1.775 -3.0893 -2.8979  2.1496
   39MOL   H58741703   6.134   2.987   1.946 -1.3551  0.8274  1.0742
   39MOL   H58841704   6.432   3.146   2.203  0.9281  1.8112 -0.3560
   39MOL   H58941705   6.495   3.313   2.029 -1.8363  1.5543 -0.6501
   39MOL   H59041706   6.166   3.443   1.939 -0.4105 -0.4165  0.4149
   39MOL   H59141707   6.133   3.662   2.065 -0.4313  0.2383 -0.7712
   39MOL   H59241708   6.555   3.872   2.070  0.1804 -0.6661  0.7910
   39MOL   H59341709   6.680   3.952   2.244  0.5143 -1.2240  0.7988
   39MOL   H59441710   6.694   3.853   2.644  0.2756  0.9010 -0.0613
   39MOL   H59541711   6.636   3.757   2.865 -0.5513 -0.8870 -0.7214
   39MOL   C59641712   6.151   3.025   2.274 -0.0870  0.3449 -0.8209
   39MOL   C59741713   6.091   3.157   2.266 -0.4437 -0.9423 -0.1716
   39MOL   C59841714   6.001   3.203   2.364  0.3678 -0.5752  0.3488
   39MOL   C59941715   5.975   3.122   2.477 -0.2339  0.2528  0.7126
   39MOL   S60041716   5.884   3.183   2.608 -0.0297  0.0701 -0.2002
   39MOL   O60141717   5.744   3.188   2.568  0.1872  0.3543  0.3152
   39MOL   O60241718   5.953   3.311   2.641  0.6071 -0.1932  0.1386
   39MOL   C60341719   5.899   3.068   2.751  0.3623 -0.1338  0.2758
   39MOL   C60441720   5.833   2.944   2.750  0.4363  0.2171  1.1320
   39MOL   C60541721   5.862   2.854   2.849 -0.2296 -0.1165  0.0539
   39MOL   C60641722   5.938   2.896   2.958  0.7470  0.0919 -0.2404
   39MOL   O60741723   5.934   2.814   3.063  0.2482  0.3373  0.3603
   39MOL   C60841724   5.888   2.855   3.185  0.7522 -0.4782  0.1938
   39MOL   C60941725   5.983   2.867   3.289 -0.8422 -1.2313  0.5514
   39MOL   C61041726   5.952   2.924   3.410 -0.5595 -0.1025 -0.4131
   39MOL   C61141727   5.822   2.964   3.440 -1.3865  0.1800 -0.1771
   39MOL   C61241728   5.806   3.022   3.579  0.2826 -0.2515 -0.6151
   39MOL   C61341729   5.871   3.163   3.586 -0.0259  0.3682 -0.3673
   39MOL   C61441730   5.660   3.032   3.619 -0.0914 -0.1313  0.1216
   39MOL   C61541731   5.881   2.930   3.680  0.6095 -0.6334 -0.4656
   39MOL   C61641732   5.856   2.792   3.672 -0.5372 -0.5125 -0.0421
   39MOL   C61741733   5.925   2.705   3.755  0.9351  1.0569  0.0414
   39MOL   C61841734   6.012   2.748   3.852  0.0204  0.6745 -0.0697
   39MOL   O61941735   6.072   2.639   3.919  0.5630 -0.4604  0.2650
   39MOL   C62041736   6.032   2.887   3.867 -0.1504  0.8712 -0.0416
   39MOL   C62141737   5.967   2.978   3.784  0.1008  0.2438 -0.3822
   39MOL   C62241738   5.722   2.944   3.342  0.0038 -0.0960 -0.2603
   39MOL   C62341739   5.757   2.900   3.215 -0.4633 -0.0999 -0.0252
   39MOL   C62441740   5.999   3.020   2.965 -0.3106 -0.0805 -0.3267
   39MOL   C62541741   5.977   3.106   2.859 -0.6466 -0.1086  0.1144
   39MOL   C62641742   6.025   2.991   2.481  0.1884 -0.0194 -0.0663
   39MOL   C62741743   6.122   2.954   2.390 -0.0342  0.1819 -0.1526
   39MOL   H62841744   6.115   3.214   2.177  2.5817  0.0102  1.2079
   39MOL   H62941745   5.951   3.298   2.357 -0.4255 -1.0568 -0.6929
   39MOL   H63041746   5.771   2.922   2.664 -0.9553  2.7933  1.4369
   39MOL   H63141747   5.817   2.756   2.848  4.3719 -2.3426  0.0567
   39MOL   H63241748   6.085   2.840   3.268  0.1905  1.1001  2.2791
   39MOL   H63341749   6.033   2.930   3.480 -0.9794  0.0260  0.0644
   39MOL   H63441750   5.973   3.168   3.547  0.7544  0.3564  1.6313
   39MOL   H63541751   5.874   3.214   3.682 -0.4149 -1.4762  0.6290
   39MOL   H63641752   5.814   3.236   3.527  1.4464  0.6352 -1.4964
   39MOL   H63741753   5.616   2.933   3.614 -2.7604  1.0175 -0.0722
   39MOL   H63841754   5.656   3.075   3.720  0.3239 -0.8619  0.4513
   39MOL   H63941755   5.609   3.101   3.553 -0.2646 -0.5831 -0.2163
   39MOL   H64041756   5.791   2.759   3.593  0.3074 -1.6407 -0.2897
   39MOL   H64141757   5.910   2.599   3.752 -0.5433  1.2433  0.5636
   39MOL   H64241758   6.109   2.924   3.934  1.3169 -1.6802 -0.2387
   39MOL   H64341759   5.990   3.082   3.805  2.8159 -0.7712  1.9360
   39MOL   H64441760   5.619   2.976   3.352  0.5030  1.3686  0.4660
   39MOL   H64541761   5.680   2.905   3.139 -1.1454 -1.1722  0.5869
   39MOL   H64641762   6.059   3.048   3.050  1.3594 -0.6220 -1.2927
   39MOL   H64741763   6.018   3.206   2.857  1.5338 -0.9738  0.0950
   39MOL   H64841764   5.993   2.928   2.564 -0.7908 -0.1750 -0.5476
   39MOL   H64941765   6.176   2.860   2.389 -1.6225 -0.7525 -2.3203
   39MOL   C65041766   6.016   2.619   4.039  0.1077  0.4019  0.4274
   39MOL   C65141767   5.903   2.535   4.053 -0.7853  0.7119 -0.3460
   39MOL   C65241768   5.849   2.503   4.177  0.3844  0.1256  0.3254
   39MOL   C65341769   5.899   2.563   4.290  0.0863 -0.1786  0.1441
   39MOL   S65441770   5.832   2.545   4.445  0.5218  0.4942 -0.2289
   39MOL   O65541771   5.687   2.517   4.426  0.1254 -0.2458 -0.0223
   39MOL   O65641772   5.871   2.657   4.531 -0.5891 -0.2884 -0.5025
   39MOL   C65741773   5.896   2.391   4.520 -0.4374 -0.6129  0.5374
   39MOL   C65841774   5.825   2.318   4.625 -0.5869  0.5747 -0.1802
   39MOL   C65941775   5.881   2.202   4.676  0.0980 -0.1729 -0.5729
   39MOL   C66041776   6.009   2.160   4.632 -0.1820  0.4074 -0.3867
   39MOL   O66141777   6.056   2.045   4.682  0.4348  0.0713  0.2495
   39MOL   C66241778   6.111   2.044   4.804 -0.4225  0.2827  0.4563
   39MOL   C66341779   6.183   2.160   4.852 -0.6561  0.8048  0.0076
   39MOL   C66441780   6.236   2.151   4.989  0.1724 -0.0212  0.4216
   39MOL   C66541781   6.221   2.042   5.073  0.1273 -0.2609 -0.4467
   39MOL   C66641782   6.279   2.041   5.222  0.1482  0.2071 -0.2474
   39MOL   C66741783   6.211   2.153   5.308  0.2324  0.0320  0.1736
   39MOL   C66841784   6.243   1.912   5.307 -0.3061  0.4950 -0.1222
   39MOL   C66941785   6.432   2.054   5.217 -1.0358 -0.0039  0.2300
   39MOL   C67041786   6.499   2.147   5.292  0.4230 -0.2043  0.0147
   39MOL   C67141787   6.633   2.157   5.305 -0.5909  0.3456 -0.3208
   39MOL   C67241788   6.716   2.070   5.232 -0.2150  0.1775  0.6796
   39MOL   O67341789   6.849   2.090   5.247  0.0810 -0.3214  0.0709
   39MOL   C67441790   6.655   1.981   5.143 -0.0730  0.0476 -0.0093
   39MOL   C67541791   6.516   1.969   5.133 -0.2032  1.0098  0.3979
   39MOL   C67641792   6.125   1.943   5.032  0.1786  0.0208 -0.4280
   39MOL   C67741793   6.072   1.945   4.897  0.0697 -0.4374 -0.2296
   39MOL   C67841794   6.083   2.231   4.534  0.9285 -0.3142 -0.7801
   39MOL   C67941795   6.024   2.345   4.479 -0.0068  0.6922 -0.4036
   39MOL   C68041796   6.013   2.648   4.285 -1.0022  0.4382  0.1338
   39MOL   C68141797   6.074   2.668   4.158 -0.3998 -0.0262 -0.9807
   39MOL   H68241798   5.865   2.494   3.961  0.7091 -0.6209 -0.3952
   39MOL   H68341799   5.762   2.440   4.172  0.1152  0.6035 -1.4115
   39MOL   H68441800   5.723   2.346   4.647 -0.4781 -0.3863  1.6113
   39MOL   H68541801   5.829   2.140   4.747 -1.7803  1.9736 -0.0168
   39MOL   H68641802   6.209   2.247   4.793 -2.6121  0.8412 -0.8276
   39MOL   H68741803   6.298   2.232   5.025 -0.4422  0.9569 -0.6810
   39MOL   H68841804   6.241   2.248   5.263  0.9049 -0.1577  0.2143
   39MOL   H68941805   6.249   2.147   5.410 -0.4388 -0.7163  0.3827
   39MOL   H69041806   6.103   2.147   5.299  0.0087  2.5362  0.8680
   39MOL   H69141807   6.295   1.918   5.403 -0.1548  1.2815 -0.2488
   39MOL   H69241808   6.138   1.907   5.335  0.5984  0.4515  3.5746
   39MOL   H69341809   6.278   1.822   5.256 -2.4994  0.6952 -2.0420
   39MOL   H69441810   6.447   2.222   5.349  1.8449 -1.6984  3.4447
   39MOL   H69541811   6.688   2.219   5.375  1.1525 -1.9805  0.4351
   39MOL   H69641812   6.730   1.931   5.084 -1.1766 -0.4845 -0.9686
   39MOL   H69741813   6.471   1.895   5.068 -1.6984  1.7575  0.5391
   39MOL   H69841814   6.094   1.867   5.102 -2.6859  1.0547 -0.4892
   39MOL   H69941815   6.006   1.867   4.861 -0.1291  0.1913 -1.2424
   39MOL   H70041816   6.177   2.197   4.492  0.7395 -2.6253  0.5881
   39MOL   H70141817   6.093   2.391   4.410  1.3795  0.1691  0.6188
   39MOL   H70241818   6.057   2.694   4.372  0.3667  0.9231 -0.7852
   39MOL   H70341819   6.170   2.719   4.152  0.6490 -1.4437  2.7081
   39MOL   C70441820   6.918   2.150   5.143 -0.3105 -0.6104  0.7792
   39MOL   C70541821   6.894   2.287   5.105  0.2105  1.0017  0.0666
   39MOL   C70641822   6.966   2.342   4.991  0.5568  0.0313  0.4650
   39MOL   C70741823   7.047   2.256   4.912  0.7649 -0.3682  0.1207
   39MOL   S70841824   7.131   2.311   4.761  0.0265 -0.0454  0.2206
   39MOL   O70941825   7.049   2.270   4.647  0.1485  0.1395  0.5677
   39MOL   O71041826   7.264   2.248   4.797 -0.1966 -0.2179  0.2951
   39MOL   C71141827   7.161   2.493   4.765  0.0992 -0.0928  0.5067
   39MOL   C71241828   7.197   2.550   4.644  0.4405  0.2361 -0.5541
   39MOL   C71341829   7.224   2.685   4.632  0.2121 -0.5457 -0.4857
   39MOL   C71441830   7.234   2.764   4.746 -0.1996  0.0671 -1.0725
   39MOL   O71541831   7.263   2.898   4.741 -0.7134 -0.0128  0.1052
   39MOL   C71641832   7.171   2.986   4.699 -0.3471  0.1260 -0.0796
   39MOL   C71741833   7.210   3.113   4.644  0.1103 -0.3377 -0.3671
   39MOL   C71841834   7.118   3.201   4.586  0.2921 -0.0363  0.8563
   39MOL   C71941835   6.980   3.167   4.579  0.1099 -0.5297 -0.5497
   39MOL   C72041836   6.870   3.252   4.517 -0.0500  0.3698  0.4503
   39MOL   C72141837   6.771   3.293   4.629  0.0177 -0.2447  0.3811
   39MOL   C72241838   6.923   3.376   4.444  0.5783  0.2049  0.0489
   39MOL   C72341839   6.807   3.168   4.404 -0.4161  0.3860  0.2859
   39MOL   C72441840   6.890   3.096   4.316 -0.0085 -0.1754 -0.6518
   39MOL   C72541841   6.838   3.016   4.214  0.1696 -0.2706  0.9363
   39MOL   C72641842   6.699   2.997   4.206  0.6637  0.2558 -0.0159
   39MOL   O72741843   6.645   2.913   4.106 -0.2960 -0.5615  0.0339
   39MOL   C72841844   6.613   3.053   4.304  0.1264 -0.4763 -0.0134
   39MOL   C72941845   6.666   3.154   4.392 -0.3057 -0.3196 -0.5478
   39MOL   C73041846   6.944   3.040   4.630  0.2153  0.6705  0.8116
   39MOL   C73141847   7.035   2.949   4.696  1.5019 -0.1379  0.6324
   39MOL   C73241848   7.212   2.707   4.871  0.5258  0.5028 -0.7197
   39MOL   C73341849   7.176   2.572   4.885 -0.0101  0.1580  0.9589
   39MOL   C73441850   7.062   2.121   4.948 -0.3623 -0.3301 -0.8735
   39MOL   C73541851   6.999   2.073   5.061 -0.2306 -0.0622  0.2647
   39MOL   H73641852   6.820   2.347   5.156 -1.2981 -0.4114 -0.4372
   39MOL   H73741853   6.943   2.445   4.966  0.1522 -0.2892 -0.4916
   39MOL   H73841854   7.204   2.475   4.566  1.4883 -0.8247  0.5256
   39MOL   H73941855   7.257   2.727   4.538  0.0603  1.1878  0.2228
   39MOL   H74041856   7.314   3.141   4.650  0.4929 -2.1855  2.5446
   39MOL   H74141857   7.152   3.295   4.545  0.6854 -0.5071  0.0983
   39MOL   H74241858   6.703   3.365   4.584 -1.0545 -0.3492  1.8271
   39MOL   H74341859   6.830   3.343   4.706 -0.7131  0.5365  0.4376
   39MOL   H74441860   6.713   3.212   4.673 -0.0925  0.2824  1.2184
   39MOL   H74541861   6.976   3.442   4.512  0.6377  0.0942  0.1107
   39MOL   H74641862   6.994   3.361   4.362 -0.2909 -1.9752 -0.3422
   39MOL   H74741863   6.838   3.432   4.407 -0.2841 -2.0735 -1.5453
   39MOL   H74841864   6.997   3.105   4.324 -0.2676  3.8645 -0.6304
   39MOL   H74941865   6.909   2.966   4.150 -1.9130 -0.9132 -0.9515
   39MOL   H75041866   6.508   3.032   4.301  0.4307 -1.9007 -1.1105
   39MOL   H75141867   6.600   3.209   4.456  0.3458  0.8205 -0.8388
   39MOL   H75241868   6.843   3.006   4.615 -0.6650  3.6132 -0.3871
   39MOL   H75341869   6.994   2.861   4.743 -0.1548 -0.3363 -1.0889
   39MOL   H75441870   7.215   2.764   4.963 -1.7923  0.5318 -0.6337
   39MOL   H75541871   7.149   2.534   4.982 -2.2395  0.7928  0.6059
   39MOL   H75641872   7.134   2.059   4.897  0.8699 -1.2141  1.8563
   39MOL   H75741873   7.023   1.974   5.095  0.7776 -0.4479 -1.4994
   39MOL   C75841874   6.593   2.795   4.139  0.0464  0.2869  0.0763
   39MOL   C75941875   6.491   2.741   4.051 -0.1166 -0.1669 -0.7770
   39MOL   C76041876   6.434   2.616   4.088  0.0019 -0.2010 -0.1025
   39MOL   C76141877   6.490   2.541   4.194 -0.9119 -0.4781  0.6810
   39MOL   S76241878   6.429   2.380   4.237  0.2449  0.2276  0.3181
   39MOL   O76341879   6.315   2.400   4.331  0.2064 -0.2758  0.2976
   39MOL   O76441880   6.547   2.302   4.284 -0.3019  0.2593  0.3123
   39MOL   C76541881   6.352   2.293   4.093 -0.0093 -0.3537  0.2105
   39MOL   C76641882   6.441   2.207   4.024  0.9121 -0.2042 -0.1923
   39MOL   C76741883   6.391   2.149   3.907 -0.3033 -1.0154 -0.0919
   39MOL   C76841884   6.271   2.189   3.848 -0.3819  0.1159  0.0275
   39MOL   O76941885   6.232   2.136   3.726 -0.2366 -0.4503 -0.1914
   39MOL   C77041886   6.164   2.019   3.712  0.1472 -0.1708  0.4869
   39MOL   C77141887   6.229   1.893   3.708 -0.6168 -0.3325  0.8814
   39MOL   C77241888   6.163   1.778   3.665 -0.3978 -0.4941  0.1671
   39MOL   C77341889   6.027   1.785   3.635  0.3843 -0.1478  0.5016
   39MOL   C77441890   5.955   1.660   3.581  0.0444  0.5549  0.6804
   39MOL   C77541891   5.818   1.703   3.518  0.1102 -0.2910 -0.2511
   39MOL   C77641892   6.046   1.594   3.474  0.6587  0.4617 -0.0185
   39MOL   C77741893   5.930   1.548   3.693  0.2451 -0.1552  0.8161
   39MOL   C77841894   5.915   1.593   3.827 -0.5780 -0.6038 -0.8634
   39MOL   C77941895   5.887   1.490   3.921  0.0339 -0.3410  0.4578
   39MOL   C78041896   5.862   1.357   3.887 -0.4908  0.0939 -0.1239
   39MOL   O78141897   5.836   1.263   3.984 -0.0264  0.1234  0.6637
   39MOL   C78241898   5.870   1.314   3.752 -0.1103 -0.5452 -0.7899
   39MOL   C78341899   5.901   1.414   3.656  0.1035  1.0397  0.0188
   39MOL   C78441900   5.962   1.905   3.649 -0.2332  0.0158  0.4571
   39MOL   C78541901   6.031   2.021   3.689 -0.4426 -0.5950 -0.4791
   39MOL   C78641902   6.197   2.289   3.910  0.3387  0.1874 -0.4078
   39MOL   C78741903   6.231   2.333   4.035 -0.5230  0.4847 -0.3282
   39MOL   C78841904   6.575   2.604   4.286  0.3323 -0.4307 -0.1109
   39MOL   C78941905   6.640   2.724   4.254  0.3665 -0.6846 -0.0901
   39MOL   H79041906   6.450   2.801   3.971  0.1900 -0.9389 -1.5186
   39MOL   H79141907   6.353   2.584   4.023 -0.1760  0.2978 -0.1302
   39MOL   H79241908   6.542   2.191   4.061  1.6212 -3.0907 -3.1219
   39MOL   H79341909   6.459   2.088   3.850  0.7666  1.9179 -2.0712
   39MOL   H79441910   6.334   1.903   3.732 -0.2725  0.6333 -0.9928
   39MOL   H79541911   6.223   1.687   3.659  0.2859 -0.0779  0.5649
   39MOL   H79641912   5.830   1.793   3.458 -0.2856  0.0161  0.1292
   39MOL   H79741913   5.750   1.725   3.600  0.8603 -0.1959  0.3503
   39MOL   H79841914   5.761   1.628   3.463  2.2090 -0.9951 -1.5245
   39MOL   H79941915   6.125   1.535   3.519 -0.6741 -1.3138  0.0536
   39MOL   H80041916   5.982   1.518   3.428 -0.8568  2.0762 -0.6446
   39MOL   H80141917   6.093   1.663   3.404  0.6249  0.8910  0.3744
   39MOL   H80241918   5.929   1.691   3.869  0.5084 -1.0973 -0.0533
   39MOL   H80341919   5.865   1.533   4.017  2.4155  1.8988  0.0669
   39MOL   H80441920   5.854   1.213   3.717  1.3483 -1.8395  2.1555
   39MOL   H80541921   5.907   1.375   3.556  1.8994  0.5904  0.2895
   39MOL   H80641922   5.854   1.915   3.645 -0.3886 -1.9580 -1.0732
   39MOL   H80741923   5.980   2.114   3.711 -1.2725 -1.2060  0.1843
   39MOL   H80841924   6.103   2.321   3.868 -0.3853 -0.4383  0.6940
   39MOL   H80941925   6.171   2.407   4.085 -2.6868 -0.6242 -1.2188
   39MOL   H81041926   6.600   2.543   4.372  0.3496 -0.2260  0.0270
   39MOL   H81141927   6.717   2.765   4.318 -0.4706 -0.9440  1.0939
   39MOL   C81241928   5.865   1.288   4.115 -0.1709 -0.4423  0.4453
   39MOL   C81341929   5.995   1.292   4.161  0.3042 -0.4395 -0.8150
   39MOL   C81441930   6.028   1.300   4.296 -0.7709  0.0025  0.0375
   39MOL   C81541931   5.921   1.304   4.384  0.0227 -0.8509 -0.1238
   39MOL   S81641932   5.941   1.316   4.561 -0.5779 -0.0279 -0.4576
   39MOL   O81741933   5.814   1.287   4.627 -0.0863  0.0927 -0.5284
   39MOL   O81841934   6.009   1.442   4.589 -0.3665  0.8694 -0.0683
   39MOL   C81941935   6.048   1.183   4.617  1.1262  0.4242 -0.3750
   39MOL   C82041936   6.184   1.212   4.609 -0.0657  0.2334 -0.3348
   39MOL   C82141937   6.273   1.119   4.666  0.5340  0.0179 -0.0805
   39MOL   C82241938   6.224   0.993   4.713  0.0811 -0.0080 -0.0405
   39MOL   O82341939   6.303   0.895   4.764  0.0564  0.6137  0.2706
   39MOL   C82441940   6.441   0.887   4.738 -0.6006 -0.0553 -0.0205
   39MOL   C82541941   6.493   0.869   4.608 -0.2647  0.2512  0.2336
   39MOL   C82641942   6.634   0.871   4.594 -0.9120  0.4464  0.2992
   39MOL   C82741943   6.716   0.859   4.710 -0.1487 -0.4522  0.4397
   39MOL   C82841944   6.868   0.850   4.691 -0.4863 -0.0697  0.3216
   39MOL   C82941945   6.945   0.857   4.831 -0.2327  0.1575 -0.7782
   39MOL   C83041946   6.900   0.713   4.629 -0.0664 -0.0776 -0.3514
   39MOL   C83141947   6.918   0.978   4.609  0.5583 -0.2233  0.1003
   39MOL   C83241948   6.964   0.962   4.479 -0.1454  0.2313  0.1123
   39MOL   C83341949   6.998   1.074   4.407  0.2688 -0.1164  0.3896
   39MOL   C83441950   7.001   1.202   4.461  0.3727 -0.0723  0.0681
   39MOL   O83541951   7.033   1.317   4.390  0.7869  0.8700 -0.1275
   39MOL   C83641952   6.959   1.214   4.594 -0.2239 -0.1905 -0.4464
   39MOL   C83741953   6.908   1.103   4.667 -0.0301  0.3038  1.0140
   39MOL   C83841954   6.664   0.869   4.839 -0.3721  0.3240  0.3345
   39MOL   C83941955   6.528   0.896   4.851 -1.2409  0.1045 -0.6870
   39MOL   C84041956   6.085   0.967   4.709  0.1959  0.7947  0.0727
   39MOL   C84141957   5.994   1.064   4.663 -0.4707 -0.2126 -0.5955
   39MOL   C84241958   5.786   1.306   4.341  0.3530 -0.3903  0.8517
   39MOL   C84341959   5.758   1.302   4.201 -0.2511 -0.1550 -0.4057
   39MOL   H84441960   6.075   1.293   4.088  1.0434  1.0030 -0.0100
   39MOL   H84541961   6.128   1.310   4.338 -0.0801 -1.7789 -1.1645
   39MOL   H84641962   6.224   1.301   4.564 -1.7776  0.9894 -0.4128
   39MOL   H84741963   6.378   1.140   4.681  0.0492  2.2033  0.4252
   39MOL   H84841964   6.429   0.855   4.522  0.0716 -0.5815  0.1155
   39MOL   H84941965   6.676   0.862   4.495 -2.8795 -0.4545 -0.4971
   39MOL   H85041966   6.900   0.804   4.915 -0.1300  1.4932  0.1515
   39MOL   H85141967   6.945   0.957   4.876  0.9614 -0.4758  0.6888
   39MOL   H85241968   7.050   0.830   4.823  0.4244  2.4713 -0.5063
   39MOL   H85341969   7.005   0.723   4.602 -0.3244  4.8809  0.0235
   39MOL   H85441970   6.889   0.636   4.705 -0.5844 -1.0432 -1.3847
   39MOL   H85541971   6.847   0.687   4.537 -1.1605  1.9907 -0.3294
   39MOL   H85641972   6.982   0.865   4.434 -0.6927  0.8596 -1.5102
   39MOL   H85741973   7.043   1.062   4.310  1.6971  1.7050  0.8129
   39MOL   H85841974   6.954   1.311   4.639 -2.2589  0.1523 -1.3526
   39MOL   H85941975   6.861   1.120   4.763  2.3691 -2.2583  2.7351
   39MOL   H86041976   6.726   0.877   4.927 -0.6907 -2.6808  0.8777
   39MOL   H86141977   6.484   0.915   4.947 -0.4652 -1.1651 -0.0645
   39MOL   H86241978   6.046   0.872   4.743  0.2411  0.5005 -0.6881
   39MOL   H86341979   5.887   1.054   4.658 -0.7078  1.2493  0.7846
   39MOL   H86441980   5.703   1.315   4.410 -0.1959 -0.3941  0.1914
   39MOL   H86541981   5.657   1.292   4.163 -1.4992 -0.7656  2.9352
   39MOL   C86641982   7.155   1.368   4.394 -0.9831  0.0042  0.2537
   39MOL   C86741983   7.192   1.461   4.498 -0.2494 -1.2299  0.1131
   39MOL   C86841984   7.322   1.522   4.496  0.2308  0.3122 -0.3175
   39MOL   C86941985   7.411   1.484   4.391  0.6299 -0.3696  0.2012
   39MOL   S87041986   7.568   1.570   4.364 -0.1405  0.2642 -0.3564
   39MOL   O87141987   7.667   1.465   4.332 -0.4333 -0.1813  0.0772
   39MOL   O87241988   7.591   1.658   4.479  0.2471  0.3151 -0.6245
   39MOL   C87341989   7.546   1.673   4.222  0.8888 -0.1224 -0.9662
   39MOL   C87441990   7.587   1.640   4.092 -0.1311 -0.0238 -0.5149
   39MOL   C87541991   7.545   1.715   3.979  0.4068 -0.4316 -0.3031
   39MOL   C87641992   7.475   1.835   4.005  1.0838 -0.2400 -0.4233
   39MOL   O87741993   7.427   1.917   3.914  0.1615  0.0713  0.2277
   39MOL   C87841994   7.340   1.880   3.812 -0.5796 -0.3151  0.6745
   39MOL   C87941995   7.266   1.762   3.818 -0.0726 -0.5153 -0.0810
   39MOL   C88041996   7.181   1.721   3.716 -0.0502 -0.3539 -0.0999
   39MOL   C88141997   7.175   1.796   3.595 -0.4598 -0.1943 -0.8889
   39MOL   C88241998   7.102   1.754   3.466 -0.8512  0.1078  0.2547
   39MOL   C88341999   7.215   1.745   3.363 -0.1664 -0.2197  0.2170
   39MOL   C88442000   7.039   1.608   3.468 -0.0845 -0.3041 -0.0633
   39MOL   C88542001   6.998   1.864   3.430  0.1147  0.0700  0.2379
   39MOL   C88642002   6.869   1.859   3.487  0.6073 -0.3082  0.1272
   39MOL   C88742003   6.771   1.955   3.453 -0.1574 -0.4830  0.2231
   39MOL   C88842004   6.802   2.058   3.355 -0.9259 -0.4576  0.3376
   39MOL   O88942005   6.714   2.147   3.313 -0.0752 -1.0030  0.8055
   39MOL   C89042006   6.936   2.064   3.305  0.7125 -0.7699 -0.4644
   39MOL   C89142007   7.036   1.969   3.347  0.4466 -0.4545  0.1600
   39MOL   C89242008   7.247   1.916   3.598  0.6636  0.2232  0.7420
   39MOL   C89342009   7.325   1.966   3.702  0.0687  1.0140  0.5819
   39MOL   C89442010   7.436   1.873   4.139 -0.4408 -0.3052 -0.6680
   39MOL   C89542011   7.474   1.796   4.248  0.0737  0.4278 -0.4009
   39MOL   C89642012   7.366   1.397   4.290 -0.2444 -0.2757 -0.4601
   39MOL   C89742013   7.244   1.329   4.293  0.4682 -0.0211  0.7809
   39MOL   H89842014   7.125   1.485   4.579  0.7416  1.9980  0.0712
   39MOL   H89942015   7.361   1.590   4.570  0.3674  0.5472 -0.6044
   39MOL   H90042016   7.656   1.558   4.083 -0.0748  0.0272 -0.5487
   39MOL   H90142017   7.581   1.683   3.883 -0.1298 -1.2807 -0.2254
   39MOL   H90242018   7.276   1.705   3.909  1.2638 -2.6111 -1.4814
   39MOL   H90342019   7.145   1.619   3.716  0.7850 -0.6547  1.0826
   39MOL   H90442020   7.287   1.666   3.384  0.2368 -0.2188 -1.1302
   39MOL   H90542021   7.290   1.823   3.351  0.6520 -1.3280 -2.0569
   39MOL   H90642022   7.174   1.713   3.267  0.1225  1.9144 -0.6375
   39MOL   H90742023   7.005   1.581   3.367  0.4458 -1.6810  0.1101
   39MOL   H90842024   7.116   1.532   3.482  0.2155  0.3620  1.9151
   39MOL   H90942025   6.962   1.596   3.544  0.6945  2.7071  1.2632
   39MOL   H91042026   6.850   1.778   3.555  1.2125 -0.5907 -0.0355
   39MOL   H91142027   6.672   1.948   3.495  0.3882 -0.6205  1.5226
   39MOL   H91242028   6.958   2.136   3.227  0.7969  2.1641  2.1633
   39MOL   H91342029   7.132   1.984   3.299  1.1026 -1.0252  1.2665
   39MOL   H91442030   7.254   1.971   3.506  0.5523 -1.8958 -0.5598
   39MOL   H91542031   7.383   2.057   3.703  2.6264 -0.5635  1.8764
   39MOL   H91642032   7.382   1.965   4.152 -1.8450 -0.9809 -1.5562
   39MOL   H91742033   7.439   1.820   4.348  1.2742 -0.7666  0.3268
   39MOL   H91842034   7.440   1.393   4.211 -0.4389 -0.4513 -0.6330
   39MOL   H91942035   7.218   1.254   4.220 -0.7185  0.9235  0.2282
   39MOL   C92042036   6.677   2.244   3.409 -0.2127  0.6507  0.6889
   39MOL   C92142037   6.543   2.256   3.458  0.4465  0.0797 -0.4414
   39MOL   C92242038   6.516   2.347   3.562  0.2540  0.6640 -0.5430
   39MOL   C92342039   6.621   2.426   3.623 -0.4657  0.3438  0.1712
   39MOL   S92442040   6.587   2.523   3.779  0.0837 -0.0005 -0.1150
   39MOL   O92542041   6.637   2.449   3.898 -0.6188  0.0299  0.1146
   39MOL   O92642042   6.448   2.564   3.774 -0.5983  0.3968  0.4453
   39MOL   C92742043   6.680   2.677   3.763 -1.1932  0.8870  0.0729
   39MOL   C92842044   6.660   2.759   3.651 -0.2021  0.4753 -0.6064
   39MOL   C92942045   6.727   2.880   3.641  0.3717  0.0670  0.1407
   39MOL   C93042046   6.819   2.914   3.738  0.2913  0.3171 -0.1457
   39MOL   O93142047   6.893   3.022   3.723  0.3471  0.4442  0.0223
   39MOL   C93242048   6.844   3.137   3.770  0.6704  1.1188  0.1158
   39MOL   C93342049   6.850   3.245   3.685  0.7078 -0.0665  0.0113
   39MOL   C93442050   6.817   3.377   3.728 -0.2545  0.2531  0.3286
   39MOL   C93542051   6.784   3.394   3.862 -0.5261 -0.7221 -0.6507
   39MOL   C93642052   6.775   3.540   3.919 -0.3409  0.8555  0.1857
   39MOL   C93742053   6.768   3.562   4.071  0.4503 -1.1845 -0.2619
   39MOL   C93842054   6.916   3.608   3.887  0.1528  0.2548  0.3834
   39MOL   C93942055   6.657   3.608   3.859 -0.3158 -0.2505 -0.1799
   39MOL   C94042056   6.536   3.548   3.825  0.3257  0.2000 -0.2997
   39MOL   C94142057   6.425   3.622   3.791 -0.3548 -0.2578  0.0050
   39MOL   C94242058   6.430   3.762   3.776 -0.0341 -0.2012  0.0404
   39MOL   O94342059   6.311   3.830   3.750  0.5019 -0.1426 -0.1043
   39MOL   C94442060   6.547   3.829   3.789 -1.0255  0.1367  0.1543
   39MOL   C94542061   6.661   3.751   3.834 -0.8310  0.2390 -0.0875
   39MOL   C94642062   6.766   3.280   3.949 -0.4182 -0.2955 -0.5996
   39MOL   C94742063   6.804   3.159   3.905 -0.5060 -0.4386  0.5778
   39MOL   C94842064   6.832   2.840   3.860 -0.5567  0.8326  0.4113
   39MOL   C94942065   6.777   2.708   3.861  0.2787 -0.4233 -0.5430
   39MOL   C95042066   6.753   2.418   3.567  0.1704 -0.2143  0.9484
   39MOL   C95142067   6.779   2.329   3.460 -0.0864 -0.0652 -0.1293
   39MOL   H95242068   6.463   2.189   3.432  1.4323 -0.9519 -0.8818
   39MOL   H95342069   6.414   2.343   3.599  0.6893 -1.7465  0.4718
   39MOL   H95442070   6.596   2.728   3.570 -0.2704  0.9355 -0.7345
   39MOL   H95542071   6.724   2.933   3.547  0.3931 -1.0252 -0.4950
   39MOL   H95642072   6.892   3.234   3.586  1.0148  2.0284 -0.1006
   39MOL   H95742073   6.821   3.461   3.659 -0.8379 -0.6537 -0.8321
   39MOL   H95842074   6.733   3.659   4.106  1.5080 -0.9499  0.1563
   39MOL   H95942075   6.864   3.538   4.117  0.5460 -1.0040 -0.3697
   39MOL   H96042076   6.684   3.502   4.107 -0.0572  0.6008  1.6512
   39MOL   H96142077   6.993   3.549   3.936 -1.9201 -2.2300  0.7831
   39MOL   H96242078   6.931   3.613   3.780  0.5443  1.4761  0.4832
   39MOL   H96342079   6.916   3.708   3.931  3.4463  1.3936 -2.0403
   39MOL   H96442080   6.519   3.442   3.830  2.4257 -0.0831  1.0308
   39MOL   H96542081   6.332   3.571   3.769  0.1902 -0.7828 -1.1029
   39MOL   H96642082   6.555   3.936   3.774 -2.6179  0.3328  0.7030
   39MOL   H96742083   6.754   3.807   3.843 -0.4714 -0.2260 -0.8489
   39MOL   H96842084   6.742   3.292   4.054  0.0479  0.7731 -0.6038
   39MOL   H96942085   6.805   3.074   3.972 -1.4522 -3.0161 -2.5090
   39MOL   H97042086   6.901   2.870   3.937  0.7797  1.0547 -0.8376
   39MOL   H97142087   6.796   2.637   3.941  0.8265  0.1946 -0.1189
   39MOL   H97242088   6.835   2.479   3.601  0.0462 -0.3477  1.4833
   39MOL   H97342089   6.881   2.331   3.425 -0.2766 -0.8520 -0.7334
   39MOL   C97442090   6.229   3.873   3.851  0.2766 -0.1907 -0.0658
   39MOL   C97542091   6.157   3.993   3.844  0.0355  0.4385  0.0052
   39MOL   C97642092   6.077   4.031   3.953 -0.4673  0.4930  0.4047
   39MOL   C97742093   6.060   3.948   4.069  1.0927 -0.1714  0.3731
   39MOL   S97842094   5.948   4.006   4.198 -0.2028  0.2801  0.0774
   39MOL   O97942095   5.851   4.098   4.129 -0.2545 -0.7855 -0.4684
   39MOL   O98042096   6.041   4.051   4.306  0.5231  0.4322  0.3975
   39MOL   C98142097   5.850   3.861   4.264  0.4019 -0.4733 -0.0074
   39MOL   C98242098   5.836   3.851   4.405  0.2936 -0.9263  0.3212
   39MOL   C98342099   5.761   3.742   4.459 -0.6302 -0.3996  0.7135
   39MOL   C98442100   5.710   3.642   4.378  0.1384 -0.1362  0.5774
   39MOL   O98542101   5.632   3.535   4.424 -0.4159 -0.2114  0.5442
   39MOL   C98642102   5.704   3.451   4.505 -0.0658 -0.6400 -0.7487
   39MOL   C98742103   5.755   3.330   4.455 -0.1254  0.4386  0.2524
   39MOL   C98842104   5.818   3.232   4.538 -0.0995 -0.5812 -0.5275
   39MOL   C98942105   5.831   3.262   4.676 -0.3280  0.4809 -0.6830
   39MOL   C99042106   5.898   3.157   4.770 -0.2043 -0.0379 -0.1040
   39MOL   C99142107   5.970   3.229   4.893  0.3208  0.2677 -0.5546
   39MOL   C99242108   5.791   3.064   4.828 -0.0608  0.0999  0.0909
   39MOL   C99342109   6.007   3.079   4.698  0.6491 -0.9598 -0.8750
   39MOL   C99442110   6.123   3.147   4.644 -0.2788  0.3476 -0.3926
   39MOL   C99542111   6.221   3.081   4.572 -0.2141 -0.0246 -0.5111
   39MOL   C99642112   6.204   2.946   4.551 -0.3491  0.3308  0.5908
   39MOL   O99742113   6.299   2.885   4.476 -0.0678 -0.3423  0.4246
   39MOL   C99842114   6.098   2.875   4.607  0.2644  0.6885 -0.5722
   39MOL   C99942115   5.999   2.941   4.679 -0.8049  0.6044  0.5524
   39MOL     C142116   5.771   3.380   4.729 -0.1978  0.1470 -0.5839
   39MOL     C242117   5.710   3.475   4.639 -0.2084  0.1562 -0.8161
   39MOL     C342118   5.735   3.652   4.240 -0.0794 -0.3103  0.2420
   39MOL     C442119   5.797   3.762   4.182  0.7840  0.3083  0.1566
   39MOL     C542120   6.124   3.825   4.068  0.5914  0.0856 -0.0932
   39MOL     C642121   6.208   3.789   3.962 -0.0402  0.6557  0.2606
   39MOL     H742122   6.167   4.060   3.759  1.6453  1.2076  0.7828
   39MOL     H842123   6.012   4.117   3.946 -2.3490 -1.0543 -1.4564
   39MOL     H942124   5.879   3.925   4.470 -0.4898 -0.0733 -0.1173
   39MOL    H1042125   5.745   3.739   4.566 -0.9711 -1.5451  0.6389
   39MOL    H1142126   5.743   3.306   4.351  0.1784  1.9492 -0.1552
   39MOL    H1242127   5.838   3.135   4.495 -0.5015 -0.0030 -2.0311
   39MOL    H1342128   6.052   3.289   4.851  0.4471  0.2943 -0.2711
   39MOL    H1442129   6.016   3.158   4.962 -1.4210  0.9919  1.4023
   39MOL    H1542130   5.900   3.279   4.959  1.1212  1.3228 -0.5000
   39MOL    H1642131   5.711   3.110   4.887 -1.8548 -1.2740 -1.1811
   39MOL    H1742132   5.736   3.013   4.749  3.5693 -0.6512 -2.0536
   39MOL    H1842133   5.840   2.990   4.891  1.1612  0.3322 -0.5885
   39MOL    H1942134   6.135   3.254   4.657  0.9712  0.1164  0.4408
   39MOL    H2042135   6.303   3.138   4.530 -0.1531  0.0819 -0.2462
   39MOL    H2142136   6.092   2.768   4.596  0.9297  0.6762 -0.8233
   39MOL    H2242137   5.925   2.877   4.725 -1.6051  0.2444 -1.2254
   39MOL    H2342138   5.772   3.400   4.835 -3.6316 -0.6842 -0.3390
   39MOL    H2442139   5.661   3.563   4.679  0.4872 -0.7177  2.0853
   39MOL    H2542140   5.688   3.579   4.176 -0.0486 -1.3924  1.4407
   39MOL    H2642141   5.800   3.773   4.075 -1.0977 -1.6583 -0.1302
   39MOL    H2742142   6.119   3.759   4.154 -0.0899 -0.1778 -0.3281
   39MOL    H2842143   6.244   3.687   3.959  1.4429  1.1953 -0.8944
   39MOL    C2942144   6.393   2.808   4.539  0.5600  0.0914  0.4236
   39MOL    C3042145   6.510   2.868   4.586  0.1812 -0.5500 -0.3890
   39MOL    C3142146   6.612   2.793   4.645  0.5398  0.3127  0.5798
   39MOL    C3242147   6.595   2.654   4.660 -0.1297  0.0990 -0.1787
   39MOL    S3342148   6.726   2.569   4.741 -0.1745  0.1850 -0.0235
   39MOL    O3442149   6.704   2.582   4.889  0.1839 -0.3696 -0.5844
   39MOL    O3542150   6.852   2.600   4.679  0.1411 -0.4202  0.2591
   39MOL    C3642151   6.699   2.394   4.715 -0.1385  0.3507  0.1435
   39MOL    C3742152   6.640   2.313   4.813  0.6236  0.4867  0.5480
   39MOL    C3842153   6.616   2.174   4.784 -0.4408  0.1261 -0.5304
   39MOL    C3942154   6.650   2.119   4.661  0.4005  0.2252 -0.4306
   39MOL    O4042155   6.630   1.987   4.639 -0.6434  0.1911  0.1948
   39MOL    C4142156   6.530   1.946   4.556  0.5384  0.4290  0.2463
   39MOL    C4242157   6.455   1.837   4.600  0.2514 -1.1534  0.3596
   39MOL    C4342158   6.354   1.779   4.518 -0.2550  0.1339  0.4389
   39MOL    C4442159   6.326   1.831   4.388 -0.1268 -0.2059  0.4433
   39MOL    C4542160   6.219   1.768   4.294 -0.4805 -0.1949 -0.1967
   39MOL    C4642161   6.300   1.691   4.184 -0.4089  0.2479 -0.6077
   39MOL    C4742162   6.139   1.668   4.373  0.7500  0.1626  0.2249
   39MOL    C4842163   6.119   1.867   4.242  0.2251 -0.9071  0.9501
   39MOL    C4942164   6.042   1.948   4.336 -0.4924 -0.2259  0.5932
   39MOL    C5042165   5.947   2.040   4.291 -0.1956  0.1745  0.7759
   39MOL    C5142166   5.940   2.068   4.151  0.4098  0.4061  0.8266
   39MOL    O5242167   5.860   2.171   4.115 -0.7641 -0.3529 -0.0105
   39MOL    C5342168   6.020   1.995   4.061  0.4134  0.3690 -0.2581
   39MOL    C5442169   6.102   1.895   4.102  0.6336 -0.6109 -0.6079
   39MOL    C5542170   6.396   1.944   4.345 -1.2654 -0.6728  0.2875
   39MOL    C5642171   6.498   1.999   4.427  0.3098 -0.0463 -0.4025
   39MOL    C5742172   6.707   2.201   4.557  0.1740  0.2145 -1.0359
   39MOL    C5842173   6.726   2.340   4.589  0.7069 -0.6745 -0.1071
   39MOL    C5942174   6.477   2.589   4.614 -0.2203  0.6067 -0.0753
   39MOL    C6042175   6.377   2.667   4.547 -1.0809  0.3988  0.4895
   39MOL    H6142176   6.526   2.973   4.569  0.4740 -0.2837  1.4941
   39MOL    H6242177   6.705   2.839   4.673  0.6986 -0.4333  1.2848
   39MOL    H6342178   6.623   2.349   4.913  1.6038  0.7768  0.6076
   39MOL    H6442179   6.580   2.100   4.853 -2.1588  1.1736 -0.2732
   39MOL    H6542180   6.474   1.784   4.692  1.1906  2.2304  2.2156
   39MOL    H6642181   6.295   1.703   4.568 -0.4948  0.0777  0.0750
   39MOL    H6742182   6.351   1.608   4.234  0.9153 -0.2128 -2.6803
   39MOL    H6842183   6.366   1.753   4.124 -0.2645  0.1210 -0.5784
   39MOL    H6942184   6.224   1.645   4.120  0.9347  0.4691 -2.4023
   39MOL    H7042185   6.085   1.724   4.450 -0.6511  0.9567 -1.3020
   39MOL    H7142186   6.070   1.610   4.311 -1.0185  0.2149  2.0761
   39MOL    H7242187   6.203   1.586   4.408 -0.3779 -1.6296 -1.7537
   39MOL    H7342188   6.065   1.939   4.441 -1.0306 -1.2969  0.6266
   39MOL    H7442189   5.891   2.096   4.365 -1.9678 -1.5979  0.8080
   39MOL    H7542190   6.010   2.008   3.954 -0.2060  3.3189  0.1196
   39MOL    H7642191   6.136   1.828   4.025 -1.5956  0.3121 -2.4449
   39MOL    H7742192   6.384   1.993   4.250 -2.5626 -0.4890  0.5311
   39MOL    H7842193   6.558   2.072   4.375  0.7929 -0.5488 -0.5631
   39MOL    H7942194   6.731   2.159   4.461 -1.1875  5.2097 -3.7313
   39MOL    H8042195   6.772   2.406   4.517 -1.8177 -0.0517 -1.2243
   39MOL    H8142196   6.464   2.483   4.625 -3.4564  1.1174  1.5589
   39MOL    H8242197   6.287   2.618   4.511  0.3984 -1.3774 -0.8771
   39MOL    H8342198   5.831   2.168   4.025 -0.4473  0.0661 -0.1314
   40MOL     C142199   2.362   0.232   2.140  1.1190  0.3869 -0.5376
   40MOL     C242200   2.445   0.320   2.072  0.5564  0.2099  0.3137
   40MOL     C342201   2.389   0.385   1.956 -0.1164 -0.8045  0.4144
   40MOL     C442202   2.264   0.346   1.905 -0.2224 -0.4506 -0.0755
   40MOL     S542203   2.198   0.411   1.754  0.3143  0.0181 -0.2956
   40MOL     O642204   2.182   0.554   1.775  0.4975 -0.0658  0.0485
   40MOL     O742205   2.079   0.330   1.721  0.5616 -0.2644 -0.3879
   40MOL     C842206   2.319   0.383   1.635 -0.8877 -0.1557 -0.4678
   40MOL     C942207   2.322   0.264   1.561  0.7490 -0.0645  0.3802
   40MOL    C1042208   2.435   0.242   1.480 -0.0552  0.4072 -0.3121
   40MOL    C1142209   2.532   0.343   1.452  0.5891  0.0706 -0.7029
   40MOL    O1242210   2.624   0.338   1.350  0.4582  0.7701  0.6347
   40MOL    C1342211   2.570   0.348   1.223 -0.2583  0.2406  0.3503
   40MOL    C1442212   2.563   0.475   1.161  0.1776  0.0474 -0.0360
   40MOL    C1542213   2.527   0.483   1.025  0.3663 -0.2323  0.8571
   40MOL    C1642214   2.487   0.374   0.947  0.4936 -0.3446 -0.1302
   40MOL    C1742215   2.439   0.393   0.802 -0.3459  0.0698 -0.1469
   40MOL    C1842216   2.563   0.372   0.720 -0.3088 -0.6680 -0.3818
   40MOL    C1942217   2.330   0.291   0.751 -0.5945  0.3182 -0.3587
   40MOL    C2042218   2.376   0.536   0.783  0.1117 -0.7196  0.0152
   40MOL    C2142219   2.402   0.619   0.673 -0.5546  0.1657  0.5051
   40MOL    C2242220   2.336   0.741   0.653 -0.4031  0.5970 -0.4042
   40MOL    C2342221   2.234   0.788   0.737  0.5697  0.1781  0.1203
   40MOL    O2442222   2.165   0.903   0.721  0.0046 -0.1565  0.0836
   40MOL    C2542223   2.204   0.701   0.844  0.7797  0.0954  0.5305
   40MOL    C2642224   2.277   0.586   0.870 -0.5739  1.3265 -0.4678
   40MOL    C2742225   2.490   0.244   1.014 -0.8331 -0.0081  0.4862
   40MOL    C2842226   2.531   0.230   1.151 -0.8199 -0.3640  0.4855
   40MOL    C2942227   2.516   0.466   1.515  0.0331  0.1483  0.2283
   40MOL    C3042228   2.412   0.486   1.606 -0.4834 -0.0415 -0.0293
   40MOL    C3142229   2.183   0.254   1.977  0.1736  0.2292  0.7141
   40MOL    C3242230   2.230   0.202   2.097  0.9018 -0.0333  0.0286
   40MOL    H3342231   2.538   0.355   2.115  0.3133  0.7687  0.3930
   40MOL    H3442232   2.448   0.459   1.903  0.0102  0.3118  2.0601
   40MOL    H3542233   2.263   0.180   1.593  1.2624 -0.2979  0.7210
   40MOL    H3642234   2.445   0.147   1.429 -0.6778 -0.0046  0.3140
   40MOL    H3742235   2.597   0.562   1.215 -1.3672  0.2454  0.6509
   40MOL    H3842236   2.523   0.580   0.976 -0.8782 -0.6732  0.0791
   40MOL    H3942237   2.639   0.449   0.732  0.4689 -1.6915  1.5760
   40MOL    H4042238   2.546   0.357   0.614  1.2640 -2.6071 -0.3810
   40MOL    H4142239   2.611   0.276   0.741 -2.0906 -1.5078  0.0239
   40MOL    H4242240   2.281   0.301   0.654 -1.3111  0.4390  0.0100
   40MOL    H4342241   2.369   0.189   0.754 -0.4949  0.3388 -0.9874
   40MOL    H4442242   2.244   0.292   0.819 -0.0232  1.3446  0.3562
   40MOL    H4542243   2.472   0.592   0.595 -1.2991 -2.0780  0.5799
   40MOL    H4642244   2.365   0.795   0.564  0.3789 -0.5742 -0.8668
   40MOL    H4742245   2.128   0.728   0.917 -1.3435  0.2551 -1.6796
   40MOL    H4842246   2.249   0.520   0.950 -1.6061  0.2262 -1.7115
   40MOL    H4942247   2.451   0.159   0.959 -0.4269  0.6197 -0.7875
   40MOL    H5042248   2.532   0.132   1.196 -1.2914 -1.1866 -1.2482
   40MOL    H5142249   2.594   0.540   1.507  1.2723 -1.0906  0.6331
   40MOL    H5242250   2.405   0.581   1.657  2.8311  0.2413 -0.0316
   40MOL    H5342251   2.081   0.234   1.949  1.7641 -3.3680 -2.9135
   40MOL    H5442252   2.162   0.137   2.150 -1.0161  0.6809 -1.4539
   40MOL    H5542253   2.394   0.180   2.229 -2.0150 -0.9179 -0.0995
   40MOL    C5642254   2.204   1.020   0.786  0.6534  0.0333  0.2913
   40MOL    C5742255   2.339   1.041   0.818 -0.2255 -0.0121 -0.0363
   40MOL    C5842256   2.380   1.165   0.871 -0.0336  0.4779  0.6945
   40MOL    C5942257   2.284   1.265   0.893  0.3340 -0.1014  0.3600
   40MOL    S6042258   2.333   1.417   0.964  0.1399 -0.0794 -0.3935
   40MOL    O6142259   2.215   1.464   1.038 -0.0570  0.6019  0.1202
   40MOL    O6242260   2.391   1.499   0.857  0.8924 -0.3967  0.6085
   40MOL    C6342261   2.466   1.390   1.082 -0.1592  0.3819 -0.4956
   40MOL    C6442262   2.591   1.352   1.035  0.0400 -0.0227 -0.3115
   40MOL    C6542263   2.693   1.307   1.123  0.4274  0.2989  0.3087
   40MOL    C6642264   2.664   1.307   1.260 -0.4679  0.4374 -0.6026
   40MOL    O6742265   2.756   1.250   1.347 -0.4707 -0.3731  0.1104
   40MOL    C6842266   2.861   1.320   1.396 -0.1780  0.1123 -0.0406
   40MOL    C6942267   2.939   1.407   1.322 -0.1760 -0.0349 -0.0530
   40MOL    C7042268   3.037   1.489   1.384 -0.0472  0.7078 -0.1066
   40MOL    C7142269   3.079   1.464   1.517  0.5529  0.0435 -0.4294
   40MOL    C7242270   3.194   1.536   1.587  0.1346  0.6744  0.8171
   40MOL    C7342271   3.240   1.663   1.512 -0.1237  0.2770 -0.8156
   40MOL    C7442272   3.139   1.581   1.721  0.2840 -0.1520  0.2861
   40MOL    C7542273   3.310   1.436   1.601 -0.7985 -0.0729  0.9102
   40MOL    C7642274   3.404   1.442   1.709 -0.1845 -0.3871 -0.7992
   40MOL    C7742275   3.524   1.365   1.711 -0.0947  0.4074  0.1737
   40MOL    C7842276   3.558   1.282   1.597  1.2168  0.5347 -0.3242
   40MOL    O7942277   3.674   1.209   1.599 -0.2004  0.0396 -0.2931
   40MOL    C8042278   3.468   1.276   1.487 -0.1779 -0.3058 -0.0557
   40MOL    C8142279   3.348   1.358   1.486 -0.7867  0.2233  0.2546
   40MOL    C8242280   3.007   1.365   1.591 -0.7205 -0.8112 -0.3485
   40MOL    C8342281   2.899   1.298   1.528 -0.2058 -0.0797 -0.3843
   40MOL    C8442282   2.547   1.363   1.306  0.2043 -0.4971  0.5963
   40MOL    C8542283   2.440   1.392   1.214 -0.3241 -0.6506  0.0425
   40MOL    C8642284   2.151   1.244   0.857  0.8143  0.2976 -1.0843
   40MOL    C8742285   2.111   1.125   0.799 -0.7757 -0.1971  0.1276
   40MOL    H8842286   2.408   0.967   0.779  1.0288  1.6808 -1.1258
   40MOL    H8942287   2.485   1.184   0.885  0.1466 -1.0835  1.5881
   40MOL    H9042288   2.618   1.364   0.932  1.4491 -0.7398 -0.0435
   40MOL    H9142289   2.788   1.281   1.078  0.2540 -1.2955  0.8083
   40MOL    H9242290   2.919   1.425   1.218  3.7867 -1.0057 -1.0865
   40MOL    H9342291   3.090   1.562   1.324  0.4461 -0.5981 -1.2785
   40MOL    H9442292   3.159   1.731   1.485  0.0589  1.1198  0.7436
   40MOL    H9542293   3.300   1.649   1.422  3.8005 -0.2607  1.7912
   40MOL    H9642294   3.301   1.730   1.572  0.1188  0.0811 -0.8430
   40MOL    H9742295   3.051   1.645   1.718  0.2740 -0.1967 -0.3180
   40MOL    H9842296   3.117   1.500   1.790 -1.9057 -0.6988 -1.0108
   40MOL    H9942297   3.205   1.646   1.779 -1.2332 -0.6782  2.7081
   40MOL   H10042298   3.381   1.503   1.795  0.9949 -1.8765  0.5954
   40MOL   H10142299   3.592   1.377   1.794  0.8210  2.1335 -0.8012
   40MOL   H10242300   3.486   1.218   1.398  2.9062  0.6349 -0.0756
   40MOL   H10342301   3.285   1.373   1.400 -2.3541 -1.2784  1.1081
   40MOL   H10442302   3.040   1.331   1.688  1.5751  1.1972 -0.4082
   40MOL   H10542303   2.853   1.223   1.591  0.6631  1.6537  2.4038
   40MOL   H10642304   2.522   1.355   1.411  0.1486 -1.1755  0.5308
   40MOL   H10742305   2.342   1.413   1.252 -0.1997 -0.9089  0.5174
   40MOL   H10842306   2.080   1.322   0.879  0.7323 -0.6714  2.3854
   40MOL   H10942307   2.009   1.117   0.765 -0.4485  0.2088 -0.9572
   40MOL   C11042308   3.763   1.214   1.704 -0.7761 -0.1329  1.0256
   40MOL   C11142309   3.770   1.112   1.804  0.1155  0.1457  0.8609
   40MOL   C11242310   3.871   1.109   1.899  0.3751  0.0167 -0.5119
   40MOL   C11342311   3.970   1.205   1.895 -0.3288  0.0526 -0.7058
   40MOL   S11442312   4.092   1.210   2.028  0.0789  0.3123  0.0453
   40MOL   O11542313   4.196   1.302   1.981 -0.1559  0.4253  0.3042
   40MOL   O11642314   4.121   1.069   2.063  0.1922  0.0382 -0.8800
   40MOL   C11742315   4.017   1.288   2.176  0.2543  0.1520 -0.5252
   40MOL   C11842316   3.878   1.319   2.193 -0.1037  0.1403  0.1585
   40MOL   C11942317   3.832   1.393   2.303 -0.7383 -0.1729  0.0513
   40MOL   C12042318   3.919   1.447   2.394 -0.1308 -0.0826 -0.4611
   40MOL   O12142319   3.877   1.518   2.501 -0.0450 -0.2447 -0.7322
   40MOL   C12242320   3.896   1.649   2.501 -0.1900  0.1548  0.0311
   40MOL   C12342321   4.021   1.715   2.525 -0.0547  0.3486 -0.1580
   40MOL   C12442322   4.034   1.855   2.520  0.6208 -0.1050 -0.2845
   40MOL   C12542323   3.924   1.936   2.487 -0.0188 -0.5510 -0.8961
   40MOL   C12642324   3.926   2.087   2.476  0.0777 -0.1241  0.3071
   40MOL   C12742325   4.048   2.149   2.536 -0.1073 -0.3310 -0.0112
   40MOL   C12842326   3.921   2.125   2.331 -0.2378 -0.1866  0.4037
   40MOL   C12942327   3.811   2.153   2.558 -0.7552 -0.5354  0.7768
   40MOL   C13042328   3.758   2.093   2.674 -0.1180  0.4062 -0.6194
   40MOL   C13142329   3.655   2.163   2.747 -0.1541 -0.1731  0.8304
   40MOL   C13242330   3.610   2.296   2.707 -0.0475 -0.1591 -0.1535
   40MOL   O13342331   3.521   2.370   2.785  0.3672 -0.3946 -0.6068
   40MOL   C13442332   3.676   2.357   2.601  0.1919 -0.3154 -0.2572
   40MOL   C13542333   3.771   2.284   2.525 -0.3299  0.0601  0.1573
   40MOL   C13642334   3.797   1.867   2.457  0.9560 -0.3643 -0.2928
   40MOL   C13742335   3.787   1.729   2.476  0.4320  0.3745 -0.0045
   40MOL   C13842336   4.056   1.408   2.383 -0.2587 -0.6595 -0.4533
   40MOL   C13942337   4.110   1.337   2.275 -0.0398 -0.4002 -0.2477
   40MOL   C14042338   3.970   1.304   1.796 -0.0637 -0.6063  0.1324
   40MOL   C14142339   3.868   1.307   1.702 -0.2128  0.0370 -0.1021
   40MOL   H14242340   3.706   1.026   1.791 -0.5904  0.6360  1.0447
   40MOL   H14342341   3.889   1.033   1.974  2.0336 -1.2309 -2.1260
   40MOL   H14442342   3.804   1.280   2.124  1.7056 -1.0578 -1.1456
   40MOL   H14542343   3.725   1.391   2.322 -0.7262 -0.4852  0.0885
   40MOL   H14642344   4.101   1.644   2.538 -1.5150 -1.2122  0.6733
   40MOL   H14742345   4.131   1.899   2.537 -0.1336  1.5532 -0.1996
   40MOL   H14842346   4.047   2.131   2.643 -0.7379  0.8767  0.1947
   40MOL   H14942347   4.045   2.257   2.545  0.0659 -0.2974 -0.3550
   40MOL   H15042348   4.149   2.126   2.504 -0.0259  0.3223 -0.2225
   40MOL   H15142349   3.940   2.230   2.309 -1.0515 -0.7542 -3.2755
   40MOL   H15242350   3.986   2.066   2.267 -1.5185  0.3092 -1.3857
   40MOL   H15342351   3.817   2.106   2.305 -0.4519 -0.2772  1.3208
   40MOL   H15442352   3.786   1.999   2.719  1.3616  0.5169 -1.2651
   40MOL   H15542353   3.629   2.126   2.845  0.4231  0.9192  1.4049
   40MOL   H15642354   3.653   2.461   2.586 -0.1015 -0.3660 -0.1590
   40MOL   H15742355   3.820   2.332   2.441  0.7919 -2.9000 -0.9519
   40MOL   H15842356   3.710   1.928   2.437  1.5124  0.1557 -1.1540
   40MOL   H15942357   3.690   1.683   2.471  0.4014  0.5542 -1.0508
   40MOL   H16042358   4.117   1.446   2.464 -1.3452  2.9212 -1.2352
   40MOL   H16142359   4.217   1.322   2.261  0.2999  1.3653  0.3010
   40MOL   H16242360   4.053   1.373   1.797 -1.1191  0.6923  0.0185
   40MOL   H16342361   3.862   1.380   1.623 -1.0170  0.3675  0.2605
   40MOL   C16442362   3.388   2.337   2.811  0.1502 -0.0007  0.0688
   40MOL   C16542363   3.310   2.295   2.702 -0.3613 -0.2111 -0.3768
   40MOL   C16642364   3.180   2.255   2.722  0.0427 -0.1549 -0.6674
   40MOL   C16742365   3.122   2.279   2.848 -0.2703 -0.4909  0.6976
   40MOL   S16842366   2.944   2.255   2.868 -0.0787 -0.2119  0.2278
   40MOL   O16942367   2.912   2.259   3.009  0.2238 -0.2298 -0.2277
   40MOL   O17042368   2.911   2.133   2.795 -0.0584 -0.0943  0.4553
   40MOL   C17142369   2.866   2.401   2.800  0.1917  0.0217 -0.3675
   40MOL   C17242370   2.732   2.383   2.765 -0.1965  0.5596 -0.9856
   40MOL   C17342371   2.663   2.486   2.702 -0.7989 -0.3908  0.0868
   40MOL   C17442372   2.745   2.583   2.635 -0.0969  0.1405 -0.1512
   40MOL   O17542373   2.687   2.660   2.546 -0.1888  0.3669  0.8877
   40MOL   C17642374   2.648   2.603   2.432 -0.8703 -0.1973  0.6224
   40MOL   C17742375   2.520   2.583   2.397  0.1079  0.5726 -0.2243
   40MOL   C17842376   2.478   2.524   2.278  0.1160 -0.5074 -0.2162
   40MOL   C17942377   2.575   2.475   2.185 -0.8681  0.0111  0.5082
   40MOL   C18042378   2.526   2.406   2.060 -0.0402 -0.1637  0.4720
   40MOL   C18142379   2.561   2.492   1.938  0.0192  0.3125 -0.4995
   40MOL   C18242380   2.597   2.264   2.038 -0.4476 -0.7163  0.2769
   40MOL   C18342381   2.372   2.379   2.067  0.8339  0.5582 -0.0190
   40MOL   C18442382   2.322   2.270   2.147  0.8922  0.5886  0.4335
   40MOL   C18542383   2.186   2.240   2.156  0.1010 -0.8078  0.1701
   40MOL   C18642384   2.093   2.320   2.095  0.0818 -0.3619  0.4083
   40MOL   O18742385   1.952   2.296   2.097 -0.3186 -0.0274  0.2975
   40MOL   C18842386   2.142   2.426   2.006  0.3202 -0.2743 -0.5660
   40MOL   C18942387   2.275   2.463   2.010 -0.6431  0.2706 -0.3285
   40MOL   C19042388   2.712   2.481   2.223  0.2310 -0.5230  0.4840
   40MOL   C19142389   2.751   2.554   2.338  0.0463  0.6993  0.4560
   40MOL   C19242390   2.881   2.601   2.664 -0.1015  0.4916  0.2181
   40MOL   C19342391   2.945   2.508   2.754 -0.6737  0.0384  0.5396
   40MOL   C19442392   3.202   2.313   2.956 -0.1555 -0.1791  0.4186
   40MOL   C19542393   3.342   2.332   2.943  0.0518 -0.3094  0.6100
   40MOL   H19642394   3.352   2.309   2.603 -1.2571  0.5819 -0.6550
   40MOL   H19742395   3.114   2.231   2.641 -0.1481 -3.2698  0.3591
   40MOL   H19842396   2.687   2.289   2.794  1.7461 -0.3940 -0.9708
   40MOL   H19942397   2.559   2.479   2.676 -0.6840 -1.7526 -0.0548
   40MOL   H20042398   2.447   2.618   2.469 -2.6631  2.1794 -3.6657
   40MOL   H20142399   2.373   2.509   2.256  0.3450 -2.5649 -0.0001
   40MOL   H20242400   2.667   2.502   1.914  0.4887 -3.1876 -0.0950
   40MOL   H20342401   2.530   2.596   1.952  2.0975  0.9538 -0.5733
   40MOL   H20442402   2.520   2.453   1.845  1.6591  0.2089 -1.1852
   40MOL   H20542403   2.594   2.199   2.125  1.8280  0.4078  1.2155
   40MOL   H20642404   2.565   2.221   1.943 -2.2989 -0.7530  0.8876
   40MOL   H20742405   2.705   2.267   2.026 -0.4650 -1.2919 -0.0896
   40MOL   H20842406   2.390   2.200   2.195  0.6569 -0.1538 -0.2946
   40MOL   H20942407   2.157   2.149   2.207  0.4134 -1.5410 -0.9171
   40MOL   H21042408   2.069   2.486   1.953  2.0368  0.5179 -2.0816
   40MOL   H21142409   2.298   2.556   1.959 -0.1339  0.9405  1.1005
   40MOL   H21242410   2.789   2.437   2.162 -1.0042 -1.4383 -0.4597
   40MOL   H21342411   2.855   2.570   2.359  0.0524  1.8046 -0.3871
   40MOL   H21442412   2.940   2.680   2.620 -0.1822 -1.2306 -3.1147
   40MOL   H21542413   3.049   2.525   2.776 -0.1746 -2.9188  0.7496
   40MOL   H21642414   3.148   2.313   3.050 -0.4455 -1.1455  0.2599
   40MOL   H21742415   3.405   2.355   3.027  2.0307 -0.5767 -0.7733
   40MOL   C21842416   1.906   2.169   2.142  0.8648  0.3807 -0.1016
   40MOL   C21942417   1.925   2.060   2.056  0.2027  0.0942  0.3993
   40MOL   C22042418   1.864   1.937   2.085  0.6047 -0.4622 -0.3970
   40MOL   C22142419   1.814   1.923   2.219  0.0066  0.0791 -0.3230
   40MOL   S22242420   1.768   1.748   2.264 -0.0119 -0.1549  0.1247
   40MOL   O22342421   1.878   1.673   2.328 -0.0867  0.1932 -0.2387
   40MOL   O22442422   1.719   1.690   2.143  0.1470  0.2554  0.1575
   40MOL   C22542423   1.634   1.759   2.382  0.3123  0.5549  0.2364
   40MOL   C22642424   1.504   1.790   2.338  0.0760  0.7455 -0.1684
   40MOL   C22742425   1.414   1.839   2.437  0.8453  0.5579  0.4585
   40MOL   C22842426   1.451   1.852   2.573  0.5508 -0.6795 -0.2637
   40MOL   O22942427   1.368   1.897   2.670 -0.1799  0.1301  0.0680
   40MOL   C23042428   1.266   1.980   2.646  0.0244 -0.1403 -0.2772
   40MOL   C23142429   1.155   1.977   2.729  0.0167 -0.4750 -0.3524
   40MOL   C23242430   1.039   2.049   2.708  0.5687  0.0010 -0.2259
   40MOL   C23342431   1.030   2.140   2.604  0.2552 -0.4839 -0.4406
   40MOL   C23442432   0.909   2.222   2.575  0.8733  0.9401  0.4904
   40MOL   C23542433   0.845   2.278   2.708  0.2191  0.5229 -0.0320
   40MOL   C23642434   0.939   2.351   2.497  0.4979 -0.1235  0.0465
   40MOL   C23742435   0.812   2.135   2.490 -0.3078  0.0192  0.2472
   40MOL   C23842436   0.695   2.095   2.542  0.2906 -0.2726 -0.8258
   40MOL   C23942437   0.610   2.007   2.475  0.0111  0.4369  0.0542
   40MOL   C24042438   0.645   1.958   2.347 -0.3478  0.2253 -0.4669
   40MOL   O24142439   0.566   1.874   2.275 -0.4170  0.4700  0.2002
   40MOL   C24242440   0.772   1.989   2.298  0.5975  0.1765  0.1200
   40MOL   C24342441   0.849   2.085   2.368  0.6553 -0.5345 -0.2391
   40MOL   C24442442   1.147   2.158   2.524  0.0584  0.5055 -0.0845
   40MOL   C24542443   1.258   2.073   2.544  0.7484  0.1256 -0.1033
   40MOL   C24642444   1.576   1.799   2.615  0.2142  0.1346  0.5864
   40MOL   C24742445   1.671   1.765   2.518 -0.0229 -0.7070  0.5992
   40MOL   C24842446   1.804   2.027   2.309  0.0745  0.1421  0.0108
   40MOL   C24942447   1.851   2.152   2.270 -0.0703 -0.0088 -0.3963
   40MOL   H25042448   1.979   2.065   1.962  1.2664  2.2924  1.1028
   40MOL   H25142449   1.866   1.854   2.015 -1.4738 -0.0087 -1.0525
   40MOL   H25242450   1.487   1.792   2.232  0.6324 -0.9149 -0.2968
   40MOL   H25342451   1.320   1.880   2.402  2.0580  3.0103 -0.0443
   40MOL   H25442452   1.153   1.906   2.810 -0.5690 -0.3904 -0.2906
   40MOL   H25542453   0.953   2.026   2.770  0.6512 -0.7910 -0.3931
   40MOL   H25642454   0.777   2.361   2.686 -0.2782 -0.1563 -1.0862
   40MOL   H25742455   0.921   2.315   2.777 -1.6452  2.2961  1.1561
   40MOL   H25842456   0.793   2.207   2.774  1.8600 -0.7321 -0.0693
   40MOL   H25942457   0.973   2.341   2.394  0.6944 -1.0160  0.1959
   40MOL   H26042458   0.847   2.407   2.482  0.1678 -0.8680 -0.7460
   40MOL   H26142459   1.011   2.406   2.558  1.2711 -2.7665  1.6198
   40MOL   H26242460   0.657   2.124   2.639 -0.1176 -0.7618 -0.8355
   40MOL   H26342461   0.514   1.978   2.514 -0.5994  1.6201 -0.5510
   40MOL   H26442462   0.818   1.948   2.209  1.9237  2.5706 -0.3567
   40MOL   H26542463   0.942   2.114   2.322 -0.0242  4.1601  1.1065
   40MOL   H26642464   1.155   2.220   2.436 -0.1555 -0.5260 -0.8462
   40MOL   H26742465   1.346   2.096   2.486  0.9213 -0.7900 -0.2084
   40MOL   H26842466   1.604   1.803   2.720  0.5247 -0.3838  0.5240
   40MOL   H26942467   1.771   1.744   2.553  0.9124  0.4618 -1.3103
   40MOL   H27042468   1.755   2.016   2.404 -2.5822  0.0166 -1.3095
   40MOL   H27142469   1.846   2.231   2.344 -0.4135 -0.4900  0.0898
   40MOL   C27242470   0.430   1.901   2.279  0.1474 -0.4276 -0.3937
   40MOL   C27342471   0.375   2.011   2.203 -0.0917  0.4065  0.4027
   40MOL   C27442472   0.243   2.051   2.220  0.0325  0.5690 -0.7114
   40MOL   C27542473   0.161   1.985   2.311 -0.0432 -0.1196  0.1157
   40MOL   S27642474   8.243   2.031   2.335 -0.0050 -0.5028 -0.0913
   40MOL   O27742475   8.165   1.917   2.290  0.4684 -0.0151  0.5864
   40MOL   O27842476   8.226   2.165   2.283 -0.0044 -0.1076  0.5375
   40MOL   C27942477   8.219   2.040   2.510  0.8095 -0.0553 -0.1267
   40MOL   C28042478   0.064   2.101   2.594  0.0836  0.4399 -0.7805
   40MOL   C28142479   0.035   2.115   2.732  0.1473  0.3027  0.3946
   40MOL   C28242480   8.174   2.051   2.790 -1.0769 -0.6381  0.2612
   40MOL   O28342481   8.163   2.048   2.925  0.1770 -0.5098  0.6680
   40MOL   C28442482   8.165   1.927   2.985  0.2594 -0.0331  0.4349
   40MOL   C28542483   8.043   1.861   3.004  0.5268 -0.0730 -0.4563
   40MOL   C28642484   8.037   1.739   3.075  0.2052  0.6682 -0.1506
   40MOL   C28742485   8.154   1.689   3.136 -0.1694 -0.0043  0.2305
   40MOL   C28842486   8.145   1.563   3.225 -1.0260  0.1556  0.5855
   40MOL   C28942487   8.008   1.493   3.226  0.2418  0.2502  0.6098
   40MOL   C29042488   8.240   1.458   3.158 -0.6506  0.1434 -0.0543
   40MOL   C29142489   8.180   1.594   3.370  0.5082  0.0527 -0.0641
   40MOL   C29242490   8.131   1.709   3.428 -0.0123  0.1851  0.2589
   40MOL   C29342491   8.153   1.729   3.564 -0.7435 -0.3196 -0.2399
   40MOL   C29442492   8.231   1.637   3.643  0.7154  0.2110  0.5675
   40MOL   O29542493   0.006   1.661   3.774 -0.0548  0.1427 -0.3159
   40MOL   C29642494   0.028   1.525   3.588  0.2743 -0.1235 -0.3002
   40MOL   C29742495   8.246   1.498   3.454 -0.0851  0.2787 -0.7907
   40MOL   C29842496   0.026   1.752   3.109  0.1072 -0.3855 -0.3239
   40MOL   C29942497   0.029   1.867   3.028 -0.1166  0.0876 -0.1335
   40MOL   C30042498   8.080   1.992   2.710  0.0001 -0.1975  0.0395
   40MOL   C30142499   8.096   1.995   2.571  0.0808  0.4096  0.6778
   40MOL   C30242500   0.208   1.874   2.387  0.3105  0.3234  0.6460
   40MOL   C30342501   0.346   1.834   2.367  0.5216  0.2007  0.2908
   40MOL   H30442502   0.433   2.077   2.139 -0.5779 -2.5848 -3.3260
   40MOL   H30542503   0.199   2.129   2.159  0.1438  1.6130  0.5162
   40MOL   H30642504   0.151   2.146   2.548  0.3319 -0.2553 -1.0039
   40MOL   H30742505   0.113   2.136   2.803  0.4616  2.9343 -0.6595
   40MOL   H30842506   7.957   1.909   2.962  0.4695 -0.3848 -0.6978
   40MOL   H30942507   7.938   1.712   3.106  0.5006  1.1713  1.2763
   40MOL   H31042508   7.938   1.563   3.272 -2.3380 -0.1453 -2.5196
   40MOL   H31142509   8.017   1.398   3.278  1.9316  1.0381  1.7939
   40MOL   H31242510   7.978   1.457   3.128  2.1012  0.5031 -0.0569
   40MOL   H31342511   0.014   1.362   3.202 -1.8291 -0.3233 -0.3365
   40MOL   H31442512   8.209   1.426   3.059  0.7187  1.1476 -0.8395
   40MOL   H31542513   0.080   1.506   3.128 -0.7017 -0.5230 -1.2956
   40MOL   H31642514   8.075   1.780   3.370  1.7396  0.6844 -0.8314
   40MOL   H31742515   8.115   1.821   3.608  1.7238  0.1971  0.8905
   40MOL   H31842516   0.072   1.445   3.646  1.0880 -0.4237 -1.2959
   40MOL   H31942517   0.023   1.401   3.416  1.8992  0.4504  0.2849
   40MOL   H32042518   0.113   1.723   3.165 -0.7001  2.1470  2.3856
   40MOL   H32142519   0.121   1.921   3.012 -0.2440 -0.6012 -3.6714
   40MOL   H32242520   7.979   1.967   2.740 -0.0730  0.2297  0.1560
   40MOL   H32342521   8.014   1.963   2.508 -0.6422 -0.4797  2.0380
   40MOL   H32442522   0.138   1.813   2.442  1.0031 -2.8449 -1.8134
   40MOL   H32542523   0.373   1.740   2.412 -2.4663 -1.8111 -1.9214
   40MOL   C32642524   0.121   1.725   3.799  0.2657  0.1837 -0.7124
   40MOL   C32742525   0.143   1.860   3.758  0.3817  0.1186 -0.2299
   40MOL   C32842526   0.262   1.933   3.789  0.2804 -0.2327  0.4652
   40MOL   C32942527   0.369   1.862   3.844 -1.4826 -0.7549 -0.7600
   40MOL   S33042528   0.524   1.947   3.906  0.1348 -0.4585  0.3156
   40MOL   O33142529   0.639   1.857   3.909  0.3723  0.3824  0.4984
   40MOL   O33242530   0.490   2.016   4.030 -0.0766 -0.0047  0.7015
   40MOL   C33342531   0.554   2.079   3.785  0.1743 -0.0370  0.1970
   40MOL   C33442532   0.560   2.041   3.653 -1.1488  0.4763  0.2312
   40MOL   C33542533   0.589   2.138   3.557  0.2951 -0.0410  0.5693
   40MOL   C33642534   0.617   2.273   3.594 -0.1477  0.3984 -0.3471
   40MOL   O33742535   0.671   2.358   3.503  0.5474 -0.1294  0.4503
   40MOL   C33842536   0.785   2.326   3.438  0.0212  0.7246  0.6890
   40MOL   C33942537   0.803   2.365   3.303 -0.0593  0.0391  0.4999
   40MOL   C34042538   0.920   2.347   3.231 -0.1011 -1.1113  0.7104
   40MOL   C34142539   1.029   2.282   3.293 -0.0416 -0.3713  0.2987
   40MOL   C34242540   1.167   2.270   3.225 -0.0530  0.7781  0.6746
   40MOL   C34342541   1.267   2.358   3.298  0.0521  0.0809  0.0239
   40MOL   C34442542   1.216   2.125   3.220 -0.1720  0.2367  0.4482
   40MOL   C34542543   1.172   2.326   3.079 -1.2840  0.5743 -0.4176
   40MOL   C34642544   1.203   2.244   2.967 -0.1171  0.2250 -0.1434
   40MOL   C34742545   1.224   2.292   2.830 -0.2854  0.2160 -0.0999
   40MOL   C34842546   1.209   2.429   2.804  0.4648  0.3729 -0.7716
   40MOL   O34942547   1.231   2.472   2.676 -0.0587  0.0931  0.0730
   40MOL   C35042548   1.174   2.517   2.915 -0.0851 -0.5434  0.1640
   40MOL   C35142549   1.157   2.463   3.044 -0.7121  0.6912  0.4670
   40MOL   C35242550   1.009   2.237   3.428 -0.1398  0.3517  0.2577
   40MOL   C35342551   0.902   2.275   3.503 -0.1677  0.2929  0.3589
   40MOL   C35442552   0.622   2.309   3.731  0.1903  0.1821 -0.4463
   40MOL   C35542553   0.587   2.212   3.828  0.1655  0.3822 -0.3526
   40MOL   C35642554   0.356   1.721   3.867 -0.0835 -0.7283  0.3365
   40MOL   C35742555   0.232   1.655   3.844 -0.5792  0.1409 -0.2928
   40MOL   H35842556   0.066   1.920   3.712  1.7629  0.8038 -1.6917
   40MOL   H35942557   0.254   2.040   3.772 -2.3598 -0.5260 -0.3856
   40MOL   H36042558   0.545   1.937   3.628  0.5440  0.2710  0.0345
   40MOL   H36142559   0.609   2.101   3.457 -0.3666  2.0900 -0.3692
   40MOL   H36242560   0.728   2.425   3.253  0.1969 -1.5890 -1.9389
   40MOL   H36342561   0.935   2.402   3.140 -1.1028 -2.0258 -0.0224
   40MOL   H36442562   1.289   2.324   3.399 -1.0928 -1.8081 -0.3283
   40MOL   H36542563   1.231   2.461   3.303 -1.9609 -0.6273  0.7189
   40MOL   H36642564   1.366   2.368   3.255  0.3504 -0.3884  0.6020
   40MOL   H36742565   1.311   2.105   3.171 -0.8738 -1.1353 -0.3791
   40MOL   H36842566   1.234   2.075   3.315  0.2980 -0.3014  0.0735
   40MOL   H36942567   1.142   2.064   3.168 -0.4473  1.3457 -0.4837
   40MOL   H37042568   1.214   2.137   2.972  2.0779  0.2976 -2.1682
   40MOL   H37142569   1.255   2.222   2.755  1.6714  1.1009 -0.1343
   40MOL   H37242570   1.152   2.618   2.886 -1.0314 -0.9797 -0.6709
   40MOL   H37342571   1.125   2.537   3.115 -1.5427  0.5113  0.2806
   40MOL   H37442572   1.087   2.188   3.484  0.7831  2.2338  0.6485
   40MOL   H37542573   0.900   2.253   3.609 -0.3106  1.9376  0.7073
   40MOL   H37642574   0.643   2.411   3.760  1.6099  0.2575 -1.6603
   40MOL   H37742575   0.578   2.247   3.930 -0.6424  1.4535 -0.7872
   40MOL   H37842576   0.451   1.682   3.900 -0.6389 -0.1369  2.6827
   40MOL   H37942577   0.213   1.551   3.866 -0.6409  0.1668 -0.2233
   40MOL   C38042578   1.359   2.495   2.633 -0.6098 -0.4477  0.1708
   40MOL   C38142579   1.437   2.593   2.692 -0.2857 -0.5167  0.0978
   40MOL   C38242580   1.570   2.621   2.653  0.1472  0.4347 -0.4248
   40MOL   C38342581   1.625   2.551   2.544  1.1264 -0.8815  0.1815
   40MOL   S38442582   1.784   2.584   2.472  0.0912 -0.0185 -0.0572
   40MOL   O38542583   1.754   2.603   2.327  0.4091 -0.7579 -0.5177
   40MOL   O38642584   1.876   2.478   2.525 -0.0811 -0.2129 -0.2178
   40MOL   C38742585   1.845   2.737   2.552  0.4505  0.3516  0.2267
   40MOL   C38842586   1.953   2.734   2.638  0.0293 -0.0336 -0.5773
   40MOL   C38942587   1.996   2.854   2.697 -0.1754  0.0139 -0.4269
   40MOL   C39042588   1.930   2.976   2.663 -0.5972 -0.6218 -0.3049
   40MOL   O39142589   1.977   3.093   2.712 -0.1742  0.2981 -0.6898
   40MOL   C39242590   2.064   3.165   2.637 -0.8619  0.1982 -0.3991
   40MOL   C39342591   2.165   3.243   2.697 -0.1033  0.4161 -0.2025
   40MOL   C39442592   2.250   3.315   2.616 -0.2834  0.2526 -0.0087
   40MOL   C39542593   2.240   3.317   2.474 -0.2503  0.0058 -0.1273
   40MOL   C39642594   2.334   3.404   2.385 -0.0448 -0.2630 -0.2805
   40MOL   C39742595   2.433   3.497   2.463 -0.9397 -0.7687 -0.2617
   40MOL   C39842596   2.435   3.315   2.299 -0.6105 -0.4687 -0.4499
   40MOL   C39942597   2.246   3.489   2.298  0.0120 -0.0996  0.0108
   40MOL   C40042598   2.232   3.460   2.159  0.0634  0.3261 -0.0010
   40MOL   C40142599   2.139   3.535   2.077 -0.0060 -0.3112 -0.1841
   40MOL   C40242600   2.070   3.641   2.137 -0.3440  0.1756 -0.6736
   40MOL   O40342601   1.992   3.730   2.060  0.7200  0.1264 -1.0398
   40MOL   C40442602   2.081   3.670   2.273 -0.2480  0.1060 -0.5404
   40MOL   C40542603   2.177   3.598   2.354  0.0402  0.5918  1.3656
   40MOL   C40642604   2.138   3.241   2.416 -0.0567 -0.1236  0.1895
   40MOL   C40742605   2.052   3.165   2.498  0.3227 -0.3695 -0.1973
   40MOL   C40842606   1.818   2.972   2.578  0.0193 -0.5448 -0.5909
   40MOL   C40942607   1.772   2.854   2.523 -0.3988  0.3514  0.2851
   40MOL   C41042608   1.553   2.445   2.483 -0.0966  0.0040 -0.1600
   40MOL   C41142609   1.421   2.412   2.531 -0.1472  0.2060 -0.1055
   40MOL   H41242610   1.387   2.651   2.768  1.7910  0.4855  0.7303
   40MOL   H41342611   1.605   2.709   2.706  1.7576 -0.7538  0.5312
   40MOL   H41442612   1.991   2.636   2.662 -1.9191 -0.6055  0.3207
   40MOL   H41542613   2.075   2.835   2.767 -1.3722  0.2843  1.0082
   40MOL   H41642614   2.173   3.247   2.805  2.0475 -0.1144 -0.3192
   40MOL   H41742615   2.317   3.380   2.672 -0.8100  1.6160 -0.9245
   40MOL   H41842616   2.382   3.569   2.527  0.1538  0.9925 -1.3399
   40MOL   H41942617   2.493   3.562   2.399 -0.7521  0.2018  0.8818
   40MOL   H42042618   2.493   3.445   2.538 -1.5596  0.2950  0.9911
   40MOL   H42142619   2.502   3.269   2.372  0.3642 -0.4443 -1.3136
   40MOL   H42242620   2.406   3.242   2.224 -0.7713  0.3587 -1.2073
   40MOL   H42342621   2.505   3.376   2.240 -1.9829  1.3449 -0.2512
   40MOL   H42442622   2.281   3.371   2.122 -0.5783  0.8761 -2.2923
   40MOL   H42542623   2.129   3.518   1.970 -1.6370 -0.8486  0.0371
   40MOL   H42642624   2.028   3.756   2.311  0.8697  0.1903  0.8916
   40MOL   H42742625   2.165   3.614   2.460  3.4547 -0.5098  1.9765
   40MOL   H42842626   2.130   3.243   2.308  0.8786  2.2175  0.1220
   40MOL   H42942627   1.978   3.106   2.446 -0.7105  0.7038  0.0617
   40MOL   H43042628   1.766   3.065   2.559  2.0448  0.6390 -0.3845
   40MOL   H43142629   1.684   2.847   2.461 -0.8314 -1.2232  1.0366
   40MOL   H43242630   1.596   2.391   2.400  0.0278  0.4426 -0.3800
   40MOL   H43342631   1.359   2.330   2.498 -1.3092  0.7765  0.6008
   40MOL   C43442632   1.858   3.729   2.065  0.0170  0.5727 -0.3821
   40MOL   C43542633   1.797   3.638   2.158 -0.1906 -0.2639 -1.2802
   40MOL   C43642634   1.660   3.646   2.181  0.4399 -0.6848 -0.3920
   40MOL   C43742635   1.582   3.741   2.109 -0.0585  0.0979 -0.2095
   40MOL   S43842636   1.403   3.751   2.147 -0.2117  0.0182  0.1131
   40MOL   O43942637   1.368   3.634   2.224  0.7267 -0.4131 -0.6421
   40MOL   O44042638   1.328   3.787   2.023  0.0013 -0.0920 -0.3464
   40MOL   C44142639   1.399   3.892   2.262  0.0270  0.5554  0.6130
   40MOL   C44242640   1.436   3.867   2.396  0.2471  0.2337  0.5545
   40MOL   C44342641   1.449   3.975   2.480  0.4185 -0.2830 -0.4124
   40MOL   C44442642   1.432   4.106   2.440  0.1535 -0.1338 -0.7697
   40MOL   O44542643   1.455   4.200   2.536 -0.0453  0.3662 -0.1643
   40MOL   C44642644   1.515   4.312   2.495 -0.9853 -0.1137  0.2112
   40MOL   C44742645   1.645   4.322   2.443 -0.4682  0.4369  0.4771
   40MOL   C44842646   1.693   4.450   2.413 -0.1744 -0.3582 -0.4179
   40MOL   C44942647   1.614   4.568   2.410  0.6940  0.0860  0.0651
   40MOL   C45042648   1.679   4.699   2.367  0.0440  0.0912 -0.2670
   40MOL   C45142649   1.651   4.714   2.214 -0.4060  0.4318  0.4761
   40MOL   C45242650   1.614   4.819   2.435 -0.0369 -0.4357  0.0635
   40MOL   C45342651   1.828   4.707   2.406  0.2533 -0.1957 -0.7376
   40MOL   C45442652   1.875   4.675   2.539 -0.3568 -0.3835  0.8403
   40MOL   C45542653   2.011   4.686   2.575  0.1275  0.3324  0.4831
   40MOL   C45642654   2.104   4.742   2.479  0.1020  0.0541  0.2214
   40MOL   O45742655   2.237   4.757   2.508 -0.1230  0.0574 -0.2643
   40MOL   C45842656   2.054   4.774   2.351 -0.3218  0.5404  0.1206
   40MOL   C45942657   1.920   4.760   2.318  0.1805 -0.3741  0.1166
   40MOL   C46042658   1.476   4.551   2.440 -0.3560 -0.6363  0.1086
   40MOL   C46142659   1.430   4.425   2.489  0.3297  0.4999 -0.4589
   40MOL   C46242660   1.391   4.128   2.312 -0.1760 -0.4834  0.4461
   40MOL   C46342661   1.387   4.027   2.214  0.3111 -0.0234 -0.4372
   40MOL   C46442662   1.639   3.816   2.007  0.0696 -0.4697  0.3758
   40MOL   C46542663   1.776   3.808   1.982  0.0388 -0.4646 -0.0275
   40MOL   H46642664   1.862   3.581   2.223 -2.3912 -1.5696 -0.1870
   40MOL   H46742665   1.611   3.576   2.247  0.2098  0.1489  0.3209
   40MOL   H46842666   1.441   3.767   2.438  1.3887  0.4238  0.8831
   40MOL   H46942667   1.470   3.945   2.582  2.9891 -0.8833 -1.0619
   40MOL   H47042668   1.700   4.229   2.438 -1.7134 -0.2164 -2.3500
   40MOL   H47142669   1.797   4.460   2.383 -0.6225  0.5196 -1.7198
   40MOL   H47242670   1.698   4.803   2.171  1.7941 -0.4112  1.0511
   40MOL   H47342671   1.546   4.705   2.186 -1.0345  0.1306  2.8500
   40MOL   H47442672   1.701   4.639   2.154 -0.1791 -1.0904  2.5184
   40MOL   H47542673   1.631   4.801   2.541 -2.7536 -3.6645  0.0341
   40MOL   H47642674   1.648   4.917   2.403 -0.1935  0.4420  2.4913
   40MOL   H47742675   1.505   4.822   2.426 -0.1737  0.1506  1.7733
   40MOL   H47842676   1.800   4.630   2.603 -0.0183 -1.0891  0.7504
   40MOL   H47942677   2.044   4.647   2.670 -1.9236 -0.1190  1.0534
   40MOL   H48042678   2.128   4.817   2.286  1.7392  0.7760  2.5407
   40MOL   H48142679   1.896   4.795   2.218  1.8680  0.8852  0.1214
   40MOL   H48242680   1.402   4.629   2.430  0.4916  0.3739  1.6061
   40MOL   H48342681   1.328   4.428   2.524  0.5423  0.1610  0.1842
   40MOL   H48442682   1.366   4.228   2.281 -3.0477 -0.8850  1.3506
   40MOL   H48542683   1.365   4.053   2.111  1.4832 -1.4435 -1.0503
   40MOL   H48642684   1.565   3.868   1.948  0.2138 -0.5382  0.1328
   40MOL   H48742685   1.815   3.853   1.892  0.5770 -0.8928 -0.0064
   40MOL   C48842686   2.329   4.657   2.511  0.4480  0.0958  0.3069
   40MOL   C48942687   2.365   4.604   2.384  0.2349  0.1270 -0.1108
   40MOL   C49042688   2.465   4.509   2.378 -0.3151 -0.4566  0.9392
   40MOL   C49142689   2.521   4.457   2.498  0.4552 -0.0403  0.6905
   40MOL   S49242690   2.631   4.316   2.480 -0.1330 -0.0680 -0.1565
   40MOL   O49342691   2.736   4.346   2.581  0.1007  0.4216 -0.1961
   40MOL   O49442692   2.669   4.297   2.336  0.5295  0.3098 -0.3538
   40MOL   C49542693   2.549   4.165   2.535 -0.9318 -0.1352 -0.0949
   40MOL   C49642694   2.605   4.037   2.495  0.4456 -0.1437  0.6290
   40MOL   C49742695   2.537   3.917   2.524 -0.5926  0.1593 -0.6819
   40MOL   C49842696   2.414   3.926   2.593  0.2051  0.2734 -0.2151
   40MOL   O49942697   2.334   3.816   2.610  0.2104  0.0545  0.3005
   40MOL   C50042698   2.346   3.737   2.725 -0.7806  0.5032  0.1539
   40MOL   C50142699   2.236   3.701   2.815 -0.2478 -0.9687 -0.3255
   40MOL   C50242700   2.264   3.630   2.933 -0.7800 -0.4074 -0.2210
   40MOL   C50342701   2.393   3.574   2.960 -0.5943 -0.5078 -0.5803
   40MOL   C50442702   2.426   3.484   3.077  0.2338  0.7419  0.2073
   40MOL   C50542703   2.476   3.353   3.021  0.1286 -0.0749 -0.3013
   40MOL   C50642704   2.541   3.545   3.156 -0.2972  0.9261  0.4849
   40MOL   C50742705   2.300   3.459   3.167  0.4286 -0.6650 -0.5174
   40MOL   C50842706   2.222   3.346   3.160 -0.1044 -0.2713  0.4962
   40MOL   C50942707   2.116   3.319   3.248 -0.6989 -0.0650 -0.9697
   40MOL   C51042708   2.078   3.421   3.341 -0.4301 -0.2785 -0.1547
   40MOL   O51142709   1.980   3.400   3.428  0.0767 -0.1681  0.2387
   40MOL   C51242710   2.153   3.539   3.351 -0.1484  0.6784 -0.4611
   40MOL   C51342711   2.264   3.558   3.268  0.1697  0.2828 -0.0603
   40MOL   C51442712   2.499   3.618   2.876 -0.2493 -0.2100  0.5881
   40MOL   C51542713   2.472   3.682   2.755  0.0111  0.4520 -0.5852
   40MOL   C51642714   2.357   4.051   2.637 -0.4438  0.3123 -0.3934
   40MOL   C51742715   2.432   4.167   2.612  0.4685 -0.2584  0.3409
   40MOL   C51842716   2.479   4.501   2.631  0.1611  0.3437 -0.3556
   40MOL   C51942717   2.380   4.601   2.634  0.1861  0.2330  0.3611
   40MOL   H52042718   2.316   4.639   2.294 -0.4533 -1.3750 -0.3333
   40MOL   H52142719   2.494   4.463   2.284  2.1371 -0.7449  1.8108
   40MOL   H52242720   2.696   4.052   2.439 -0.6136  1.9930 -0.5912
   40MOL   H52342721   2.583   3.820   2.511  1.3259  0.6017  2.2937
   40MOL   H52442722   2.137   3.735   2.791  0.4766  1.7039  0.3246
   40MOL   H52542723   2.175   3.607   2.989 -1.3606 -0.8168 -1.2992
   40MOL   H52642724   2.573   3.373   2.975  0.3069 -0.0114  0.0970
   40MOL   H52742725   2.423   3.317   2.933  0.8505 -0.6436 -0.5151
   40MOL   H52842726   2.482   3.285   3.106  0.6987 -1.0956 -1.1320
   40MOL   H52942727   2.628   3.567   3.094 -0.2566 -0.3381  0.0724
   40MOL   H53042728   2.521   3.641   3.203  0.7861  0.8370  1.1589
   40MOL   H53142729   2.573   3.478   3.236 -1.7432  0.7626  0.9387
   40MOL   H53242730   2.236   3.279   3.076  0.2011 -1.0024  1.1259
   40MOL   H53342731   2.065   3.227   3.228  2.0369 -1.5257 -1.4798
   40MOL   H53442732   2.127   3.611   3.427  1.7948  1.8989 -0.9173
   40MOL   H53542733   2.309   3.654   3.290 -0.5302  0.2227  1.7397
   40MOL   H53642734   2.604   3.595   2.891 -0.3519 -0.5232  0.8282
   40MOL   H53742735   2.558   3.702   2.693  0.0639  0.2294 -0.5860
   40MOL   H53842736   2.263   4.055   2.690  0.2791 -1.2844  1.0927
   40MOL   H53942737   2.388   4.258   2.650  0.3597 -0.4046  0.5647
   40MOL   H54042738   2.513   4.442   2.714  1.5278 -0.1647 -1.2694
   40MOL   H54142739   2.350   4.626   2.735 -0.9961  1.8107 -0.3491
   40MOL   C54242740   1.850   3.412   3.391  0.0991  0.7468  0.9584
   40MOL   C54342741   1.813   3.455   3.259 -0.5497  0.2181  0.2442
   40MOL   C54442742   1.675   3.469   3.226 -0.4612  0.2275 -0.3087
   40MOL   C54542743   1.570   3.454   3.319 -0.2420  0.5863 -0.1367
   40MOL   S54642744   1.396   3.502   3.275 -0.0402  0.3028 -0.0670
   40MOL   O54742745   1.397   3.569   3.144 -0.2363 -0.1638 -0.5286
   40MOL   O54842746   1.345   3.573   3.395 -0.2347 -0.4111 -0.4674
   40MOL   C54942747   1.309   3.342   3.255 -0.3461 -0.2080  0.5156
   40MOL   C55042748   1.192   3.303   3.323 -0.6818 -0.3110 -0.7729
   40MOL   C55142749   1.145   3.171   3.306  0.8538 -0.5673  0.0567
   40MOL   C55242750   1.209   3.086   3.212 -0.4050 -0.4423  0.3175
   40MOL   O55342751   1.168   2.952   3.212  0.1603 -0.2115  0.8552
   40MOL   C55442752   1.092   2.912   3.110 -0.4356 -0.4071 -0.1752
   40MOL   C55542753   1.138   2.899   2.978 -0.1877 -0.3476 -0.2632
   40MOL   C55642754   1.050   2.853   2.877 -0.0154 -0.6490  0.9964
   40MOL   C55742755   0.925   2.798   2.905 -0.3653  0.0270  0.1950
   40MOL   C55842756   0.833   2.736   2.800 -0.7596 -0.7254  0.3479
   40MOL   C55942757   0.770   2.862   2.743 -0.7452 -0.0438  0.1127
   40MOL   C56042758   0.909   2.648   2.697  0.0254 -0.4458  0.7930
   40MOL   C56142759   0.731   2.647   2.871  0.1678 -0.4848  0.3278
   40MOL   C56242760   0.771   2.526   2.931 -0.2845 -0.8454 -0.0341
   40MOL   C56342761   0.679   2.452   3.010  0.3371 -0.1425  0.2277
   40MOL   C56442762   0.548   2.500   3.030 -0.1178  0.5731  0.2362
   40MOL   O56542763   0.464   2.443   3.119  0.0373  0.3749  0.4425
   40MOL   C56642764   0.498   2.609   2.955  0.4888  1.1734 -0.0728
   40MOL   C56742765   0.591   2.684   2.880  0.9247 -0.6362 -0.6734
   40MOL   C56842766   0.879   2.821   3.038  0.2443  1.0812 -0.0385
   40MOL   C56942767   0.961   2.878   3.138 -0.3404  0.0564 -0.1480
   40MOL   C57042768   1.322   3.130   3.136  0.2575 -0.2621 -0.0068
   40MOL   C57142769   1.368   3.260   3.158  0.0515  0.3637  1.4934
   40MOL   C57242770   1.609   3.419   3.449 -0.0438  0.1842 -0.1397
   40MOL   C57342771   1.740   3.400   3.484  0.0330  0.2458  0.1818
   40MOL   H57442772   1.883   3.490   3.184 -1.2559  0.1530 -0.4533
   40MOL   H57542773   1.649   3.513   3.131 -1.4693  1.0774  0.3464
   40MOL   H57642774   1.142   3.367   3.395 -0.9702 -1.1730 -0.2053
   40MOL   H57742775   1.062   3.131   3.362  1.3746 -0.1577  1.1360
   40MOL   H57842776   1.240   2.926   2.957 -0.8589  0.9800 -2.0376
   40MOL   H57942777   1.090   2.868   2.778 -0.4719  0.1576  0.9293
   40MOL   H58042778   0.847   2.930   2.706  1.8051 -2.0388  1.6096
   40MOL   H58142779   0.729   2.919   2.826  1.7644  2.2596 -0.1588
   40MOL   H58242780   0.691   2.828   2.676 -0.1471 -2.5837  0.6648
   40MOL   H58342781   0.970   2.570   2.742  0.2250  0.7547  2.6687
   40MOL   H58442782   0.848   2.604   2.619  0.4704  0.7734 -0.2600
   40MOL   H58542783   0.976   2.718   2.646 -0.6251  0.2689  0.9132
   40MOL   H58642784   0.869   2.485   2.913 -0.8943 -0.6897 -4.0539
   40MOL   H58742785   0.703   2.356   3.054 -0.3127  0.0775  1.0695
   40MOL   H58842786   0.395   2.637   2.972 -0.1493 -2.0502  1.7651
   40MOL   H58942787   0.553   2.766   2.821  0.1461 -0.7315 -0.3100
   40MOL   H59042788   0.778   2.797   3.066  0.9962  0.8161  2.5743
   40MOL   H59142789   0.916   2.894   3.234 -1.8331  1.1636 -1.0134
   40MOL   H59242790   1.380   3.064   3.074  2.0422  0.2043  1.1156
   40MOL   H59342791   1.450   3.299   3.099 -1.2299 -1.7784 -1.8168
   40MOL   H59442792   1.529   3.407   3.520  1.7687 -2.2592  1.5859
   40MOL   H59542793   1.753   3.362   3.584  0.1513 -1.5267 -0.4851
   40MOL   C59642794   0.448   2.505   3.241 -0.1845  0.0400  0.2290
   40MOL   C59742795   0.531   2.614   3.284 -0.1882 -0.5540  0.2584
   40MOL   C59842796   0.525   2.651   3.425  0.1230 -0.6260  0.4097
   40MOL   C59942797   0.429   2.585   3.508 -0.7765  0.3919  0.1220
   40MOL   S60042798   0.429   2.621   3.684 -0.0742 -0.0343 -0.5240
   40MOL   O60142799   0.566   2.680   3.711 -0.4436 -0.4205 -0.2623
   40MOL   O60242800   0.372   2.513   3.768  0.4212 -0.0275 -0.2814
   40MOL   C60342801   0.317   2.757   3.706 -0.4390 -0.3104 -0.1159
   40MOL   C60442802   0.256   2.776   3.829 -0.3093  0.3315  0.6055
   40MOL   C60542803   0.189   2.895   3.853  0.0092 -1.1471 -0.3493
   40MOL   C60642804   0.182   3.000   3.755  0.2694 -0.5605  0.1811
   40MOL   O60742805   0.123   3.118   3.778 -0.0275 -0.3213 -0.3076
   40MOL   C60842806   0.211   3.221   3.783 -0.7230 -0.2603  0.0480
   40MOL   C60942807   0.244   3.295   3.661  0.0623 -0.1515 -0.2279
   40MOL   C61042808   0.330   3.404   3.661  0.5300 -0.2574  0.0709
   40MOL   C61142809   0.405   3.432   3.778  0.0657  0.3331 -0.7032
   40MOL   C61242810   0.517   3.543   3.783 -0.0069 -0.8291  0.9294
   40MOL   C61342811   0.514   3.631   3.906  0.3554 -0.3165 -0.6093
   40MOL   C61442812   0.651   3.460   3.775  0.3161 -0.0784  0.1885
   40MOL   C61542813   0.505   3.638   3.661 -0.2053  0.4817  0.2222
   40MOL   C61642814   0.607   3.669   3.574 -0.0125  0.6810  0.1654
   40MOL   C61742815   0.596   3.754   3.466 -0.4076 -0.5419 -0.4406
   40MOL   C61842816   0.484   3.839   3.459 -0.2028 -0.0755  0.8476
   40MOL   O61942817   0.488   3.940   3.368  0.3649  0.7973  0.0326
   40MOL   C62042818   0.377   3.815   3.548  0.0669 -0.6169 -0.3531
   40MOL   C62142819   0.387   3.716   3.648  0.0978 -0.1526  0.0986
   40MOL   C62242820   0.377   3.352   3.899 -0.0300 -0.5611 -0.0875
   40MOL   C62342821   0.278   3.256   3.900  1.1932  0.1380  0.2753
   40MOL   C62442822   0.239   2.969   3.626  0.0583  0.0151 -0.5441
   40MOL   C62542823   0.310   2.853   3.607 -0.8020  0.3751 -0.7925
   40MOL   C62642824   0.341   2.483   3.461  0.1424  0.2073 -0.2930
   40MOL   C62742825   0.357   2.440   3.328  0.5091  0.0281  0.6683
   40MOL   H62842826   0.614   2.647   3.224 -2.1271  0.1002 -2.1251
   40MOL   H62942827   0.589   2.726   3.470  0.4133  0.2046 -1.3365
   40MOL   H63042828   0.286   2.710   3.910 -0.6949  1.1724  1.4386
   40MOL   H63142829   0.144   2.914   3.949 -2.7202 -1.8162 -1.4343
   40MOL   H63242830   0.189   3.274   3.571  0.0784 -3.0747  0.3659
   40MOL   H63342831   0.352   3.455   3.569 -1.9886 -0.3105 -0.6140
   40MOL   H63442832   0.530   3.559   3.987  0.8090  0.6726  0.1856
   40MOL   H63542833   0.425   3.690   3.927  0.2469 -0.5308 -0.4654
   40MOL   H63642834   0.596   3.702   3.900 -0.2774  0.2340 -3.2551
   40MOL   H63742835   0.665   3.393   3.689  3.5174 -0.0484  0.6084
   40MOL   H63842836   0.736   3.528   3.776  0.5390 -0.3594  0.6579
   40MOL   H63942837   0.678   3.403   3.864 -1.7351 -0.0838  0.8119
   40MOL   H64042838   0.691   3.601   3.580 -0.9634 -0.4928  0.4047
   40MOL   H64142839   0.683   3.760   3.402  0.2596 -1.0177  0.4169
   40MOL   H64242840   0.288   3.876   3.548  1.2301  1.1134 -0.8125
   40MOL   H64342841   0.309   3.707   3.723  1.4097 -1.0111  1.3805
   40MOL   H64442842   0.442   3.366   3.984 -1.9848 -2.2294  1.7235
   40MOL   H64542843   0.260   3.189   3.983 -0.4926 -0.7659 -0.7881
   40MOL   H64642844   0.242   3.045   3.548 -0.0743  0.4883 -0.0907
   40MOL   H64742845   0.355   2.840   3.509  1.2652 -0.4687  0.2455
   40MOL   H64842846   0.274   2.432   3.529  1.4549  1.0218  1.6601
   40MOL   H64942847   0.286   2.369   3.288  0.3390  1.2257 -1.2169
   40MOL   C65042848   0.492   3.913   3.236 -0.0397  0.5516 -0.2559
   40MOL   C65142849   0.613   3.934   3.167 -0.4355  0.8452 -0.3483
   40MOL   C65242850   0.621   3.913   3.029 -0.3981 -0.4195  0.4625
   40MOL   C65342851   0.509   3.853   2.964 -0.2086 -0.1913  0.3992
   40MOL   S65442852   0.521   3.845   2.783 -0.0342 -0.4314  0.1544
   40MOL   O65542853   0.605   3.729   2.748 -0.0653  0.3443  0.3118
   40MOL   O65642854   0.566   3.973   2.732  0.2983 -0.7606  0.4481
   40MOL   C65742855   0.359   3.813   2.724 -0.3472  0.0257 -0.2526
   40MOL   C65842856   0.267   3.918   2.701  0.9560  0.2414  0.5235
   40MOL   C65942857   0.139   3.900   2.642  0.4200  0.2865 -0.3857
   40MOL   C66042858   0.093   3.770   2.620  0.0328 -0.0292  0.1733
   40MOL   O66142859   8.219   3.747   2.569  0.2107 -0.3997  0.1730
   40MOL   C66242860   8.138   3.667   2.648 -0.2794 -0.3263  0.2416
   40MOL   C66342861   8.064   3.728   2.751  0.1802  0.3493 -0.1487
   40MOL   C66442862   7.988   3.650   2.841  0.6909 -0.2043 -0.6038
   40MOL   C66542863   7.988   3.511   2.843  0.6401 -1.0822  0.7407
   40MOL   C66642864   7.898   3.415   2.925 -0.1021 -0.3699  0.2210
   40MOL   C66742865   7.803   3.491   3.027 -0.2433 -0.4183 -0.2072
   40MOL   C66842866   7.807   3.349   2.823  0.1986 -0.3742  0.1307
   40MOL   C66942867   7.977   3.322   3.016  1.1405  0.1737 -0.4626
   40MOL   C67042868   7.993   3.185   2.991  0.3924 -0.7332  0.5384
   40MOL   C67142869   8.064   3.105   3.074 -0.7680 -0.0920  0.2428
   40MOL   C67242870   8.145   3.163   3.177 -0.4449  0.3252 -0.8569
   40MOL   O67342871   8.234   3.087   3.258  0.1377  0.4106 -0.6900
   40MOL   C67442872   8.144   3.301   3.201  0.2259  0.4799  0.8309
   40MOL   C67542873   8.050   3.377   3.127  0.1735 -0.7772 -0.5193
   40MOL   C67642874   8.063   3.454   2.734  0.7536  0.6797 -0.1556
   40MOL   C67742875   8.139   3.525   2.637  0.6216  0.7979 -0.4891
   40MOL   C67842876   0.180   3.659   2.642 -0.2939  0.3282 -0.0323
   40MOL   C67942877   0.315   3.683   2.689  0.9752  0.2311  0.4877
   40MOL   C68042878   0.389   3.833   3.032  0.7260 -0.4397  0.3155
   40MOL   C68142879   0.379   3.865   3.166  0.0244  0.4318 -0.5321
   40MOL   H68242880   0.689   3.988   3.221 -0.8667  1.0712  0.0405
   40MOL   H68342881   0.715   3.946   2.989 -1.7813  0.8688 -1.8420
   40MOL   H68442882   0.304   4.017   2.726  1.5653  0.0469  0.3841
   40MOL   H68542883   0.070   3.982   2.630 -0.5182 -0.2215  1.4109
   40MOL   H68642884   8.072   3.836   2.755  1.5558  0.2453  0.1512
   40MOL   H68742885   7.927   3.685   2.923  1.4979 -1.2399  0.4583
   40MOL   H68842886   7.859   3.555   3.094 -2.2886  1.7347 -0.4945
   40MOL   H68942887   7.741   3.415   3.075 -1.6471 -0.1409 -1.5092
   40MOL   H69042888   7.739   3.548   2.960 -0.5735 -1.3898 -0.7354
   40MOL   H69142889   7.764   3.412   2.745 -0.4162  0.4517  1.1201
   40MOL   H69242890   7.860   3.268   2.773  1.6721  0.2323  0.6650
   40MOL   H69342891   7.731   3.289   2.871  0.5108  0.1485  1.2881
   40MOL   H69442892   7.929   3.139   2.917  0.1299 -1.1506  1.0194
   40MOL   H69542893   8.060   2.997   3.063 -0.1972 -0.1690  0.7322
   40MOL   H69642894   8.212   3.352   3.268  0.6063  0.9942  0.0555
   40MOL   H69742895   8.049   3.483   3.149  0.0988 -1.2209  1.7550
   40MOL   H69842896   8.063   3.346   2.730  1.1421  0.6013  1.7273
   40MOL   H69942897   8.201   3.478   2.563  2.0638  3.2099 -0.8830
   40MOL   H70042898   0.143   3.561   2.615 -2.0894  0.8792  0.3583
   40MOL   H70142899   0.382   3.603   2.716  0.9470 -0.7943 -2.3361
   40MOL   H70242900   0.307   3.788   2.978  0.9143  0.1530 -0.4815
   40MOL   H70342901   0.285   3.857   3.220 -0.1022 -0.6641 -0.9058
   40MOL   C70442902   8.178   3.039   3.373  0.8835 -0.4636  0.6725
   40MOL   C70542903   8.186   3.117   3.490  0.1427 -0.0438  0.7388
   40MOL   C70642904   8.127   3.068   3.611 -1.6830  0.1441 -0.7003
   40MOL   C70742905   8.071   2.940   3.615 -0.3229 -0.2749  0.1954
   40MOL   S70842906   8.015   2.884   3.779 -0.3984 -0.0239  0.0230
   40MOL   O70942907   7.944   2.998   3.838 -0.1709  0.6791  0.4442
   40MOL   O71042908   8.130   2.826   3.852  0.6331 -0.0652 -0.1593
   40MOL   C71142909   7.899   2.755   3.762  0.8518  0.2036 -0.0609
   40MOL   C71242910   7.943   2.625   3.759 -0.2515  0.1878  0.3686
   40MOL   C71342911   7.861   2.515   3.770 -0.5039 -0.3058  0.7677
   40MOL   C71442912   7.722   2.543   3.784 -0.4551 -0.7761 -0.1317
   40MOL   O71542913   7.639   2.441   3.803 -0.1096 -0.2480 -0.6416
   40MOL   C71642914   7.615   2.410   3.938 -0.4881 -0.3694 -0.0309
   40MOL   C71742915   7.683   2.465   4.050 -0.4334  0.2624 -0.1570
   40MOL   C71842916   7.649   2.427   4.180  0.0085  0.7999  0.0090
   40MOL   C71942917   7.550   2.333   4.204 -0.1865  0.2928 -0.1892
   40MOL   C72042918   7.537   2.288   4.355 -0.4163 -0.1047 -0.1566
   40MOL   C72142919   7.461   2.396   4.440 -0.0886  0.0672 -0.7438
   40MOL   C72242920   7.449   2.165   4.375 -0.4529  0.3283 -0.2996
   40MOL   C72342921   7.676   2.261   4.414  0.9837 -0.5972 -0.8536
   40MOL   C72442922   7.781   2.202   4.334 -0.0389 -0.3003 -0.0587
   40MOL   C72542923   7.917   2.196   4.380  0.4041  0.0678  0.1634
   40MOL   C72642924   7.937   2.226   4.517 -0.2168 -0.6210  0.0245
   40MOL   O72742925   8.057   2.213   4.567  0.0385  0.3361 -0.1578
   40MOL   C72842926   7.836   2.268   4.600  0.2579  0.0836  0.5099
   40MOL   C72942927   7.706   2.284   4.549  0.5220  0.3649 -0.4068
   40MOL   C73042928   7.473   2.284   4.094  0.0898 -0.2451 -0.5375
   40MOL   C73142929   7.510   2.325   3.963 -0.2193 -0.0256  0.0434
   40MOL   C73242930   7.674   2.676   3.790 -0.6069 -0.2805  0.1240
   40MOL   C73342931   7.762   2.785   3.780  0.2672  0.2419  0.3245
   40MOL   C73442932   8.054   2.863   3.496  0.0334  0.2642 -0.0102
   40MOL   C73542933   8.101   2.921   3.375 -0.0660 -0.0691 -0.0419
   40MOL   H73642934   8.229   3.216   3.489  0.8480 -0.3411  0.6942
   40MOL   H73742935   8.130   3.123   3.704 -0.7434 -1.2823  0.1364
   40MOL   H73842936   8.049   2.607   3.746  0.0954  2.1894  0.3762
   40MOL   H73942937   7.897   2.413   3.766 -0.2336 -0.1613 -1.1868
   40MOL   H74042938   7.766   2.533   4.037 -1.1744  0.7959 -2.1572
   40MOL   H74142939   7.719   2.458   4.255  0.5990  0.4668 -0.4007
   40MOL   H74242940   7.374   2.433   4.387 -0.6555 -0.2303 -0.0255
   40MOL   H74342941   7.531   2.480   4.443 -0.3524  0.2499  1.1559
   40MOL   H74442942   7.435   2.357   4.539 -0.0718  1.8501 -0.0130
   40MOL   H74542943   7.507   2.079   4.341 -0.7579  1.0957 -2.8781
   40MOL   H74642944   7.435   2.139   4.480  0.9400 -0.9308 -0.4151
   40MOL   H74742945   7.352   2.172   4.326 -2.1904  1.3797  3.1178
   40MOL   H74842946   7.761   2.174   4.232  2.0802 -0.8347 -0.3482
   40MOL   H74942947   7.997   2.168   4.313 -0.5625  0.3613 -1.1333
   40MOL   H75042948   7.851   2.288   4.705 -1.6587  1.9520  0.4589
   40MOL   H75142949   7.632   2.305   4.626 -0.1451 -1.3458 -0.5574
   40MOL   H75242950   7.392   2.213   4.105 -0.7031  0.7156 -0.0382
   40MOL   H75342951   7.453   2.291   3.877  1.0619 -0.5430 -0.6120
   40MOL   H75442952   7.568   2.687   3.805 -0.3752  0.6513  1.1033
   40MOL   H75542953   7.729   2.887   3.790 -0.0384  0.1693  0.0489
   40MOL   H75642954   8.001   2.769   3.497 -0.0210  0.2937 -0.1885
   40MOL   H75742955   8.067   2.884   3.280 -1.9371 -0.6144  0.8169
   40MOL   C75842956   8.122   2.328   4.588 -0.7095  0.7093 -0.3199
   40MOL   C75942957   8.183   2.408   4.487  0.4250  1.1847 -0.7698
   40MOL   C76042958   8.248   2.526   4.518  0.1248  0.5015 -0.1149
   40MOL   C76142959   8.239   2.574   4.650  0.1301 -0.0323 -0.1372
   40MOL   S76242960   0.085   2.720   4.694 -0.1860  0.2506  0.3559
   40MOL   O76342961   0.169   2.753   4.578 -0.2724 -0.4249 -0.2898
   40MOL   O76442962   0.148   2.698   4.829 -0.5523 -0.6229  0.2684
   40MOL   C76542963   8.228   2.858   4.714  0.1828 -0.0094  0.2655
   40MOL   C76642964   0.013   2.954   4.807  0.4302 -0.1177  0.0700
   40MOL   C76742965   8.180   3.060   4.833 -0.4331  0.1356  0.0483
   40MOL   C76842966   8.055   3.070   4.766 -0.1938 -0.7811 -0.2533
   40MOL   O76942967   7.972   3.174   4.790 -0.6015  0.3408 -0.2282
   40MOL   C77042968   7.855   3.151   4.855 -0.6996  1.4371 -0.6576
   40MOL   C77142969   7.730   3.193   4.803  0.2098  0.1260  0.6687
   40MOL   C77242970   7.609   3.173   4.875  0.6316 -0.9307 -0.7529
   40MOL   C77342971   7.606   3.119   5.007  0.0926  0.3230  1.2550
   40MOL   C77442972   7.476   3.100   5.091  0.8057 -0.4309  0.0698
   40MOL   C77542973   7.376   3.218   5.062  0.2839  0.1826  0.4288
   40MOL   C77642974   7.412   2.975   5.044  0.0577  0.0142  0.1173
   40MOL   C77742975   7.503   3.106   5.242  0.4508 -0.5802  0.2207
   40MOL   C77842976   7.464   3.001   5.319 -0.6240 -1.0251  0.9883
   40MOL   C77942977   7.498   2.993   5.454 -0.7739 -0.5523  0.0863
   40MOL   C78042978   7.575   3.097   5.511 -0.6308 -0.0342  0.5316
   40MOL   O78142979   7.624   3.089   5.642  0.2378 -0.5352  0.2145
   40MOL   C78242980   7.603   3.208   5.430  0.1209 -0.1211  0.0214
   40MOL   C78342981   7.569   3.219   5.293  0.0924  0.1625 -0.3758
   40MOL   C78442982   7.731   3.076   5.056 -0.5991 -1.0309 -0.5668
   40MOL   C78542983   7.852   3.097   4.989  0.1052  0.2841 -0.0972
   40MOL   C78642984   8.021   2.976   4.673  0.1693  0.2843  0.2658
   40MOL   C78742985   8.103   2.870   4.645 -0.0467  0.0117  0.2750
   40MOL   C78842986   8.176   2.506   4.753  0.4670  0.0182  0.1805
   40MOL   C78942987   8.117   2.384   4.718 -0.2987  0.3634 -0.3340
   40MOL   H79042988   8.193   2.368   4.387  1.5130  0.5135 -0.4110
   40MOL   H79142989   0.046   2.588   4.447  0.8007  0.8356  0.6595
   40MOL   H79242990   0.108   2.947   4.857  0.5430  0.9436  0.0221
   40MOL   H79342991   8.210   3.136   4.904 -3.5813  0.2201  1.3579
   40MOL   H79442992   7.741   3.224   4.700  0.2765  0.6920  0.8430
   40MOL   H79542993   7.522   3.210   4.823  1.1434  1.2729 -0.1202
   40MOL   H79642994   7.419   3.318   5.060 -2.0035  1.1726 -0.8893
   40MOL   H79742995   7.287   3.218   5.125  0.4441  1.3782  0.6632
   40MOL   H79842996   7.332   3.217   4.962 -1.0643  1.2453  1.0017
   40MOL   H79942997   7.471   2.887   5.069  0.5335 -0.8690 -3.7824
   40MOL   H80042998   7.308   2.970   5.078 -0.1996 -0.4585 -0.7289
   40MOL   H80142999   7.403   2.965   4.936  0.6825 -0.7008  0.1273
   40MOL   H80243000   7.406   2.919   5.280 -0.5625 -0.4580 -0.3098
   40MOL   H80343001   7.471   2.913   5.522  0.2202  1.0068  2.3960
   40MOL   H80443002   7.676   3.278   5.468  0.7038  0.0095 -1.3169
   40MOL   H80543003   7.592   3.302   5.228 -0.8281  0.0476 -0.8606
   40MOL   H80643004   7.730   3.029   5.154 -0.9118 -0.1929 -0.1677
   40MOL   H80743005   7.937   3.061   5.046  1.3094  0.5395 -1.6864
   40MOL   H80843006   7.918   2.975   4.639  1.0141 -0.0595 -2.4609
   40MOL   H80943007   8.062   2.786   4.590 -1.9544  0.2518  1.2656
   40MOL   H81043008   8.163   2.551   4.850  0.3771 -0.5324  0.4287
   40MOL   H81143009   8.069   2.324   4.794  1.7816 -1.9450 -0.7731
   40MOL   C81243010   7.712   2.989   5.666  0.1650 -0.2716  0.2653
   40MOL   C81343011   7.674   2.872   5.739 -0.0445 -0.8228 -0.4628
   40MOL   C81443012   7.762   2.766   5.746  0.0126 -0.4226  0.1561
   40MOL   C81543013   7.889   2.781   5.689 -0.1710  0.5995 -0.2120
   40MOL   S81643014   8.016   2.649   5.698  0.0237  0.1816  0.0832
   40MOL   O81743015   8.148   2.714   5.700 -0.4767 -0.4863 -0.8289
   40MOL   O81843016   7.979   2.541   5.605 -0.3848  0.0540  1.0388
   40MOL   C81943017   7.990   2.568   5.855 -0.0792 -0.1404  0.1644
   40MOL   C82043018   8.080   2.602   5.957  0.0800 -0.0372  0.8976
   40MOL   C82143019   8.078   2.533   6.076 -0.5894  0.5709 -0.8427
   40MOL   C82243020   7.975   2.442   6.103  0.4445  0.1811  0.0975
   40MOL   O82343021   7.967   2.370   6.219 -0.1718 -0.1182 -0.1034
   40MOL   C82443022   7.905   2.439   6.317  0.3721 -0.5444 -0.0716
   40MOL   C82543023   7.977   2.493   6.424 -0.4542 -0.5019 -0.4755
   40MOL   C82643024   7.914   2.559   6.528 -0.2117 -0.5678 -0.2840
   40MOL   C82743025   7.769   2.568   6.536 -0.6538  0.5983  0.2883
   40MOL   C82843026   7.700   2.617   6.670  1.3336  0.3404 -0.2324
   40MOL   C82943027   7.727   2.766   6.690 -0.5920  0.0725  0.1903
   40MOL   C83043028   7.550   2.612   6.680 -0.1476  0.5062 -0.4991
   40MOL   C83143029   7.768   2.536   6.788 -0.1161  0.4427  0.1398
   40MOL   C83243030   7.725   2.406   6.807 -0.0949  0.4927 -0.4972
   40MOL   C83343031   7.780   2.324   6.908  0.9898  0.7157 -0.8366
   40MOL   C83443032   7.887   2.377   6.990  0.7270 -0.0148 -0.3616
   40MOL   O83543033   7.946   2.299   7.082  0.3749  0.1974 -0.0956
   40MOL   C83643034   7.930   2.509   6.972  0.2632  0.3348 -0.1599
   40MOL   C83743035   7.866   2.592   6.875 -0.4160  0.0327 -0.8453
   40MOL   C83843036   7.704   2.532   6.419  0.1568  0.6002 -0.5449
   40MOL   C83943037   7.768   2.469   6.313 -0.3356 -0.7844  0.0314
   40MOL   C84043038   7.885   2.402   5.998 -0.2449 -0.5155  0.8495
   40MOL   C84143039   7.898   2.464   5.870 -0.6878 -0.2474 -0.2440
   40MOL   C84243040   7.930   2.901   5.625 -0.5890 -0.1425 -0.9578
   40MOL   C84343041   7.839   3.004   5.614  0.0411  0.3223  0.2162
   40MOL   H84443042   7.576   2.865   5.785  0.3948 -2.4951  0.2322
   40MOL   H84543043   7.721   2.681   5.798 -2.6215  0.5721 -0.1820
   40MOL   H84643044   8.155   2.680   5.947 -0.8044  0.8038  0.7791
   40MOL   H84743045   8.147   2.563   6.153 -0.8412  0.5798 -0.6180
   40MOL   H84843046   8.085   2.485   6.430 -0.3807  1.8786  2.5070
   40MOL   H84943047   7.974   2.602   6.607 -0.5817  1.0183 -0.8377
   40MOL   H85043048   7.834   2.781   6.703 -0.5844  0.1697  0.0101
   40MOL   H85143049   7.677   2.813   6.775  0.0905  3.5060 -1.2169
   40MOL   H85243050   7.690   2.811   6.598  1.0682  0.4044 -0.3177
   40MOL   H85343051   7.495   2.660   6.599 -0.6419  0.1135 -0.4010
   40MOL   H85443052   7.516   2.508   6.678  0.9823  0.1414 -2.5515
   40MOL   H85543053   7.513   2.664   6.768 -0.5899  0.6004 -0.7374
   40MOL   H85643054   7.653   2.356   6.745  0.0649  0.2168 -0.4591
   40MOL   H85743055   7.758   2.218   6.910  0.1632  0.8870 -0.7222
   40MOL   H85843056   8.000   2.550   7.043 -1.0287  3.1926 -0.4794
   40MOL   H85943057   7.906   2.691   6.891  1.2821 -0.9546  1.1907
   40MOL   H86043058   7.597   2.543   6.417  0.2432  1.3985 -0.9330
   40MOL   H86143059   7.710   2.448   6.224  0.4289  0.7755 -0.8542
   40MOL   H86243060   7.819   2.318   6.014  2.4500 -3.0895 -0.8779
   40MOL   H86343061   7.826   2.437   5.794  0.4487 -0.7293 -1.1621
   40MOL   H86443062   8.029   2.910   5.581 -0.4697 -0.3875 -0.7395
   40MOL   H86543063   7.858   3.085   5.546  0.8985 -1.9469 -2.3345
   40MOL   C86643064   8.056   2.228   7.046 -0.4930 -0.3252  0.3447
   40MOL   C86743065   8.185   2.284   7.062  0.1932  0.4593  0.8066
   40MOL   C86843066   0.044   2.224   7.004 -0.4140 -0.4620  0.1316
   40MOL   C86943067   0.035   2.100   6.940  0.7440  0.2024 -0.0762
   40MOL   S87043068   0.178   2.030   6.859  0.4383 -0.2648 -0.0186
   40MOL   O87143069   0.289   2.122   6.893  0.3325  0.3559 -0.1691
   40MOL   O87243070   0.148   1.995   6.720 -0.3909  0.3130 -0.0175
   40MOL   C87343071   0.209   1.869   6.951  0.7569  0.5986 -0.2470
   40MOL   C87443072   0.306   1.863   7.046 -0.1551  0.7140  0.4607
   40MOL   C87543073   0.330   1.745   7.123 -0.3154 -0.3830 -0.3756
   40MOL   C87643074   0.247   1.629   7.105  0.4551 -0.6348  0.8853
   40MOL   O87743075   0.269   1.510   7.166 -0.8894  0.0997 -0.3152
   40MOL   C87843076   0.176   1.457   7.257  0.0109  0.1174  0.1938
   40MOL   C87943077   0.170   1.513   7.385  0.1831  0.0389  0.4637
   40MOL   C88043078   0.078   1.453   7.475  0.1385  0.3525 -0.3377
   40MOL   C88143079   0.009   1.336   7.444 -0.5583 -0.4612  0.4205
   40MOL   C88243080   8.180   1.259   7.546 -0.1133  0.3033 -0.6429
   40MOL   C88343081   8.242   1.121   7.573 -0.1451 -0.6112  0.2347
   40MOL   C88443082   8.159   1.341   7.676 -0.1263  0.5525  0.1767
   40MOL   C88543083   8.039   1.238   7.490  0.0307 -0.6367  0.1896
   40MOL   C88643084   7.978   1.349   7.429  0.5521 -0.3749 -0.9192
   40MOL   C88743085   7.853   1.342   7.367  0.4410 -0.9275  0.9322
   40MOL   C88843086   7.782   1.223   7.374  0.2676 -0.5950  0.6583
   40MOL   O88943087   7.655   1.209   7.314 -0.3776  0.0502  0.1243
   40MOL   C89043088   7.834   1.114   7.437 -0.3881  0.4782  0.2334
   40MOL   C89143089   7.964   1.118   7.494 -0.0435 -0.3639  0.4235
   40MOL   C89243090   0.013   1.289   7.314  0.2782  0.6605 -0.3680
   40MOL   C89343091   0.098   1.348   7.223 -0.4672  0.6588 -0.1926
   40MOL   C89443092   0.150   1.637   7.007  0.4956  0.1781 -0.0285
   40MOL   C89543093   0.126   1.752   6.933 -0.6112  0.3559  0.7094
   40MOL   C89643094   8.159   2.036   6.925  0.1849 -0.5270 -0.0716
   40MOL   C89743095   8.040   2.111   6.971 -0.0372  0.0062 -0.3171
   40MOL   H89843096   8.204   2.370   7.123  0.1934 -2.4372  5.1420
   40MOL   H89943097   0.143   2.266   7.016 -1.2297  1.5840 -0.0895
   40MOL   H90043098   0.376   1.944   7.060  0.5586  0.3384 -0.8792
   40MOL   H90143099   0.408   1.746   7.198 -1.0141 -3.3134  0.4401
   40MOL   H90243100   0.230   1.598   7.414 -0.1086  0.4403 -0.0919
   40MOL   H90343101   0.081   1.497   7.573  1.1177  1.4376 -0.8454
   40MOL   H90443102   0.089   1.157   7.596 -0.1668 -0.6145  0.3367
   40MOL   H90543103   8.248   1.053   7.488  1.0457  0.8507 -0.8648
   40MOL   H90643104   8.203   1.065   7.658 -1.8479  0.2048  0.0223
   40MOL   H90743105   8.080   1.312   7.746  0.8953  0.4254  1.2840
   40MOL   H90843106   8.248   1.340   7.739  0.4046 -1.4987 -0.5614
   40MOL   H90943107   8.134   1.446   7.655 -0.3725  0.3303 -0.6814
   40MOL   H91043108   8.019   1.448   7.444 -0.2774 -0.4449  2.1761
   40MOL   H91143109   7.802   1.426   7.323  1.1884 -1.1240 -0.3203
   40MOL   H91243110   7.795   1.014   7.440 -0.3102  0.4712  0.9672
   40MOL   H91343111   7.993   1.030   7.550 -1.9861 -0.0917  1.9086
   40MOL   H91443112   8.230   1.191   7.285 -1.1718  1.6577 -2.0590
   40MOL   H91543113   0.113   1.313   7.122  0.3075 -2.0566  0.8452
   40MOL   H91643114   0.080   1.556   6.995  0.2789  0.2172  0.9671
   40MOL   H91743115   0.038   1.765   6.871  1.7386  1.0282 -2.6159
   40MOL   H91843116   8.145   1.944   6.870  1.0940 -1.0861  0.6245
   40MOL   H91943117   7.946   2.066   6.943 -0.1348 -0.3856  0.6065
   40MOL   C92043118   7.549   1.250   7.387 -0.3557  0.0829  0.3087
   40MOL   C92143119   7.484   1.366   7.344  0.3695 -0.3861 -0.0153
   40MOL   C92243120   7.364   1.416   7.412 -0.5160 -0.2093 -0.4957
   40MOL   C92343121   7.312   1.332   7.521 -0.2685  0.0024  0.6086
   40MOL   S92443122   7.157   1.366   7.597 -0.1094  0.0190 -0.3719
   40MOL   O92543123   7.138   1.276   7.706 -0.4301 -0.2921 -0.1146
   40MOL   O92643124   7.058   1.372   7.491 -0.1956  0.2094  0.0712
   40MOL   C92743125   7.187   1.528   7.658  0.2824  0.3854  0.2316
   40MOL   C92843126   7.239   1.553   7.789  0.3009 -0.9226  0.3371
   40MOL   C92943127   7.235   1.688   7.837  0.4135 -0.0419  0.4391
   40MOL   C93043128   7.181   1.795   7.754 -0.2291  0.3245  0.3410
   40MOL   O93143129   7.185   1.925   7.801 -0.4422 -0.0325 -0.2862
   40MOL   C93243130   7.095   2.021   7.759  0.4377 -0.4422 -1.3350
   40MOL   C93343131   6.959   2.001   7.738 -0.4211 -0.8165  0.2810
   40MOL   C93443132   6.868   2.099   7.698  0.4794  0.3271 -1.2302
   40MOL   C93543133   6.921   2.227   7.664 -0.7478  0.2023 -0.0607
   40MOL   C93643134   6.825   2.339   7.625 -0.1788  0.1129  1.2907
   40MOL   C93743135   6.686   2.293   7.569 -0.6265 -0.0502 -0.0294
   40MOL   C93843136   6.790   2.406   7.765  0.5023 -0.6306 -0.0782
   40MOL   C93943137   6.890   2.431   7.520 -0.0516 -0.7122  0.7946
   40MOL   C94043138   6.945   2.384   7.397  0.2335 -0.6115 -0.5986
   40MOL   C94143139   7.002   2.473   7.300  1.4259 -0.1258  0.1116
   40MOL   C94243140   7.004   2.609   7.332 -0.0843 -0.1897  0.4278
   40MOL   O94343141   7.077   2.697   7.254 -0.3288 -0.2414  0.4693
   40MOL   C94443142   6.918   2.658   7.437 -0.3103 -0.3037 -0.3573
   40MOL   C94543143   6.870   2.570   7.535 -0.0221 -0.8014  0.3122
   40MOL   C94643144   7.058   2.255   7.687  0.1456 -0.2832  0.4643
   40MOL   C94743145   7.143   2.153   7.726 -0.4792 -0.0634  0.3325
   40MOL   C94843146   7.139   1.768   7.623 -0.6575  0.3111 -0.0492
   40MOL   C94943147   7.134   1.635   7.574  0.0325  0.0559 -0.0446
   40MOL   C95043148   7.379   1.214   7.558  0.4387 -0.4638 -1.0106
   40MOL   C95143149   7.492   1.175   7.495 -0.0826  0.2663  0.3282
   40MOL   H95243150   7.529   1.420   7.262 -1.1481  0.3980 -0.3510
   40MOL   H95343151   7.313   1.504   7.376  0.0218  0.1767 -0.3286
   40MOL   H95443152   7.275   1.474   7.853  1.0496 -0.1259  0.9145
   40MOL   H95543153   7.269   1.710   7.937  0.7884 -0.4806  0.4138
   40MOL   H95643154   6.920   1.902   7.757  1.9471 -1.7183  0.6533
   40MOL   H95743155   6.761   2.080   7.702  0.3609  0.6546 -2.7932
   40MOL   H95843156   6.705   2.229   7.482 -1.7183  1.8197 -1.7076
   40MOL   H95943157   6.628   2.384   7.550 -2.2408 -0.8955  0.6954
   40MOL   H96043158   6.622   2.243   7.641 -1.0970 -2.0837 -1.8097
   40MOL   H96143159   6.718   2.484   7.745  0.8680 -0.6215 -1.4120
   40MOL   H96243160   6.730   2.337   7.824 -0.1445 -1.9797 -2.2552
   40MOL   H96343161   6.891   2.430   7.799  0.2265 -0.0414  0.3227
   40MOL   H96443162   6.963   2.278   7.384  4.1062 -0.0528 -0.4101
   40MOL   H96543163   7.060   2.446   7.213  1.0107  1.6733 -0.7428
   40MOL   H96643164   6.903   2.764   7.452  1.7055 -0.1795  1.1199
   40MOL   H96743165   6.818   2.614   7.619 -2.1580 -1.4904 -0.6296
   40MOL   H96843166   7.109   2.346   7.659  0.3233 -0.0686  1.4585
   40MOL   H96943167   7.247   2.178   7.737 -0.8235  0.9737  1.2476
   40MOL   H97043168   7.091   1.846   7.565 -2.3422 -1.0600 -0.5380
   40MOL   H97143169   7.081   1.613   7.482  0.0737 -0.5173  0.0686
   40MOL   H97243170   7.350   1.154   7.643  1.8688 -0.9978 -0.8834
   40MOL   H97343171   7.545   1.083   7.515 -0.1808  0.2626  0.5722
   40MOL   C97443172   7.043   2.722   7.120  0.0885 -0.3892  0.4072
   40MOL   C97543173   7.142   2.725   7.020  0.0773  0.7748  0.2648
   40MOL   C97643174   7.113   2.754   6.885  0.1143  0.0074  0.3640
   40MOL   C97743175   6.981   2.778   6.854 -0.1872 -0.0859 -0.1401
   40MOL   S97843176   6.945   2.802   6.682 -0.3313  0.2554  0.4468
   40MOL   O97943177   6.807   2.758   6.657 -0.1760  0.5822  0.1017
   40MOL   O98043178   7.049   2.732   6.606 -0.0240  0.2617 -0.5454
   40MOL   C98143179   6.958   2.981   6.655 -0.1726  0.1706 -0.4368
   40MOL   C98243180   6.908   3.036   6.533 -0.0379  0.2219  0.2256
   40MOL   C98343181   6.920   3.176   6.515 -0.1951  0.0871  1.4339
   40MOL   C98443182   6.965   3.257   6.616  0.2595 -0.6733  0.3343
   40MOL   O98543183   6.964   3.391   6.598  0.0408 -1.1775 -0.1588
   40MOL   C98643184   7.079   3.461   6.567  0.2664 -0.1246 -0.4883
   40MOL   C98743185   7.172   3.494   6.667 -0.2145 -0.3495 -0.3183
   40MOL   C98843186   7.283   3.580   6.628  0.2687  0.2427 -0.9246
   40MOL   C98943187   7.314   3.615   6.495  0.2255  0.5644  0.8540
   40MOL   C99043188   7.441   3.699   6.467 -0.4768  0.6452  1.3025
   40MOL   C99143189   7.561   3.612   6.496  0.3973  0.2618  0.4875
   40MOL   C99243190   7.450   3.740   6.312 -0.0382 -0.5851 -0.0299
   40MOL   C99343191   7.447   3.830   6.548  0.0073  0.0148 -0.4162
   40MOL   C99443192   7.326   3.898   6.561 -0.2587  0.3452  0.2366
   40MOL   C99543193   7.325   4.022   6.631  0.5218 -0.0519 -0.4556
   40MOL   C99643194   7.435   4.071   6.703  0.1237  0.4095  0.1426
   40MOL   O99743195   7.423   4.176   6.791 -0.2390  0.6637 -0.3932
   40MOL   C99843196   7.551   3.993   6.689 -0.1926 -0.1362  0.2100
   40MOL   C99943197   7.562   3.877   6.613 -0.4689  0.0701  0.5857
   40MOL     C143198   7.216   3.580   6.402 -0.4443 -0.1545 -0.4265
   40MOL     C243199   7.099   3.506   6.436  0.2025  0.2720  0.9666
   40MOL     C343200   7.013   3.203   6.743 -0.3057  0.3832 -0.1829
   40MOL     C443201   7.009   3.065   6.758  0.3064 -0.0909 -0.0352
   40MOL     C543202   6.877   2.779   6.951 -0.1032 -0.4557  0.0331
   40MOL     C643203   6.909   2.758   7.088  0.5239 -0.1552 -0.9016
   40MOL     H743204   7.241   2.705   7.057 -0.7191  1.9364  3.1340
   40MOL     H843205   7.184   2.742   6.804 -0.8267 -3.0822 -0.0885
   40MOL     H943206   6.860   2.974   6.459 -0.7409 -1.2577  1.8818
   40MOL    H1043207   6.876   3.217   6.425 -0.6327  0.6752  1.9166
   40MOL    H1143208   7.171   3.468   6.772 -0.4621 -1.3692 -0.5647
   40MOL    H1243209   7.343   3.621   6.708 -0.6809 -1.7735  0.8742
   40MOL    H1343210   7.558   3.586   6.602  1.7932  0.5156  0.5950
   40MOL    H1443211   7.649   3.672   6.475 -1.2819  2.5168 -0.2707
   40MOL    H1543212   7.562   3.524   6.431 -0.1449  2.8257 -3.1313
   40MOL    H1643213   7.363   3.799   6.285 -0.4472 -1.3297 -0.3362
   40MOL    H1743214   7.530   3.808   6.281 -2.1519  1.7429 -0.5268
   40MOL    H1843215   7.441   3.649   6.252  0.2766  0.2534 -1.3873
   40MOL    H1943216   7.231   3.884   6.511 -0.1852  0.8439 -0.0558
   40MOL    H2043217   7.230   4.072   6.644  0.0190 -1.5492  2.0654
   40MOL    H2143218   7.641   4.021   6.740 -0.2480  0.7339 -0.1628
   40MOL    H2243219   7.657   3.827   6.612 -0.2319  0.5057 -1.2905
   40MOL    H2343220   7.236   3.605   6.299  0.7065 -1.1751 -0.4550
   40MOL    H2443221   7.034   3.475   6.356  0.9723  0.8306  0.1158
   40MOL    H2543222   7.043   3.264   6.827  0.1192 -1.1453  0.7896
   40MOL    H2643223   7.035   3.027   6.856 -1.5019 -0.9907  0.1170
   40MOL    H2743224   6.773   2.796   6.929  0.5575  1.9171 -1.5123
   40MOL    H2843225   6.833   2.765   7.164  0.6601 -0.0566 -0.7730
   40MOL    C2943226   7.506   4.283   6.786  0.2009  0.4875  0.3622
   40MOL    C3043227   7.462   4.402   6.713 -0.4921 -0.2939 -0.0122
   40MOL    C3143228   7.537   4.521   6.731 -0.1062  0.2153  0.8006
   40MOL    C3243229   7.650   4.518   6.813 -0.1887  0.3498 -0.0570
   40MOL    S3343230   7.724   4.674   6.848  0.1705 -0.1485 -0.0292
   40MOL    O3443231   7.719   4.699   6.994  0.6188  1.3821 -0.0528
   40MOL    O3543232   7.665   4.766   6.755  0.1803  0.4122  0.4139
   40MOL    C3643233   7.888   4.634   6.789 -0.2012  1.0000 -0.0405
   40MOL    C3743234   7.934   4.634   6.654 -0.2234 -0.6445 -1.0403
   40MOL    C3843235   8.068   4.606   6.622 -0.3428  0.6451 -0.3737
   40MOL    C3943236   8.151   4.560   6.725 -0.0740  0.0530 -0.5561
   40MOL    O4043237   0.028   4.528   6.692  0.0367  0.0985 -0.0401
   40MOL    C4143238   0.112   4.467   6.787 -0.7279  0.5171 -0.7036
   40MOL    C4243239   0.085   4.332   6.818 -1.0210 -0.4624 -0.3400
   40MOL    C4343240   0.126   4.276   6.936  0.3904 -0.2462 -0.7319
   40MOL    C4443241   0.209   4.348   7.024 -0.2129  0.2633 -0.4493
   40MOL    C4543242   0.241   4.289   7.163 -0.6600  0.1300 -0.3922
   40MOL    C4643243   0.215   4.137   7.172 -0.4725 -0.2097 -0.2915
   40MOL    C4743244   0.388   4.307   7.202 -0.5622 -0.3151  0.1084
   40MOL    C4843245   0.147   4.352   7.267 -0.7906 -0.0307  0.4556
   40MOL    C4943246   0.039   4.440   7.230 -0.2848  0.4151  0.3242
   40MOL    C5043247   8.200   4.485   7.324 -0.5321 -0.5852  0.2375
   40MOL    C5143248   8.222   4.460   7.458  0.5258  0.0184 -0.0572
   40MOL    O5243249   8.137   4.491   7.562  0.2426  0.5412 -0.3604
   40MOL    C5343250   0.088   4.393   7.496  0.1913  0.3419 -0.4267
   40MOL    C5443251   0.179   4.338   7.405  0.4256 -0.5836  0.1328
   40MOL    C5543252   0.256   4.471   6.988  0.3345  0.7925  0.1483
   40MOL    C5643253   0.197   4.536   6.876  0.4960  0.2877 -0.2593
   40MOL    C5743254   8.101   4.551   6.855  0.0084  0.3347 -0.2044
   40MOL    C5843255   7.977   4.604   6.893  0.1630  0.1931 -0.4464
   40MOL    C5943256   7.703   4.398   6.872  1.4325  0.3618 -0.4338
   40MOL    C6043257   7.627   4.279   6.858 -0.2737  0.2213 -0.5351
   40MOL    H6143258   7.360   4.407   6.677 -0.1111  1.9425 -0.8163
   40MOL    H6243259   7.483   4.608   6.696 -1.2703 -1.2191 -1.1045
   40MOL    H6343260   7.858   4.670   6.587  0.7231  1.7902 -0.8372
   40MOL    H6443261   8.105   4.605   6.521 -0.0785  1.5302 -0.2822
   40MOL    H6543262   0.017   4.270   6.760  1.8903 -3.2832 -0.8556
   40MOL    H6643263   0.082   4.180   6.958  1.4669 -1.1010 -2.2133
   40MOL    H6743264   0.244   4.098   7.270 -0.7077  2.3752  0.8584
   40MOL    H6843265   0.288   4.098   7.102  0.6995 -1.0367  1.3646
   40MOL    H6943266   0.116   4.106   7.138  0.0371 -0.9481 -1.1048
   40MOL    H7043267   0.421   4.411   7.213  1.7800 -0.8912 -0.9458
   40MOL    H7143268   0.427   4.249   7.285  3.0909  0.1811 -1.1342
   40MOL    H7243269   0.457   4.269   7.126 -1.2163 -1.2184 -0.0344
   40MOL    H7343270   0.018   4.463   7.127  4.3643 -1.7729 -1.2635
   40MOL    H7443271   8.109   4.527   7.283 -0.9754 -0.0260  1.7526
   40MOL    H7543272   0.108   4.385   7.601  0.1530  1.4404 -0.3327
   40MOL    H7643273   0.269   4.283   7.426 -0.2120 -1.2551  1.1470
   40MOL    H7743274   0.336   4.519   7.043  0.3665  1.2020 -0.2469
   40MOL    H7843275   0.222   4.639   6.853  1.2146 -0.2341 -1.8868
   40MOL    H7943276   8.166   4.529   6.938 -1.9972  3.0533  2.2092
   40MOL    H8043277   7.948   4.595   6.997  0.2723  0.7838 -0.3611
   40MOL    H8143278   7.786   4.402   6.941  0.9576 -0.6902  0.2005
   40MOL    H8243279   7.659   4.189   6.909 -1.0455 -1.2446 -2.5551
   40MOL    H8343280   8.155   4.450   7.645 -2.0601  1.3191  0.5462
   41MOL     C143281   0.815   2.714   4.292  0.1040  0.0108 -0.3193
   41MOL     C243282   0.742   2.630   4.375 -0.5783  0.1964  0.2529
   41MOL     C343283   0.813   2.523   4.435  0.0875  0.1097 -0.3358
   41MOL     C443284   0.952   2.509   4.423 -0.6978  0.2291  0.0342
   41MOL     S543285   1.043   2.382   4.496 -0.1996  0.3244 -0.1461
   41MOL     O643286   1.144   2.343   4.399 -0.1275  0.4882  0.0766
   41MOL     O743287   0.953   2.275   4.533  0.2436  0.1483 -0.2289
   41MOL     C843288   1.127   2.451   4.635  0.0107 -0.6784 -0.2162
   41MOL     C943289   1.185   2.364   4.725  0.0590 -0.2371 -0.3696
   41MOL    C1043290   1.215   2.408   4.850  0.1970 -0.0224 -0.1621
   41MOL    C1143291   1.189   2.543   4.886 -0.1101 -0.6182 -0.0795
   41MOL    O1243292   1.221   2.588   5.015  0.0671 -0.5500 -0.0061
   41MOL    C1343293   1.302   2.692   5.031  0.7292  0.5580 -0.3997
   41MOL    C1443294   1.248   2.820   5.060 -0.1845  0.8909 -0.2184
   41MOL    C1543295   1.334   2.936   5.055  0.3454  0.8279  0.7006
   41MOL    C1643296   1.476   2.914   5.039  0.4554 -0.0690  0.1073
   41MOL    C1743297   1.572   3.039   5.041  0.2626  0.4954 -0.8708
   41MOL    C1843298   1.538   3.128   4.915  0.1406 -0.1961 -0.2882
   41MOL    C1943299   1.550   3.124   5.168 -0.8612  0.3570  0.1136
   41MOL    C2043300   1.723   3.008   5.016 -0.1078  0.4328 -0.2392
   41MOL    C2143301   1.831   3.060   5.090 -0.4670  0.1245 -0.3164
   41MOL    C2243302   1.970   3.044   5.058  0.1679 -0.6923  0.5440
   41MOL    C2343303   2.002   2.969   4.944 -0.0450 -0.9111 -0.7994
   41MOL    O2443304   2.135   2.952   4.905  0.2594  0.2082 -0.2967
   41MOL    C2543305   1.896   2.919   4.865  0.3910  0.1765 -0.3573
   41MOL    C2643306   1.759   2.927   4.903 -1.1873 -0.5428 -0.6103
   41MOL    C2743307   1.527   2.783   5.026 -0.3407 -0.3891 -0.5050
   41MOL    C2843308   1.442   2.675   5.028 -0.0772  0.2071 -0.3591
   41MOL    C2943309   1.132   2.631   4.796  0.1537  0.2256  0.4400
   41MOL    C3043310   1.107   2.586   4.663 -0.3600  0.2854  0.8444
   41MOL    C3143311   1.020   2.602   4.345 -0.6852  0.0612  0.3101
   41MOL    C3243312   0.950   2.705   4.284 -0.4712 -0.0110 -0.8153
   41MOL    H3343313   0.637   2.633   4.401 -0.4082  0.9505  0.8782
   41MOL    H3443314   0.766   2.452   4.500  1.4982 -0.6517 -0.1214
   41MOL    H3543315   1.178   2.256   4.716 -0.8880 -0.0635 -1.8381
   41MOL    H3643316   1.264   2.338   4.915  2.0771  2.5216  1.2387
   41MOL    H3743317   1.143   2.839   5.074 -0.0627  1.6106 -0.2599
   41MOL    H3843318   1.278   3.027   5.072  0.5429  0.9187  0.8556
   41MOL    H3943319   1.610   3.207   4.892 -0.1511 -0.0840 -0.8100
   41MOL    H4043320   1.441   3.177   4.912  0.1249 -0.1935  0.2413
   41MOL    H4143321   1.534   3.071   4.823 -0.8965  1.5912 -1.3692
   41MOL    H4243322   1.446   3.136   5.199 -1.5635 -2.4042 -1.0963
   41MOL    H4343323   1.592   3.067   5.251 -3.4684 -0.2039  1.0872
   41MOL    H4443324   1.600   3.221   5.175  1.5248 -0.8443  0.1432
   41MOL    H4543325   1.812   3.116   5.180 -0.7723 -0.5942  0.0739
   41MOL    H4643326   2.047   3.089   5.119  0.1668  2.2821 -1.5966
   41MOL    H4743327   1.929   2.867   4.776  2.4743 -0.5491  0.8146
   41MOL    H4843328   1.691   2.881   4.833  0.0310 -0.5456 -1.8143
   41MOL    H4943329   1.634   2.769   5.031 -0.4000 -0.0693  1.7897
   41MOL    H5043330   1.487   2.578   5.014  2.5612  1.3137  0.2843
   41MOL    H5143331   1.106   2.728   4.836  1.4517  0.4081  0.8803
   41MOL    H5243332   1.057   2.658   4.599 -0.7982 -0.0284  0.8342
   41MOL    H5343333   1.127   2.594   4.337 -0.7092  0.7796 -0.8053
   41MOL    H5443334   1.008   2.774   4.224  0.3776 -1.2394 -1.4256
   41MOL    H5543335   0.757   2.792   4.245  1.6770  1.0760 -0.5208
   41MOL    C5643336   2.167   2.954   4.773  0.6047  0.0898  0.3788
   41MOL    C5743337   2.273   2.865   4.733 -0.0548 -0.4972  0.8097
   41MOL    C5843338   2.329   2.886   4.603 -1.0652 -0.8376 -0.2562
   41MOL    C5943339   2.280   2.990   4.520  0.0558 -0.4744  0.0687
   41MOL    S6043340   2.335   2.973   4.354  0.0976  0.0613 -0.0466
   41MOL    O6143341   2.481   2.979   4.361  0.4233 -0.1759  0.0945
   41MOL    O6243342   2.271   3.072   4.270  0.1106 -0.0024 -0.4201
   41MOL    C6343343   2.278   2.817   4.294 -0.0020 -0.6746 -0.0452
   41MOL    C6443344   2.144   2.771   4.308  0.2628  0.1505 -0.1991
   41MOL    C6543345   2.110   2.645   4.257  0.2415  0.5243 -0.5197
   41MOL    C6643346   2.197   2.574   4.174  0.4192  0.9737  0.4156
   41MOL    O6743347   2.150   2.460   4.114  0.0531  0.4684 -0.9706
   41MOL    C6843348   2.160   2.465   3.978  0.1542 -0.1356  0.9480
   41MOL    C6943349   2.106   2.566   3.891 -0.2209  0.2095 -0.1487
   41MOL    C7043350   2.136   2.567   3.752  0.0486  0.3228  0.0348
   41MOL    C7143351   2.228   2.476   3.701 -0.3444 -0.3554  0.0234
   41MOL    C7243352   2.294   2.493   3.555 -0.1686 -0.4505  0.4540
   41MOL    C7343353   2.268   2.639   3.508 -0.4951 -0.2120 -0.1185
   41MOL    C7443354   2.451   2.470   3.568 -0.7026 -0.2547 -0.5863
   41MOL    C7543355   2.240   2.396   3.442 -0.0413  0.2993 -0.2760
   41MOL    C7643356   2.158   2.283   3.471  0.2673 -0.3225  0.0538
   41MOL    C7743357   2.112   2.197   3.366 -0.5011  0.9007 -0.0540
   41MOL    C7843358   2.165   2.214   3.234 -0.4057 -0.2071  0.1524
   41MOL    O7943359   2.108   2.134   3.138  0.0207 -0.1893  0.3947
   41MOL    C8043360   2.251   2.315   3.205 -0.2622  0.3572  0.5002
   41MOL    C8143361   2.282   2.409   3.304 -0.7058  0.2027  0.1165
   41MOL    C8243362   2.265   2.365   3.777 -0.3869  0.0693 -0.7273
   41MOL    C8343363   2.233   2.363   3.909 -0.3404  0.3500 -0.3795
   41MOL    C8443364   2.322   2.633   4.153  0.0887 -0.0172 -0.0740
   41MOL    C8543365   2.363   2.749   4.213  0.3542 -0.0636 -0.2726
   41MOL    C8643366   2.194   3.088   4.572  0.2141  0.7584 -0.4757
   41MOL    C8743367   2.124   3.059   4.687  0.2376 -0.0946  0.1951
   41MOL    H8843368   2.307   2.795   4.808  0.6064 -0.3042  0.6867
   41MOL    H8943369   2.400   2.812   4.567 -1.0529 -0.0155 -1.9532
   41MOL    H9043370   2.079   2.833   4.369  2.2904  1.5974  0.5501
   41MOL    H9143371   2.007   2.619   4.272 -0.9442  5.7801  1.3113
   41MOL    H9243372   2.049   2.649   3.930  2.3294  1.6916  0.5052
   41MOL    H9343373   2.099   2.651   3.695 -1.7610 -0.1889  0.4128
   41MOL    H9443374   2.162   2.665   3.504 -0.5977 -0.4489  0.9590
   41MOL    H9543375   2.323   2.663   3.417 -1.8241  1.7119 -0.4433
   41MOL    H9643376   2.310   2.710   3.580  0.0451 -1.0692  0.4291
   41MOL    H9743377   2.498   2.539   3.638 -0.4425  0.7302 -1.7108
   41MOL    H9843378   2.476   2.365   3.582  2.5060  0.6839  1.0509
   41MOL    H9943379   2.492   2.499   3.472 -2.8267 -1.1574 -1.8093
   41MOL   H10043380   2.115   2.271   3.570 -1.8862  0.1104 -0.7961
   41MOL   H10143381   2.036   2.124   3.390 -0.3538  0.7289 -0.1087
   41MOL   H10243382   2.265   2.346   3.103 -1.2926  0.7238  0.4625
   41MOL   H10343383   2.353   2.481   3.266 -0.8580  1.0561  1.4287
   41MOL   H10443384   2.324   2.284   3.736  0.6638  2.1691 -3.4940
   41MOL   H10543385   2.275   2.287   3.972 -1.3253  0.6701  0.6753
   41MOL   H10643386   2.376   2.589   4.070 -0.9631 -0.0863 -0.7429
   41MOL   H10743387   2.451   2.791   4.167 -0.4621  1.0229 -0.8606
   41MOL   H10843388   2.165   3.173   4.512 -0.3708  2.2446  1.8564
   41MOL   H10943389   2.050   3.125   4.731  0.7731 -0.2471  1.3509
   41MOL   C11043390   2.165   2.007   3.112  0.3359 -0.1819 -0.3181
   41MOL   C11143391   2.099   1.917   3.030  0.2446 -1.0165  0.4648
   41MOL   C11243392   2.151   1.794   2.991 -0.4775 -0.0975  0.6975
   41MOL   C11343393   2.280   1.764   3.033 -0.5822  0.2196 -0.4694
   41MOL   S11443394   2.346   1.602   2.990  0.2689 -0.6448  0.1058
   41MOL   O11543395   2.244   1.524   2.911  0.1343 -0.2477 -0.4827
   41MOL   O11643396   2.401   1.532   3.109  0.4195 -0.4169 -0.5568
   41MOL   C11743397   2.480   1.634   2.874  0.0629 -0.0222  0.1918
   41MOL   C11843398   2.459   1.717   2.759  0.3677  0.2908  0.4952
   41MOL   C11943399   2.569   1.732   2.663  0.2706  0.3269  0.2460
   41MOL   C12043400   2.694   1.668   2.689  0.2402 -0.5207  0.0986
   41MOL   O12143401   2.800   1.698   2.603  0.2607 -0.1861  0.6006
   41MOL   C12243402   2.924   1.721   2.662 -0.2846  0.4975 -0.2750
   41MOL   C12343403   3.043   1.665   2.608 -0.4772 -0.1921 -0.0301
   41MOL   C12443404   3.168   1.688   2.667 -1.2928  0.3843  0.5161
   41MOL   C12543405   3.181   1.796   2.761 -0.6460  0.4891  0.2694
   41MOL   C12643406   3.320   1.856   2.788  0.3891 -0.8549 -0.5711
   41MOL   C12743407   3.343   1.940   2.658 -0.1974 -0.1826 -0.1094
   41MOL   C12843408   3.321   1.957   2.903 -0.1731  0.0392 -0.6173
   41MOL   C12943409   3.431   1.748   2.809 -0.2493  0.2926  0.6979
   41MOL   C13043410   3.550   1.732   2.730  0.0523 -0.3744 -0.4010
   41MOL   C13143411   3.632   1.619   2.764 -0.2791 -0.0582 -0.2486
   41MOL   C13243412   3.603   1.535   2.867  0.2941 -0.3605 -0.0333
   41MOL   O13343413   3.693   1.437   2.887 -0.1653  0.0371 -0.7380
   41MOL   C13443414   3.491   1.553   2.944  0.5325  0.0236  0.0715
   41MOL   C13543415   3.412   1.662   2.919  0.0639 -0.4285 -0.0241
   41MOL   C13643416   3.064   1.855   2.807 -0.5324 -0.0816  0.5221
   41MOL   C13743417   2.936   1.816   2.763 -0.5368 -0.2257 -0.3143
   41MOL   C13843418   2.705   1.578   2.793  0.3047 -0.3191  0.5877
   41MOL   C13943419   2.599   1.566   2.886  0.2139  0.4378 -0.2395
   41MOL   C14043420   2.365   1.857   3.104 -1.0717  0.4519  0.2393
   41MOL   C14143421   2.301   1.975   3.138  0.2039  0.5142  0.2002
   41MOL   H14243422   1.999   1.946   2.999  0.7670 -1.1423 -1.3910
   41MOL   H14343423   2.104   1.718   2.931 -0.1461 -1.1167  1.7271
   41MOL   H14443424   2.365   1.769   2.747 -0.2320 -0.8489  0.1433
   41MOL   H14543425   2.570   1.796   2.576  0.1329 -0.1198 -0.0841
   41MOL   H14643426   3.039   1.594   2.526 -0.7863 -0.3894  0.1529
   41MOL   H14743427   3.253   1.638   2.625 -2.0758 -1.4239  1.0389
   41MOL   H14843428   3.270   2.021   2.644  1.3551  1.4125  0.7757
   41MOL   H14943429   3.342   1.876   2.570  1.4065 -0.4579  0.0715
   41MOL   H15043430   3.437   1.995   2.669  0.0215 -0.5894  0.0453
   41MOL   H15143431   3.243   2.032   2.887  0.7241  1.1391  0.1895
   41MOL   H15243432   3.306   1.908   2.999  2.0707 -0.9279 -0.7342
   41MOL   H15343433   3.417   2.006   2.911 -0.6735  1.2208 -1.5509
   41MOL   H15443434   3.566   1.798   2.645 -1.6654  1.2898  0.5365
   41MOL   H15543435   3.728   1.606   2.717 -2.0750  0.5133 -4.2770
   41MOL   H15643436   3.464   1.484   3.022 -1.5972  1.0408  0.2641
   41MOL   H15743437   3.327   1.676   2.985  0.6310 -0.8056  0.8013
   41MOL   H15843438   3.069   1.946   2.864  1.8497 -0.0324  0.2540
   41MOL   H15943439   2.848   1.868   2.799  0.5822  0.6779  1.1929
   41MOL   H16043440   2.796   1.521   2.798  3.8007  4.9301 -0.0317
   41MOL   H16143441   2.608   1.500   2.970 -0.4183  2.3924  1.4126
   41MOL   H16243442   2.464   1.828   3.136 -0.4078  0.3962 -1.7997
   41MOL   H16343443   2.349   2.060   3.185 -0.5269  1.1469 -0.2027
   41MOL   C16443444   3.645   1.309   2.874 -0.7890  0.4414  0.4552
   41MOL   C16543445   3.601   1.238   2.986  0.2331 -0.0516  0.4602
   41MOL   C16643446   3.553   1.104   2.977 -0.4500  0.1128 -0.5690
   41MOL   C16743447   3.548   1.048   2.850  0.0197  0.8956 -0.0741
   41MOL   S16843448   3.515   0.877   2.838 -0.0355 -0.2268 -0.4019
   41MOL   O16943449   3.498   0.820   2.974  0.5391 -0.7197 -0.9165
   41MOL   O17043450   3.627   0.825   2.759  0.1130  0.3687 -0.2136
   41MOL   C17143451   3.362   0.858   2.745 -1.3579  0.4602 -0.0553
   41MOL   C17243452   3.366   0.894   2.610  1.1140 -0.1467  0.7192
   41MOL   C17343453   3.241   0.881   2.541  0.8831 -0.1522  0.0095
   41MOL   C17443454   3.121   0.840   2.605  0.3155  0.0250 -0.4728
   41MOL   O17543455   3.000   0.822   2.545 -0.0574  0.5640  0.3906
   41MOL   C17643456   2.938   0.939   2.507  0.6572  0.6859 -0.4635
   41MOL   C17743457   2.962   0.993   2.383 -0.6256 -0.2367 -0.0414
   41MOL   C17843458   2.900   1.116   2.343 -0.1564  0.0111  0.0062
   41MOL   C17943459   2.794   1.169   2.419  0.2698 -0.3510 -0.5541
   41MOL   C18043460   2.719   1.297   2.381  0.8316  0.4530  0.1100
   41MOL   C18143461   2.797   1.412   2.443  0.0641  0.5483 -0.0309
   41MOL   C18243462   2.714   1.319   2.229 -0.2392  0.6256  0.3287
   41MOL   C18343463   2.576   1.298   2.441 -0.0233 -1.0624 -1.0878
   41MOL   C18443464   2.549   1.337   2.579 -0.1879 -0.3251  0.0872
   41MOL   C18543465   2.418   1.330   2.627  0.5259  0.1691  0.2644
   41MOL   C18643466   2.310   1.295   2.545 -0.0109  0.0620 -0.0494
   41MOL   O18743467   2.178   1.300   2.579 -0.5283 -0.0921 -0.6290
   41MOL   C18843468   2.336   1.270   2.410  0.3356 -0.1314  0.0419
   41MOL   C18943469   2.468   1.267   2.359 -0.3329 -0.0448 -0.0341
   41MOL   C19043470   2.767   1.106   2.542 -0.2832  0.1292 -0.3062
   41MOL   C19143471   2.832   0.990   2.585  0.0503 -0.5272  0.0714
   41MOL   C19243472   3.122   0.813   2.741  0.0454 -0.1168 -1.0815
   41MOL   C19343473   3.243   0.819   2.811 -0.4750 -0.0575  0.0805
   41MOL   C19443474   3.597   1.117   2.734  0.2069  0.1999  0.0140
   41MOL   C19543475   3.645   1.248   2.745 -0.1800 -0.5509  0.2754
   41MOL   H19643476   3.607   1.281   3.085 -0.4508  0.2521  0.3676
   41MOL   H19743477   3.524   1.046   3.063 -1.1203  1.9634  0.4848
   41MOL   H19843478   3.460   0.931   2.571  0.5232  2.1103  1.4101
   41MOL   H19943479   3.226   0.909   2.437 -0.2678 -0.1860  0.1632
   41MOL   H20043480   3.047   0.951   2.331 -0.5586 -1.4060  1.0070
   41MOL   H20143481   2.936   1.157   2.249 -0.4149 -0.1948 -0.1820
   41MOL   H20243482   2.753   1.511   2.430 -1.1499  0.3683  2.5255
   41MOL   H20343483   2.900   1.411   2.407 -0.2315  2.5947 -1.0206
   41MOL   H20443484   2.798   1.395   2.550 -1.1308 -0.3833 -0.1693
   41MOL   H20543485   2.666   1.417   2.215 -0.0762  0.2993 -3.0587
   41MOL   H20643486   2.817   1.333   2.196 -0.6011  0.9640 -0.7011
   41MOL   H20743487   2.667   1.239   2.171 -1.6311  1.8488 -0.2745
   41MOL   H20843488   2.624   1.371   2.649 -0.0822 -0.8867  0.2474
   41MOL   H20943489   2.407   1.359   2.731  0.8634 -0.1969  0.4049
   41MOL   H21043490   2.257   1.242   2.341 -0.5283  3.9831 -0.7685
   41MOL   H21143491   2.480   1.235   2.256  0.7781  0.1736  0.0266
   41MOL   H21243492   2.683   1.126   2.606  0.8474  0.0347  1.2533
   41MOL   H21343493   2.796   0.939   2.673 -1.6262  2.2750  1.1127
   41MOL   H21443494   3.028   0.791   2.789 -0.8687  1.6223 -2.0293
   41MOL   H21543495   3.257   0.808   2.918 -0.5665 -1.7137 -0.0624
   41MOL   H21643496   3.614   1.063   2.642 -0.4078 -1.6685  0.9661
   41MOL   H21743497   3.680   1.304   2.659  2.8427 -2.3150  0.2989
   41MOL   C21843498   2.123   1.197   2.643  0.2151  0.3073 -0.3447
   41MOL   C21943499   2.117   1.065   2.587  0.4088  0.4703  0.6234
   41MOL   C22043500   2.050   0.959   2.648  0.6127 -0.4838  0.0930
   41MOL   C22143501   1.981   0.984   2.771 -0.6700  0.2299 -0.3263
   41MOL   S22243502   1.868   0.845   2.829 -0.0463  0.1754 -0.2052
   41MOL   O22343503   1.849   0.751   2.716  0.4611  0.2905 -0.4992
   41MOL   O22443504   1.747   0.900   2.900  0.6590 -0.5338 -0.0495
   41MOL   C22543505   1.970   0.753   2.944  0.1326 -0.3105 -0.2910
   41MOL   C22643506   1.965   0.783   3.084  0.3434 -0.3419 -0.3956
   41MOL   C22743507   2.035   0.699   3.178 -0.3685 -0.1117  0.5477
   41MOL   C22843508   2.100   0.584   3.134  0.4078 -1.3270  0.1187
   41MOL   O22943509   2.164   0.505   3.224  0.1146 -0.0138  0.2983
   41MOL   C23043510   2.290   0.547   3.273  0.6456  0.1563 -0.0243
   41MOL   C23143511   2.403   0.563   3.192 -0.0077  0.6913  0.3635
   41MOL   C23243512   2.517   0.634   3.234  0.7077 -0.1089  0.6079
   41MOL   C23343513   2.527   0.685   3.365 -0.0401  0.4952 -0.6298
   41MOL   C23443514   2.657   0.760   3.408  0.8822  0.0464 -0.5503
   41MOL   C23543515   2.744   0.645   3.460 -0.1925 -0.1062 -0.5070
   41MOL   C23643516   2.726   0.829   3.284  0.1648  0.8293  0.5713
   41MOL   C23743517   2.623   0.865   3.512 -0.2003 -0.1918 -0.0547
   41MOL   C23843518   2.530   0.967   3.476  0.0165 -0.2382 -0.2570
   41MOL   C23943519   2.473   1.054   3.574 -0.1868 -0.3706 -0.5689
   41MOL   C24043520   2.517   1.048   3.705  0.1390 -0.3986  0.8281
   41MOL   O24143521   2.466   1.134   3.797 -0.1465 -0.0230 -0.4448
   41MOL   C24243522   2.600   0.942   3.740 -0.6907  0.3379  0.6087
   41MOL   C24343523   2.656   0.852   3.648 -0.6294  0.3018 -0.1874
   41MOL   C24443524   2.417   0.661   3.453  0.3385 -0.1198 -0.4023
   41MOL   C24543525   2.299   0.598   3.405 -0.0036 -0.5611  0.4527
   41MOL   C24643526   2.103   0.548   2.994 -0.1114  0.1466 -0.5947
   41MOL   C24743527   2.039   0.633   2.898 -0.1481 -0.1582  0.4254
   41MOL   C24843528   1.980   1.113   2.826 -0.1453  0.2318 -0.1161
   41MOL   C24943529   2.062   1.221   2.768 -0.0067 -0.1561 -0.0710
   41MOL   H25043530   2.155   1.046   2.488  0.1894  2.2571  0.1838
   41MOL   H25143531   2.050   0.858   2.610 -2.1692 -0.9421  1.1263
   41MOL   H25243532   1.913   0.875   3.109  1.0656  0.4079 -1.6118
   41MOL   H25343533   2.017   0.725   3.282  2.1680  1.7827  0.5438
   41MOL   H25443534   2.388   0.554   3.085  0.7833  2.2094  0.1205
   41MOL   H25543535   2.591   0.649   3.157 -1.7235 -0.4183 -1.8781
   41MOL   H25643536   2.750   0.561   3.391 -0.2849 -0.2847 -0.2986
   41MOL   H25743537   2.702   0.607   3.553 -0.8806  1.5044 -0.1315
   41MOL   H25843538   2.847   0.673   3.483 -0.0957 -1.1040  0.3217
   41MOL   H25943539   2.667   0.905   3.233  2.2344 -1.0829 -4.9826
   41MOL   H26043540   2.813   0.876   3.330  0.1169  0.8406  0.6502
   41MOL   H26143541   2.758   0.759   3.207  1.2420  0.7476  1.0738
   41MOL   H26243542   2.499   0.969   3.373 -2.0341 -0.1278  0.3319
   41MOL   H26343543   2.398   1.124   3.539 -1.6592 -1.6613 -0.0973
   41MOL   H26443544   2.632   0.923   3.841  2.1862  0.8430 -0.1767
   41MOL   H26543545   2.715   0.772   3.689 -1.1680  0.1569  0.3028
   41MOL   H26643546   2.421   0.699   3.554  0.1498 -0.5232 -0.2400
   41MOL   H26743547   2.222   0.601   3.481  0.0055  2.8031  0.4317
   41MOL   H26843548   2.160   0.463   2.959  1.1234  1.2901 -1.3840
   41MOL   H26943549   2.030   0.616   2.792  2.4112 -1.2399  0.3336
   41MOL   H27043550   1.913   1.126   2.910 -0.0395  0.0776 -0.0066
   41MOL   H27143551   2.062   1.322   2.804  1.6825  0.8306 -2.6516
   41MOL   C27243552   2.541   1.239   3.853  0.2444  0.7432 -0.1221
   41MOL   C27343553   2.626   1.324   3.779  0.5607 -0.5239 -0.3634
   41MOL   C27443554   2.686   1.441   3.842 -0.7022  0.2665 -0.1731
   41MOL   C27543555   2.648   1.478   3.976 -0.1428  0.0337 -0.5973
   41MOL   S27643556   2.715   1.619   4.052  0.0815  0.2134 -0.1364
   41MOL   O27743557   2.796   1.690   3.950 -0.2185  0.4848  0.3790
   41MOL   O27843558   2.781   1.568   4.171  0.0408 -0.3244  0.1028
   41MOL   C27943559   2.584   1.725   4.104 -0.5567 -1.0480 -0.2714
   41MOL   C28043560   2.538   1.719   4.240  0.6914  0.6655  0.2246
   41MOL   C28143561   2.417   1.777   4.270 -0.6597 -0.3339  0.1955
   41MOL   C28243562   2.352   1.852   4.173 -0.2911  0.1641 -0.2849
   41MOL   O28343563   2.235   1.918   4.210  0.4203  0.4618  0.3123
   41MOL   C28443564   2.134   1.936   4.116 -0.2071 -0.6747 -0.1629
   41MOL   C28543565   2.091   1.831   4.036  0.5128 -0.5889 -0.5965
   41MOL   C28643566   1.995   1.852   3.935 -0.0450 -0.5151 -0.1521
   41MOL   C28743567   1.961   1.986   3.901  0.1123  0.6259 -0.4787
   41MOL   C28843568   1.873   2.009   3.780  0.5590 -0.5984  0.1147
   41MOL   C28943569   1.729   1.964   3.816 -0.4796 -0.2543 -0.4522
   41MOL   C29043570   1.867   2.156   3.752 -0.6250  0.2047  0.2707
   41MOL   C29143571   1.924   1.947   3.656 -0.1501  0.3103 -0.4788
   41MOL   C29243572   2.063   1.951   3.627  0.5994 -0.1905  0.0207
   41MOL   C29343573   2.110   1.873   3.524 -0.2802 -0.2695  0.5327
   41MOL   C29443574   2.025   1.817   3.425 -0.1921  0.8823  0.1534
   41MOL   O29543575   2.073   1.768   3.308  0.1653 -0.3340  0.3587
   41MOL   C29643576   1.890   1.819   3.448  0.3854 -0.4437  0.1413
   41MOL   C29743577   1.840   1.884   3.564 -0.5870 -0.1582 -0.3585
   41MOL   C29843578   2.011   2.092   3.980  0.2253 -0.1949 -0.2205
   41MOL   C29943579   2.094   2.064   4.090  0.5411  0.0185 -0.4480
   41MOL   C30043580   2.404   1.864   4.043  0.2662  0.5161 -0.1648
   41MOL   C30143581   2.523   1.801   4.005 -0.2504 -0.4956 -0.0818
   41MOL   C30243582   2.572   1.383   4.053 -0.4126 -0.2807  0.4265
   41MOL   C30343583   2.524   1.264   3.992  0.0086 -0.2036 -0.4296
   41MOL   H30443584   2.645   1.314   3.673  2.0814  2.5700 -0.4609
   41MOL   H30543585   2.743   1.509   3.780 -0.8797 -0.8564 -1.5942
   41MOL   H30643586   2.591   1.656   4.311  3.4234  1.9468 -0.5876
   41MOL   H30743587   2.370   1.775   4.368 -2.0548 -1.2411 -0.4724
   41MOL   H30843588   2.121   1.728   4.054 -0.9682 -1.3112 -2.1394
   41MOL   H30943589   1.959   1.770   3.873  0.9581 -0.6293 -0.5906
   41MOL   H31043590   1.659   1.996   3.739  0.7636  1.1032 -1.0446
   41MOL   H31143591   1.695   2.005   3.911 -0.2044 -0.8535 -0.0891
   41MOL   H31243592   1.713   1.858   3.833 -0.8798 -0.1915 -0.4372
   41MOL   H31343593   1.968   2.193   3.731 -0.5256  0.3989  1.0709
   41MOL   H31443594   1.808   2.176   3.663 -1.2888 -1.5432  0.3116
   41MOL   H31543595   1.822   2.221   3.828  2.4288  1.3101  1.2188
   41MOL   H31643596   2.128   1.994   3.702 -1.3221  1.2877  0.8905
   41MOL   H31743597   2.217   1.876   3.507  0.0910  1.5198  2.8733
   41MOL   H31843598   1.833   1.776   3.367  1.0149  0.2478 -0.6807
   41MOL   H31943599   1.732   1.881   3.569 -0.6678  0.8374 -1.2001
   41MOL   H32043600   1.980   2.194   3.963 -0.0743 -0.2036  0.2683
   41MOL   H32143601   2.129   2.147   4.150 -0.6720 -0.4385  0.9145
   41MOL   H32243602   2.360   1.932   3.971  0.1809 -0.7167 -1.3021
   41MOL   H32343603   2.556   1.798   3.902 -2.4628 -1.8451 -0.7978
   41MOL   H32443604   2.536   1.405   4.153  1.0471  1.3774  0.6050
   41MOL   H32543605   2.457   1.199   4.047  0.5292  1.6606  2.5632
   41MOL   C32643606   2.091   1.636   3.289  0.1047 -0.8616  0.2015
   41MOL   C32743607   2.184   1.558   3.361  0.0290  0.0437 -1.1886
   41MOL   C32843608   2.197   1.415   3.342 -0.8291  0.3230 -0.1076
   41MOL   C32943609   2.108   1.348   3.253  0.7049 -0.1846 -0.2247
   41MOL   S33043610   2.100   1.166   3.240 -0.2287  0.3856  0.2635
   41MOL   O33143611   1.983   1.124   3.162 -0.7402 -0.4602  0.5518
   41MOL   O33243612   2.115   1.126   3.380  0.5306 -0.0317  0.6969
   41MOL   C33343613   2.241   1.116   3.144 -0.4535  0.1983 -0.1826
   41MOL   C33443614   2.297   1.203   3.050  0.6803 -0.1519  0.2390
   41MOL   C33543615   2.411   1.159   2.975  0.4358  0.4142  0.4304
   41MOL   C33643616   2.459   1.033   2.989 -0.2064  1.0747 -0.3539
   41MOL   O33743617   2.563   0.991   2.908  0.5873 -0.0322 -0.3554
   41MOL   C33843618   2.689   1.043   2.924  1.1173  0.4901 -0.1435
   41MOL   C33943619   2.721   1.176   2.886 -0.3315 -0.3040  0.1714
   41MOL   C34043620   2.846   1.233   2.914  0.3501  0.6086 -0.2018
   41MOL   C34143621   2.945   1.158   2.980 -0.6415  0.0651 -1.0288
   41MOL   C34243622   3.082   1.218   3.000 -0.5007 -0.1111  0.0257
   41MOL   C34343623   3.058   1.349   3.088  0.6034 -0.4465 -0.0790
   41MOL   C34443624   3.178   1.128   3.080 -0.0409  0.1089  0.0798
   41MOL   C34543625   3.143   1.247   2.859  0.3284 -0.6455 -0.0676
   41MOL   C34643626   3.107   1.167   2.744  0.1383 -0.3230  0.3425
   41MOL   C34743627   3.171   1.188   2.622 -0.5636  0.4406  0.7632
   41MOL   C34843628   3.271   1.290   2.607  0.0489  0.4840  0.7652
   41MOL   O34943629   3.327   1.317   2.481 -0.1637  0.0538  0.4648
   41MOL   C35043630   3.302   1.373   2.719  0.1176  0.9719 -0.3752
   41MOL   C35143631   3.246   1.343   2.844  1.1604  0.2448 -0.1428
   41MOL   C35243632   2.917   1.020   3.005 -0.5237  0.0164  0.1340
   41MOL   C35343633   2.789   0.966   2.979  0.3057  0.3744 -0.0523
   41MOL   C35443634   2.403   0.943   3.080  0.4359 -0.6064 -1.1993
   41MOL   C35543635   2.295   0.990   3.163  0.0072 -0.4526  0.2447
   41MOL   C35643636   2.013   1.426   3.183  0.0633  0.3581 -0.0848
   41MOL   C35743637   2.006   1.568   3.198 -0.1716  0.9617 -0.4050
   41MOL   H35843638   2.247   1.608   3.433  0.3344  1.6968 -2.5882
   41MOL   H35943639   2.257   1.351   3.405  1.2444  2.1337 -0.1858
   41MOL   H36043640   2.259   1.303   3.036 -1.3368 -0.7835  1.0019
   41MOL   H36143641   2.455   1.225   2.901 -1.5551  1.5792  0.2422
   41MOL   H36243642   2.647   1.238   2.838 -2.2326 -2.6690 -0.0103
   41MOL   H36343643   2.862   1.336   2.889 -0.8049  0.3601 -2.0203
   41MOL   H36443644   2.997   1.327   3.177 -1.2817  1.1043 -0.9509
   41MOL   H36543645   3.013   1.425   3.025  0.4284 -0.9794 -0.6075
   41MOL   H36643646   3.148   1.398   3.123  1.6849 -2.8275  0.6267
   41MOL   H36743647   3.279   1.164   3.096 -0.4866  1.2091  0.4571
   41MOL   H36843648   3.136   1.121   3.180 -0.8332 -0.4523 -0.2798
   41MOL   H36943649   3.179   1.028   3.038  3.3950 -0.2059  0.7991
   41MOL   H37043650   3.039   1.084   2.750  1.4511 -1.5931 -1.7182
   41MOL   H37143651   3.144   1.132   2.534  0.9554 -0.2448  0.7167
   41MOL   H37243652   3.364   1.461   2.725  0.7663  0.4580  0.4564
   41MOL   H37343653   3.288   1.402   2.924 -1.0836  0.6194  0.7962
   41MOL   H37443654   2.987   0.952   3.052 -0.1409 -0.8914 -1.7227
   41MOL   H37543655   2.776   0.861   3.000  2.6712  0.2581  0.9283
   41MOL   H37643656   2.441   0.843   3.099 -0.0871 -0.5418  0.2635
   41MOL   H37743657   2.248   0.941   3.247 -1.7948 -1.1264 -1.1357
   41MOL   H37843658   1.953   1.372   3.110  0.3999 -0.8314  0.4964
   41MOL   H37943659   1.933   1.633   3.153 -0.3279  1.3364  0.3844
   41MOL   C38043660   3.276   1.417   2.400 -0.2637 -0.3849  0.0054
   41MOL   C38143661   3.165   1.393   2.322 -0.6322  0.2599 -0.3820
   41MOL   C38243662   3.100   1.491   2.239 -0.3552  0.3215  0.5079
   41MOL   C38343663   3.156   1.621   2.232 -0.4224  0.3792 -0.5220
   41MOL   S38443664   3.068   1.746   2.142  0.0493  0.3422  0.2493
   41MOL   O38543665   2.952   1.683   2.077 -0.7185  0.5983  0.2144
   41MOL   O38643666   3.159   1.810   2.053  0.0676 -0.2056 -0.1404
   41MOL   C38743667   3.001   1.877   2.254  0.1993 -0.5006  0.5493
   41MOL   C38843668   2.890   1.950   2.209  0.1982  1.0843 -0.1263
   41MOL   C38943669   2.838   2.052   2.289  0.0720 -0.2170  0.5210
   41MOL   C39043670   2.893   2.071   2.416  0.5206 -0.9355  0.6389
   41MOL   O39143671   2.848   2.164   2.501  0.1110 -0.1623 -0.2565
   41MOL   C39243672   2.718   2.169   2.531  0.5734  0.1919  0.1900
   41MOL   C39343673   2.662   2.084   2.627 -0.1348 -0.7349  0.2556
   41MOL   C39443674   2.527   2.094   2.663  0.0719  0.4894 -0.0010
   41MOL   C39543675   2.435   2.183   2.600 -0.6894  0.2938  0.7828
   41MOL   C39643676   2.291   2.203   2.648 -0.1072  0.2740  0.0485
   41MOL   C39743677   2.200   2.192   2.528  0.0650  0.3788 -0.4955
   41MOL   C39843678   2.241   2.098   2.747  0.4013 -0.6469 -0.3983
   41MOL   C39943679   2.289   2.341   2.716 -0.1957  0.0456 -0.2576
   41MOL   C40043680   2.242   2.453   2.647 -0.3775  0.2626  0.4708
   41MOL   C40143681   2.257   2.579   2.705 -0.0131  0.4502  0.0399
   41MOL   C40243682   2.328   2.598   2.821 -0.3539 -0.0863  0.0355
   41MOL   O40343683   2.328   2.723   2.875 -1.0673  0.1480 -0.4906
   41MOL   C40443684   2.375   2.485   2.889  0.2428  0.0754 -0.0228
   41MOL   C40543685   2.351   2.356   2.844  0.2797  0.5498  0.0977
   41MOL   C40643686   2.490   2.264   2.499 -0.3511  0.9663  0.5962
   41MOL   C40743687   2.626   2.251   2.462 -0.0092 -0.1412 -0.6949
   41MOL   C40843688   3.004   1.996   2.458  0.0091 -0.3122  0.3649
   41MOL   C40943689   3.061   1.901   2.377  0.2348  0.4783  0.4858
   41MOL   C41043690   3.283   1.642   2.301 -0.6312  0.5938 -0.3073
   41MOL   C41143691   3.342   1.542   2.380  0.4560 -0.8670  0.4519
   41MOL   H41243692   3.116   1.296   2.327  0.9249 -0.4545  1.5952
   41MOL   H41343693   3.006   1.466   2.192  0.0978  1.6501 -1.1596
   41MOL   H41443694   2.844   1.913   2.119 -1.5271 -0.5843  1.3856
   41MOL   H41543695   2.752   2.109   2.255 -0.2585 -1.6291 -1.0581
   41MOL   H41643696   2.730   2.021   2.683 -2.3871 -2.7577  0.8143
   41MOL   H41743697   2.490   2.032   2.744  0.4025  2.0684  1.3854
   41MOL   H41843698   2.220   2.096   2.480  0.2535 -0.1699  0.6576
   41MOL   H41943699   2.220   2.266   2.451  0.6213 -0.3582 -1.0675
   41MOL   H42043700   2.099   2.205   2.568 -0.1208  0.0207 -0.8470
   41MOL   H42143701   2.234   2.006   2.689  2.6419 -1.5772  0.7836
   41MOL   H42243702   2.292   2.081   2.841 -0.1743  1.7092  0.3761
   41MOL   H42343703   2.138   2.124   2.775  1.3586  0.4558  2.2294
   41MOL   H42443704   2.181   2.449   2.558 -1.3534 -0.4033  1.1455
   41MOL   H42543705   2.208   2.657   2.648 -0.2139 -0.2293 -0.7273
   41MOL   H42643706   2.428   2.480   2.983 -0.5358  0.6323  0.4572
   41MOL   H42743707   2.384   2.270   2.900 -1.7055  1.6442  3.0149
   41MOL   H42843708   2.422   2.330   2.448  0.4838  0.0987 -1.7059
   41MOL   H42943709   2.653   2.312   2.378 -2.0505  0.8913 -0.6437
   41MOL   H43043710   3.053   2.012   2.552 -0.0500 -0.6694  0.4560
   41MOL   H43143711   3.149   1.846   2.408  2.3115  1.6574 -3.0678
   41MOL   H43243712   3.352   1.723   2.282  0.9271 -0.9474 -1.4665
   41MOL   H43343713   3.441   1.564   2.418  0.9988 -1.3913 -0.6410
   41MOL   C43443714   2.416   2.815   2.832  0.1330 -0.3971 -0.6225
   41MOL   C43543715   2.375   2.911   2.740 -0.0993 -0.2607 -0.0904
   41MOL   C43643716   2.469   2.990   2.675  0.0699 -0.3292  0.0400
   41MOL   C43743717   2.602   2.987   2.720 -0.3297  0.5155 -0.2483
   41MOL   S43843718   2.727   3.115   2.673 -0.2695  0.5012 -0.0833
   41MOL   O43943719   2.821   3.131   2.787 -0.4227  0.7644 -0.2040
   41MOL   O44043720   2.657   3.233   2.624  0.8623  0.1294  0.2933
   41MOL   C44143721   2.823   3.047   2.541  0.3986  0.3154 -0.2021
   41MOL   C44243722   2.952   3.013   2.567 -0.3912 -0.9862 -0.2360
   41MOL   C44343723   3.019   2.929   2.475  0.9993  0.2194  0.0041
   41MOL   C44443724   2.953   2.890   2.355  0.1462  0.4228  0.2487
   41MOL   O44543725   3.024   2.805   2.266 -0.0468 -0.0983 -0.0846
   41MOL   C44643726   3.006   2.823   2.131 -0.1625  0.6863  0.4826
   41MOL   C44743727   2.958   2.728   2.048  0.1660  0.2889  0.0961
   41MOL   C44843728   2.958   2.753   1.910 -0.3312  0.2237 -0.0121
   41MOL   C44943729   3.004   2.874   1.863 -0.0512 -0.2973  0.1955
   41MOL   C45043730   2.988   2.918   1.719 -0.0063  0.2334 -0.2819
   41MOL   C45143731   2.944   2.810   1.614 -0.1670 -0.1080 -0.1960
   41MOL   C45243732   2.878   3.027   1.704  0.4805 -0.6034  0.0820
   41MOL   C45343733   3.132   2.967   1.672 -0.3493 -0.3622 -1.0387
   41MOL   C45443734   3.246   2.877   1.679  0.8858 -0.0909 -0.7455
   41MOL   C45543735   3.374   2.918   1.648 -0.0433  0.1062 -0.1859
   41MOL   C45643736   3.392   3.045   1.598  0.5537  0.0478  0.2858
   41MOL   O45743737   3.519   3.078   1.561  0.0792 -0.4536 -0.8069
   41MOL   C45843738   3.287   3.136   1.575  0.1380  0.9614  0.2628
   41MOL   C45943739   3.155   3.093   1.615  0.3606  0.1953 -0.1966
   41MOL   C46043740   3.052   2.975   1.954 -0.2392 -0.1400 -0.3593
   41MOL   C46143741   3.054   2.947   2.086 -0.6771 -0.5739 -0.5699
   41MOL   C46243742   2.826   2.931   2.330  0.1192 -0.1098  1.0895
   41MOL   C46343743   2.757   3.013   2.425 -0.8017  0.5232  0.2512
   41MOL   C46443744   2.644   2.903   2.824 -0.1012  0.3109  0.0155
   41MOL   C46543745   2.553   2.815   2.881 -0.2053  0.6488  0.4110
   41MOL   H46643746   2.276   2.916   2.697 -0.2082  2.5384  0.3616
   41MOL   H46743747   2.436   3.055   2.596  1.5218 -0.4854 -0.7116
   41MOL   H46843748   3.005   3.046   2.655 -0.8625 -0.2450 -0.2273
   41MOL   H46943749   3.119   2.895   2.498  0.9036  1.1520  1.8482
   41MOL   H47043750   2.924   2.635   2.091  1.8303 -1.1740 -1.6497
   41MOL   H47143751   2.913   2.674   1.851 -0.0919 -0.2751  0.4625
   41MOL   H47243752   2.843   2.768   1.613 -0.3382  0.3127 -1.9615
   41MOL   H47343753   3.012   2.726   1.602  2.0292  1.4381  1.1763
   41MOL   H47443754   2.959   2.863   1.520 -1.9593 -0.1463 -0.5191
   41MOL   H47543755   2.896   3.119   1.760  0.8323 -0.5881 -0.0556
   41MOL   H47643756   2.852   3.057   1.602 -3.0656 -0.9957  0.8016
   41MOL   H47743757   2.784   2.992   1.745 -2.5962  5.9352 -0.6508
   41MOL   H47843758   3.232   2.779   1.721  0.3443  0.0082 -0.6838
   41MOL   H47943759   3.461   2.855   1.656 -0.5267 -0.4581  0.6603
   41MOL   H48043760   3.301   3.231   1.526  0.4991  0.6231 -0.2917
   41MOL   H48143761   3.074   3.164   1.605  0.4770  0.2766 -0.5806
   41MOL   H48243762   3.084   3.072   1.920  1.5655 -0.3513  0.6746
   41MOL   H48343763   3.086   3.021   2.158 -4.4553 -0.7134  1.3768
   41MOL   H48443764   2.778   2.897   2.239  1.1752  0.4523  0.3101
   41MOL   H48543765   2.656   3.044   2.404 -1.0204 -0.8987 -0.8480
   41MOL   H48643766   2.744   2.911   2.864 -0.3147 -0.7420  0.7806
   41MOL   H48743767   2.585   2.745   2.956 -2.3629 -0.7543  0.0779
   41MOL   C48843768   3.568   3.077   1.428  0.2599 -0.8168  0.0102
   41MOL   C48943769   3.551   2.969   1.343 -0.0704  0.3233 -0.3237
   41MOL   C49043770   3.589   2.981   1.207 -0.3297  0.1787  0.1086
   41MOL   C49143771   3.660   3.096   1.162  0.6212 -0.0237  0.1060
   41MOL   S49243772   3.723   3.106   0.994 -0.0364 -0.1666 -0.1430
   41MOL   O49343773   3.683   2.981   0.920 -0.2515 -0.2151 -0.3994
   41MOL   O49443774   3.867   3.148   1.002 -0.1912 -0.5155  0.1084
   41MOL   C49543775   3.638   3.244   0.908 -0.3571 -0.4223  0.4099
   41MOL   C49643776   3.692   3.288   0.789 -0.2257  0.8198 -0.1249
   41MOL   C49743777   3.623   3.391   0.721 -1.0900  0.1194  0.3482
   41MOL   C49843778   3.510   3.451   0.774  0.3764  0.7682  0.0827
   41MOL   O49943779   3.442   3.546   0.694 -0.3687 -0.4017 -0.2527
   41MOL   C50043780   3.490   3.675   0.697 -0.3492 -0.1970  0.1528
   41MOL   C50143781   3.612   3.703   0.638 -0.2885 -0.1554 -0.0439
   41MOL   C50243782   3.659   3.837   0.626  0.2420  0.0410  0.2451
   41MOL   C50343783   3.588   3.938   0.694  0.2748  0.9925  0.8097
   41MOL   C50443784   3.656   4.075   0.709 -0.1831 -0.0335 -0.4687
   41MOL   C50543785   3.549   4.181   0.753 -0.3532  0.8043 -0.4809
   41MOL   C50643786   3.765   4.063   0.813 -0.7815 -0.3362 -0.3105
   41MOL   C50743787   3.709   4.118   0.576  0.1398  0.0842  0.0995
   41MOL   C50843788   3.619   4.117   0.470 -0.5525 -0.2181  0.0737
   41MOL   C50943789   3.662   4.167   0.341  0.2290 -0.2847 -0.0843
   41MOL   C51043790   3.795   4.212   0.319  0.1110 -0.2349  0.1189
   41MOL   O51143791   3.839   4.254   0.194 -0.2749 -0.3399  0.2684
   41MOL   C51243792   3.884   4.200   0.427  0.1490 -0.1957 -0.6712
   41MOL   C51343793   3.846   4.152   0.553  0.0918  0.4072  0.0577
   41MOL   C51443794   3.465   3.905   0.754 -0.0534 -0.3621 -0.0088
   41MOL   C51543795   3.411   3.776   0.751 -0.0741 -1.0948 -0.1572
   41MOL   C51643796   3.457   3.402   0.892  0.4905  0.2249 -0.4373
   41MOL   C51743797   3.515   3.290   0.956  0.4116 -0.3056 -0.3236
   41MOL   C51843798   3.678   3.207   1.250  0.4935  0.3058  0.1883
   41MOL   C51943799   3.625   3.196   1.375 -0.2632 -0.1847  0.5356
   41MOL   H52043800   3.499   2.879   1.371 -1.5075  0.4506 -2.4507
   41MOL   H52143801   3.570   2.908   1.130  0.4816  0.4150 -0.3217
   41MOL   H52243802   3.778   3.232   0.756  0.0898  2.4239 -2.1725
   41MOL   H52343803   3.644   3.417   0.618  4.7314  0.2227  1.3545
   41MOL   H52443804   3.666   3.619   0.596 -3.4246 -1.8492 -0.8449
   41MOL   H52543805   3.752   3.851   0.574 -0.6024  1.7914 -0.8375
   41MOL   H52643806   3.509   4.157   0.851  0.8560 -0.8816 -0.3785
   41MOL   H52743807   3.468   4.185   0.680  0.1649  2.5118 -0.9932
   41MOL   H52843808   3.596   4.277   0.774 -0.7554  0.3341  2.8693
   41MOL   H52943809   3.718   4.046   0.910 -0.9914 -3.2927 -0.8665
   41MOL   H53043810   3.832   3.978   0.801 -0.9747 -0.7067  1.1414
   41MOL   H53143811   3.829   4.150   0.823 -0.2409 -0.6571 -0.9549
   41MOL   H53243812   3.518   4.078   0.474 -0.8229  0.5866  1.1933
   41MOL   H53343813   3.594   4.165   0.258  0.3963 -2.2553 -0.1801
   41MOL   H53443814   3.987   4.230   0.418  0.5758 -1.1144  0.9398
   41MOL   H53543815   3.923   4.149   0.629  0.2973  0.1693 -0.1618
   41MOL   H53643816   3.405   3.985   0.796 -0.4036 -0.8961  0.5189
   41MOL   H53743817   3.306   3.760   0.771 -0.5963  2.1253 -0.0481
   41MOL   H53843818   3.364   3.441   0.932  0.1945 -0.1428 -0.7531
   41MOL   H53943819   3.484   3.253   1.053 -3.8605 -1.0649 -1.8802
   41MOL   H54043820   3.721   3.300   1.217  0.4014  0.0330 -0.7110
   41MOL   H54143821   3.639   3.282   1.439 -0.2021  0.7997 -0.7822
   41MOL   C54243822   3.876   4.391   0.189 -0.2873  0.3911  0.2916
   41MOL   C54343823   3.785   4.491   0.170 -0.2182 -0.3893  0.4371
   41MOL   C54443824   3.828   4.624   0.147  0.2774  0.3219 -0.4459
   41MOL   C54543825   3.970   4.658   0.155  0.4605 -0.0482 -0.1891
   41MOL   S54643826   4.025   4.826   0.128 -0.0712  0.0504 -0.1894
   41MOL   O54743827   4.121   4.853   0.232 -0.2818 -0.0166 -0.8296
   41MOL   O54843828   3.903   4.907   0.114 -0.7906  0.7280 -0.9244
   41MOL   C54943829   4.105   4.815   8.224 -0.1907 -0.9318 -0.5449
   41MOL   C55043830   4.034   4.790   8.105 -0.6149 -0.7897 -0.2245
   41MOL   C55143831   4.100   4.784   7.984  0.1024 -0.5260 -0.9493
   41MOL   C55243832   4.240   4.798   7.981  1.0410  0.2180 -0.2923
   41MOL   O55343833   4.300   4.797   7.858  0.4266  0.4403  0.4198
   41MOL   C55443834   4.429   4.746   7.851  0.4249 -0.8844 -0.0278
   41MOL   C55543835   4.536   4.817   7.785  0.2226  0.3226 -0.1784
   41MOL   C55643836   4.666   4.767   7.779  0.2525  0.4700 -0.4310
   41MOL   C55743837   4.685   4.634   7.817 -0.6833 -0.1784 -0.6161
   41MOL   C55843838   4.827   4.566   7.795  0.2297  0.0234  0.5028
   41MOL   C55943839   4.895   4.607   7.666  0.2909 -0.1317  0.1217
   41MOL   C56043840   4.923   4.602   7.905  0.0280  0.0967  0.3885
   41MOL   C56143841   4.810   4.413   7.778  0.2371 -0.5007  0.6280
   41MOL   C56243842   4.744   4.352   7.666 -0.3379 -0.9223  1.1477
   41MOL   C56343843   4.742   4.220   7.654  0.1226  0.8772 -0.5865
   41MOL   C56443844   4.778   4.134   7.760 -0.5592 -0.3222  0.2563
   41MOL   O56543845   4.763   4.001   7.736  0.5207  0.0574 -0.5864
   41MOL   C56643846   4.837   4.184   7.873 -0.7439 -0.4771 -0.0549
   41MOL   C56743847   4.852   4.326   7.879  0.1754 -0.7560  0.3914
   41MOL   C56843848   4.582   4.565   7.880 -0.1009  0.1408 -0.1149
   41MOL   C56943849   4.455   4.621   7.910  0.0359 -0.5506 -0.2743
   41MOL   C57043850   4.312   4.827   8.100 -0.0403 -0.3506 -0.2839
   41MOL   C57143851   4.241   4.834   8.225  0.6114  0.7232  0.2410
   41MOL   C57243852   4.062   4.555   0.169  0.9473  0.9797  0.0996
   41MOL   C57343853   4.012   4.423   0.192  0.0026 -0.9057 -0.3696
   41MOL   H57443854   3.681   4.466   0.182 -0.7247  2.3035  2.3076
   41MOL   H57543855   3.756   4.700   0.122 -1.0648  0.1299  2.6135
   41MOL   H57643856   3.927   4.779   8.108 -0.4468 -2.4499  0.2682
   41MOL   H57743857   4.039   4.769   7.896 -1.4677  1.7524 -0.3142
   41MOL   H57843858   4.518   4.915   7.744 -1.9014  0.0282 -0.0229
   41MOL   H57943859   4.749   4.816   7.731  2.2086 -1.9900  0.3390
   41MOL   H58043860   4.945   4.704   7.672  2.0890 -1.0704  0.6112
   41MOL   H58143861   4.823   4.595   7.586  0.0341 -1.5401  0.5467
   41MOL   H58243862   4.959   4.521   7.647 -1.5747 -1.5544  0.1761
   41MOL   H58343863   4.950   4.705   7.885 -1.4092  0.8975  2.3256
   41MOL   H58443864   4.874   4.581   8.001  1.8923  0.0558  1.3592
   41MOL   H58543865   5.012   4.544   7.880 -0.0617  0.3311 -0.4727
   41MOL   H58643866   4.703   4.420   7.593  0.1843 -0.0201  1.6876
   41MOL   H58743867   4.703   4.174   7.565 -1.1623  0.2408  0.2839
   41MOL   H58843868   4.864   4.122   7.957  0.4630 -1.5069 -1.1914
   41MOL   H58943869   4.897   4.366   7.969  0.3749  0.6364 -0.3282
   41MOL   H59043870   4.600   4.466   7.920  0.9172  1.3823  2.6341
   41MOL   H59143871   4.377   4.555   7.945  1.5268 -1.8504  0.6756
   41MOL   H59243872   4.419   4.834   8.109 -0.1634  0.1793  0.9161
   41MOL   H59343873   4.297   4.845   0.063  1.9236 -0.7084 -0.3728
   41MOL   H59443874   4.169   4.566   0.167  0.9405  0.8753 -0.9009
   41MOL   H59543875   4.088   4.346   0.196  0.9191 -0.0061 -0.1513
   41MOL   C59643876   4.707   3.916   7.830 -0.4697  0.2939 -0.3386
   41MOL   C59743877   4.598   3.955   7.918  0.0828  0.6991 -0.2497
   41MOL   C59843878   4.539   3.854   8.002 -0.3318  0.5060  0.0781
   41MOL   C59943879   4.597   3.722   8.009 -0.0461  0.0192 -0.0962
   41MOL   S60043880   4.520   3.590   8.107 -0.2374 -0.1385  0.5728
   41MOL   O60143881   4.624   3.513   8.173  0.2776 -0.3221 -0.2852
   41MOL   O60243882   4.433   3.518   8.010  0.0845  0.3384  0.4327
   41MOL   C60343883   4.415   3.655   8.234 -0.6560 -0.1139  0.2356
   41MOL   C60443884   4.467   3.708   0.100  0.0564  0.2452  0.4003
   41MOL   C60543885   4.382   3.757   0.196  0.2811 -0.0438 -0.9401
   41MOL   C60643886   4.239   3.758   0.173 -0.5562 -0.7091 -0.1363
   41MOL   O60743887   4.149   3.793   0.269  0.1216 -0.2177  0.7093
   41MOL   C60843888   4.190   3.853   0.384  0.0172  0.4264  0.2234
   41MOL   C60943889   4.186   3.993   0.394  0.4202  0.0854 -0.1388
   41MOL   C61043890   4.206   4.053   0.523 -0.3414 -0.3881 -0.6986
   41MOL   C61143891   4.251   3.977   0.636 -0.3415 -0.2788 -1.0662
   41MOL   C61243892   4.292   4.048   0.770  0.6350  0.6592 -0.2839
   41MOL   C61343893   4.447   4.032   0.790 -0.3886 -0.3254 -0.2305
   41MOL   C61443894   4.263   4.197   0.761 -0.1794  0.2861 -0.0238
   41MOL   C61543895   4.214   3.982   0.894  0.3473  0.2400 -0.7473
   41MOL   C61643896   4.276   3.901   0.987 -0.6065  0.1748  0.1471
   41MOL   C61743897   4.225   3.856   1.115  0.1071 -0.2984 -0.9435
   41MOL   C61843898   4.090   3.897   1.145  0.1733  0.2861  0.2793
   41MOL   O61943899   4.026   3.859   1.255  0.0919  0.4245  0.7335
   41MOL   C62043900   4.021   3.981   1.052 -0.3832  1.0676  0.6225
   41MOL   C62143901   4.085   4.028   0.933  0.5254  0.0630  0.2280
   41MOL   C62243902   4.265   3.836   0.625 -0.4661 -0.4008 -0.0625
   41MOL   C62343903   4.216   3.777   0.506  0.0029 -0.8951  0.1342
   41MOL   C62443904   4.188   3.705   0.060 -0.3566  0.3805 -0.2124
   41MOL   C62543905   4.274   3.655   8.212 -0.2047  0.1918  0.3771
   41MOL   C62643906   4.704   3.684   7.924  0.4300 -0.3906  0.4733
   41MOL   C62743907   4.756   3.780   7.841 -0.0167  0.1038 -0.2678
   41MOL   H62843908   4.557   4.055   7.912  0.7166  1.2398  3.2547
   41MOL   H62943909   4.454   3.873   8.065 -0.0040  1.1145  0.3368
   41MOL   H63043910   4.574   3.706   0.116 -0.2602  0.1988  2.6783
   41MOL   H63143911   4.416   3.794   0.291  0.8105 -0.3695 -1.0022
   41MOL   H63243912   4.162   4.058   0.311  1.3303  1.6888  0.8340
   41MOL   H63343913   4.201   4.160   0.518  0.0459 -0.4133 -1.6827
   41MOL   H63443914   4.503   4.070   0.704 -1.2106 -0.1330 -0.6796
   41MOL   H63543915   4.477   3.927   0.796  1.2935  0.2513  2.4231
   41MOL   H63643916   4.474   4.081   0.884  0.6518  0.3555 -0.8749
   41MOL   H63743917   4.333   4.241   0.690  0.0977 -2.5357 -1.5756
   41MOL   H63843918   4.160   4.216   0.730 -0.8801  1.3650  2.8414
   41MOL   H63943919   4.287   4.250   0.853 -1.2646  1.0894 -0.1883
   41MOL   H64043920   4.376   3.864   0.968 -0.5727  0.0210  0.6096
   41MOL   H64143921   4.287   3.801   1.184  1.4265  3.8327  1.3285
   41MOL   H64243922   3.922   4.010   1.083 -0.5589  1.3974 -0.2432
   41MOL   H64343923   4.033   4.098   0.869  0.6213  1.0597  1.2333
   41MOL   H64443924   4.298   3.775   0.709 -1.0666 -0.0270  0.4536
   41MOL   H64543925   4.230   3.669   0.505  0.3973 -0.8458  0.0156
   41MOL   H64643926   4.083   3.691   0.039 -0.2300  1.9844 -2.0431
   41MOL   H64743927   4.225   3.626   8.120 -1.6557  0.9512  0.8879
   41MOL   H64843928   4.745   3.585   7.938  1.4798 -0.0920 -0.4654
   41MOL   H64943929   4.824   3.750   7.763 -1.3095  1.7150 -2.1032
   41MOL   C65043930   4.039   3.941   1.366  1.1984  0.1361  0.3010
   41MOL   C65143931   3.918   3.993   1.413 -0.5602  0.7871 -0.4695
   41MOL   C65243932   3.923   4.065   1.536  0.4770  0.1108 -0.8186
   41MOL   C65343933   4.045   4.096   1.600  0.7352  1.2149  0.5881
   41MOL   S65443934   4.053   4.182   1.754  0.0952  0.0506 -0.1999
   41MOL   O65543935   4.102   4.093   1.862 -0.1629 -0.3830  0.7167
   41MOL   O65643936   3.925   4.250   1.769 -0.1652 -0.1340  0.0164
   41MOL   C65743937   4.183   4.301   1.734  0.0876  0.0115  0.2558
   41MOL   C65843938   4.239   4.357   1.849  0.9390  0.5122  0.0222
   41MOL   C65943939   4.323   4.464   1.831  0.3120  0.1768  0.4242
   41MOL   C66043940   4.355   4.520   1.701 -0.6994  0.4151  0.4610
   41MOL   O66143941   4.432   4.626   1.675 -0.1010  0.4161  0.2107
   41MOL   C66243942   4.450   4.721   1.775  0.9727 -0.3791 -0.0647
   41MOL   C66343943   4.578   4.728   1.838 -0.2557 -0.2482  0.2014
   41MOL   C66443944   4.601   4.823   1.941 -0.0995 -0.6216  0.3822
   41MOL   C66543945   4.499   4.918   1.980 -0.3602  0.1192 -0.1691
   41MOL   C66643946   4.521   5.013   2.097 -0.0890  0.0815 -0.0842
   41MOL   C66743947   4.647   4.981   2.171 -0.1675  0.4873 -0.5008
   41MOL   C66843948   4.549   5.154   2.044 -0.0316  0.0398 -0.4595
   41MOL   C66943949   4.397   5.010   2.195  0.0010 -0.1129 -0.3531
   41MOL   C67043950   4.322   5.130   2.217 -0.1931  0.1452 -0.7497
   41MOL   C67143951   4.212   5.127   2.308  0.0432  0.4258 -0.1393
   41MOL   C67243952   4.185   5.010   2.381 -0.5755 -0.3207  0.0562
   41MOL   O67343953   4.086   5.018   2.479 -0.3976  0.2034  0.3662
   41MOL   C67443954   4.264   4.892   2.356  0.1789  0.4925  0.4000
   41MOL   C67543955   4.360   4.892   2.258 -0.8130 -0.3350 -0.3615
   41MOL   C67643956   4.372   4.920   1.904  0.5152  0.5104 -0.2977
   41MOL   C67743957   4.350   4.820   1.806  0.6664  0.4713  0.1835
   41MOL   C67843958   4.300   4.463   1.591 -0.1153 -0.1792  0.1127
   41MOL   C67943959   4.217   4.345   1.603  0.8528 -0.1437 -0.2492
   41MOL   C68043960   4.168   4.046   1.546 -0.1597  0.7571 -0.2910
   41MOL   C68143961   4.166   3.965   1.427 -0.9293 -0.7882 -0.3282
   41MOL   H68243962   3.824   3.985   1.362 -0.4612 -1.3418 -0.3613
   41MOL   H68343963   3.833   4.095   1.588  1.4753  3.1030 -0.7321
   41MOL   H68443964   4.212   4.323   1.948  1.0034  1.0586  0.2336
   41MOL   H68543965   4.365   4.511   1.918  2.0654 -1.1293  0.3151
   41MOL   H68643966   4.651   4.655   1.809 -0.0696 -0.3037  0.8144
   41MOL   H68743967   4.692   4.817   1.998  0.7176  2.9827 -0.4449
   41MOL   H68843968   4.649   5.049   2.256 -2.3867 -0.4734  0.3643
   41MOL   H68943969   4.739   4.990   2.113  0.4637  1.9917  0.6714
   41MOL   H69043970   4.648   4.880   2.211 -2.1498  0.8696  0.5620
   41MOL   H69143971   4.638   5.168   1.983 -0.7928 -0.6579 -1.7482
   41MOL   H69243972   4.460   5.188   1.991 -0.0184  0.3863 -0.2598
   41MOL   H69343973   4.576   5.216   2.129 -0.3366  2.1152 -1.8488
   41MOL   H69443974   4.353   5.225   2.177 -1.0435 -0.8858 -3.9575
   41MOL   H69543975   4.162   5.221   2.326  2.0868  1.2354  1.5409
   41MOL   H69643976   4.239   4.807   2.418  1.6098  0.7536  1.3432
   41MOL   H69743977   4.424   4.807   2.238 -1.9184 -1.6643  1.6267
   41MOL   H69843978   4.300   5.001   1.912  0.4492  0.5018 -0.7785
   41MOL   H69943979   4.261   4.816   1.745  1.7448 -1.8920 -1.3118
   41MOL   H70043980   4.304   4.516   1.497  1.8302  2.6172  1.7263
   41MOL   H70143981   4.161   4.315   1.516  2.3909 -2.9319 -0.3117
   41MOL   H70243982   4.264   4.035   1.594  0.3575 -0.0263 -1.4755
   41MOL   H70343983   4.261   3.931   1.390 -0.2412 -1.3102  1.8371
   41MOL   C70443984   3.989   4.918   2.488 -0.0612 -0.1686 -0.2907
   41MOL   C70543985   3.864   4.936   2.417  0.1648  0.0074  0.2488
   41MOL   C70643986   3.769   4.833   2.434 -0.1598  0.1912 -0.5012
   41MOL   C70743987   3.794   4.725   2.525 -0.1931  0.4166  0.0414
   41MOL   S70843988   3.654   4.613   2.565 -0.0375 -0.6244  0.3381
   41MOL   O70943989   3.695   4.472   2.555  0.2250 -0.0344 -0.2586
   41MOL   O71043990   3.536   4.659   2.491  0.0609 -0.1647  0.0640
   41MOL   C71143991   3.620   4.636   2.739 -0.1048 -0.4224  0.2906
   41MOL   C71243992   3.531   4.738   2.771 -0.3313 -0.2000  0.2541
   41MOL   C71343993   3.517   4.777   2.903 -0.4212 -0.1478 -0.1249
   41MOL   C71443994   3.595   4.714   3.004  0.6641  0.1496  0.1952
   41MOL   O71543995   3.583   4.750   3.139 -0.6268 -0.8927  0.0100
   41MOL   C71643996   3.649   4.868   3.184  0.5548 -0.4879 -0.1780
   41MOL   C71743997   3.657   4.900   3.324 -0.4895  0.0275 -0.2790
   41MOL   C71843998   3.704   5.023   3.367  0.4899 -0.0419  0.2543
   41MOL   C71943999   3.758   5.113   3.273  0.7311 -0.4301 -0.5279
   41MOL   C72044000   3.809   5.253   3.318  0.6484 -0.0257 -0.6900
   41MOL   C72144001   3.817   5.276   3.474 -0.0354 -0.1849 -0.7014
   41MOL   C72244002   3.957   5.273   3.262  0.1860  0.0342  0.1811
   41MOL   C72344003   3.709   5.357   3.258 -0.6233  0.9445  0.0743
   41MOL   C72444004   3.572   5.352   3.293  0.3866  0.7610 -0.2172
   41MOL   C72544005   3.472   5.424   3.219  0.1792  0.0790 -0.5800
   41MOL   C72644006   3.515   5.508   3.122  0.6290 -0.4850 -0.2107
   41MOL   O72744007   3.417   5.574   3.052 -0.0882 -0.1695  0.5482
   41MOL   C72844008   3.656   5.517   3.088 -0.2045 -0.1826 -0.1656
   41MOL   C72944009   3.754   5.444   3.158  0.9025  0.7475  0.9616
   41MOL   C73044010   3.762   5.079   3.138 -0.0503  0.1016  0.0589
   41MOL   C73144011   3.709   4.958   3.090 -0.3798 -0.0969  0.1335
   41MOL   C73244012   3.675   4.605   2.966 -1.1905 -0.5885 -0.9415
   41MOL   C73344013   3.690   4.562   2.835  0.4952  0.4218 -0.1913
   41MOL   C73444014   3.921   4.702   2.586 -0.1859 -0.5889 -0.1225
   41MOL   C73544015   4.010   4.814   2.579 -0.3410  0.3901  0.0435
   41MOL   H73644016   3.847   5.025   2.359  1.1184  0.1261  0.1383
   41MOL   H73744017   3.668   4.850   2.399  0.1502 -0.7510 -1.8790
   41MOL   H73844018   3.474   4.785   2.691  0.5213 -1.2055 -0.9452
   41MOL   H73944019   3.454   4.862   2.928 -0.4911 -0.4539  0.7674
   41MOL   H74044020   3.613   4.839   3.401  0.5030 -0.4664 -0.0950
   41MOL   H74144021   3.699   5.041   3.474 -0.5196 -1.2231  0.4219
   41MOL   H74244022   3.863   5.189   3.522  2.7195  1.8334  0.4619
   41MOL   H74344023   3.717   5.301   3.508  1.0815  1.6000  1.4326
   41MOL   H74444024   3.882   5.360   3.501 -0.9306 -0.4352  2.4736
   41MOL   H74544025   3.993   5.369   3.300  0.8829 -1.1607  2.5909
   41MOL   H74644026   4.016   5.191   3.303  1.1971  1.0348  0.7666
   41MOL   H74744027   3.972   5.281   3.154 -0.1987  1.5226  0.2221
   41MOL   H74844028   3.542   5.293   3.378  0.0071  1.3001  0.0253
   41MOL   H74944029   3.370   5.420   3.254  0.5378 -0.3688  0.4514
   41MOL   H75044030   3.697   5.575   3.007 -0.4853 -0.2760 -0.3744
   41MOL   H75144031   3.854   5.455   3.120  0.2426  0.5920 -0.8580
   41MOL   H75244032   3.805   5.157   3.077  1.9385  1.3843  3.0109
   41MOL   H75344033   3.715   4.937   2.984 -0.3004 -3.8927  0.8390
   41MOL   H75444034   3.731   4.560   3.047  0.9433  0.7609 -1.6139
   41MOL   H75544035   3.765   4.489   2.808  1.6550  1.3217  0.5519
   41MOL   H75644036   3.945   4.614   2.644 -0.8482 -0.0148  1.0357
   41MOL   H75744037   4.106   4.807   2.628  1.6963  1.4830 -3.6015
   41MOL   C75844038   3.442   5.706   3.018 -0.3321 -0.3233 -0.2465
   41MOL   C75944039   3.444   5.746   2.885 -0.3631 -1.0392 -0.4934
   41MOL   C76044040   3.450   5.884   2.852 -0.5647 -0.2272  0.0029
   41MOL   C76144041   3.470   5.973   2.954 -0.3020  0.1220 -0.2147
   41MOL   S76244042   3.476   6.153   2.918 -0.2214 -0.4121 -0.3836
   41MOL   O76344043   3.484   6.217   3.050 -0.2049  0.0050 -0.6395
   41MOL   O76444044   3.369   6.187   2.828 -0.4968 -0.5626 -0.0617
   41MOL   C76544045   3.629   6.177   2.827  0.7320 -0.0257  0.4470
   41MOL   C76644046   3.746   6.094   2.829  0.6833  0.3773 -0.1872
   41MOL   C76744047   3.854   6.122   2.740  0.1203 -0.4484 -0.2453
   41MOL   C76844048   3.849   6.228   2.651 -0.1580 -0.2397 -0.1087
   41MOL   O76944049   3.958   6.250   2.569  0.1707 -0.3954  0.0762
   41MOL   C77044050   3.922   6.265   2.437 -0.8129 -0.2161  0.7759
   41MOL   C77144051   3.927   6.396   2.384  0.3472  0.2135 -0.8063
   41MOL   C77244052   3.874   6.416   2.255  0.4218 -0.3181  0.7431
   41MOL   C77344053   3.811   6.312   2.185  0.4813 -0.1359  0.6467
   41MOL   C77444054   3.725   6.342   2.063  0.4331  0.3324  0.5559
   41MOL   C77544055   3.690   6.216   1.974 -1.0706 -0.0918 -0.1267
   41MOL   C77644056   3.590   6.395   2.119 -0.1975 -0.5484  0.3199
   41MOL   C77744057   3.796   6.448   1.976  0.6024 -0.2601  0.3267
   41MOL   C77844058   3.730   6.562   1.918  0.1679 -0.1906 -0.9082
   41MOL   C77944059   3.803   6.656   1.846 -0.2318 -0.2228 -0.4656
   41MOL   C78044060   3.934   6.627   1.800 -0.2751 -0.0150 -0.4265
   41MOL   O78144061   3.998   6.713   1.721  0.0502  0.3622 -0.0862
   41MOL   C78244062   3.995   6.513   1.850 -0.2166  0.3599  0.2187
   41MOL   C78344063   3.927   6.426   1.939  0.0320  0.9997  0.8800
   41MOL   C78444064   3.809   6.180   2.243 -0.4772  0.2138  0.4127
   41MOL   C78544065   3.878   6.156   2.365 -0.0933 -0.1294 -0.2259
   41MOL   C78644066   3.741   6.312   2.653  0.8914 -0.1455 -0.2553
   41MOL   C78744067   3.630   6.283   2.736  0.0488  0.0531 -0.4474
   41MOL   C78844068   3.469   5.933   3.087 -0.4118  0.6845 -0.3788
   41MOL   C78944069   3.461   5.798   3.124  0.1280 -0.1521  0.1045
   41MOL   H79044070   3.445   5.667   2.811  2.4822 -0.2110 -1.3657
   41MOL   H79144071   3.434   5.920   2.751 -0.5853  3.2396  1.1918
   41MOL   H79244072   3.762   6.007   2.891  2.6400  1.7514  1.3309
   41MOL   H79344073   3.939   6.055   2.738 -0.2851 -0.9460 -1.4169
   41MOL   H79444074   3.973   6.479   2.435  0.6298  0.0964 -0.8703
   41MOL   H79544075   3.882   6.517   2.218  2.8253 -0.4942  0.7102
   41MOL   H79644076   3.649   6.239   1.875  2.5920 -0.8750 -1.9379
   41MOL   H79744077   3.627   6.147   2.030  1.2794 -0.4246  2.1864
   41MOL   H79844078   3.782   6.159   1.959 -0.4420  1.0469 -0.6765
   41MOL   H79944079   3.519   6.403   2.036 -1.7328  0.5930  1.7047
   41MOL   H80044080   3.535   6.332   2.189 -0.4935 -0.9763 -0.2905
   41MOL   H80144081   3.601   6.493   2.165 -1.6946  0.9153 -2.2961
   41MOL   H80244082   3.629   6.590   1.946  0.8543  2.3703 -0.9084
   41MOL   H80344083   3.755   6.748   1.815 -0.1063 -0.0736 -0.2274
   41MOL   H80444084   4.098   6.493   1.824 -0.1206  0.0765  0.8172
   41MOL   H80544085   3.980   6.336   1.966  0.5126 -0.4366 -4.2444
   41MOL   H80644086   3.764   6.096   2.192 -0.4090  0.8436 -0.7107
   41MOL   H80744087   3.882   6.058   2.410  0.3976 -0.2205 -0.4641
   41MOL   H80844088   3.738   6.402   2.594  2.2865 -0.4053 -0.7363
   41MOL   H80944089   3.544   6.349   2.740 -0.6646 -0.9451  1.1140
   41MOL   H81044090   3.484   6.008   3.164  0.9174  0.1872 -0.1284
   41MOL   H81144091   3.461   5.769   3.228  0.9764 -0.3796  0.0382
   41MOL   C81244092   4.122   6.697   1.657 -0.5797  0.0636 -0.7225
   41MOL   C81344093   4.134   6.657   1.520  0.7024 -0.9381 -0.1581
   41MOL   C81444094   4.255   6.612   1.471  0.5573  0.0529  0.4554
   41MOL   C81544095   4.358   6.599   1.560 -0.4370 -0.6027 -0.4983
   41MOL   S81644096   4.504   6.515   1.506  0.0337  0.4764 -0.0740
   41MOL   O81744097   4.535   6.553   1.368 -0.3514  0.3925 -0.4575
   41MOL   O81844098   4.470   6.374   1.534 -0.2436  0.1626  0.0336
   41MOL   C81944099   4.631   6.562   1.623  0.0081  0.4914 -0.4362
   41MOL   C82044100   4.698   6.688   1.606 -0.3829  0.2519 -0.5456
   41MOL   C82144101   4.784   6.737   1.705 -0.0018 -0.4578 -0.0621
   41MOL   C82244102   4.809   6.660   1.822 -0.3128 -0.3217  0.6756
   41MOL   O82344103   4.879   6.709   1.926 -0.2752 -0.0118 -0.4973
   41MOL   C82444104   5.016   6.744   1.913 -0.1230  0.2034  0.1991
   41MOL   C82544105   5.070   6.869   1.869  0.0259 -0.2422  0.4433
   41MOL   C82644106   5.212   6.896   1.880  0.0372 -0.0415 -0.7095
   41MOL   C82744107   5.296   6.803   1.952  0.7769  0.0610  0.1930
   41MOL   C82844108   5.439   6.840   1.988  0.1542 -0.5510  0.3069
   41MOL   C82944109   5.535   6.716   1.963  0.2265  0.4830 -0.0482
   41MOL   C83044110   5.494   6.959   1.912 -0.1580  0.1370  0.6660
   41MOL   C83144111   5.434   6.877   2.142 -0.0109  0.7681  0.1056
   41MOL   C83244112   5.533   6.844   2.232 -0.4163  0.1581 -0.5889
   41MOL   C83344113   5.523   6.885   2.368  0.0130 -0.7990  0.2250
   41MOL   C83444114   5.414   6.963   2.415 -0.0329 -0.8623 -0.2720
   41MOL   O83544115   5.405   7.011   2.541  0.4736 -0.0240 -0.2223
   41MOL   C83644116   5.317   7.004   2.321  0.6867 -0.1188 -0.2586
   41MOL   C83744117   5.322   6.957   2.187  0.3924  0.0344 -0.7582
   41MOL   C83844118   5.238   6.677   1.990  0.0132 -0.3702  0.8028
   41MOL   C83944119   5.103   6.646   1.965 -0.1312 -0.0754 -0.5074
   41MOL   C84044120   4.750   6.529   1.833  0.0047  0.6502 -0.3579
   41MOL   C84144121   4.663   6.479   1.733  0.1559 -0.0115  0.4052
   41MOL   C84244122   4.352   6.647   1.695 -0.1097  0.6890  0.2448
   41MOL   C84344123   4.230   6.698   1.740 -0.6738 -0.3178 -0.4727
   41MOL   H84444124   4.041   6.642   1.468  0.7012 -0.5900 -0.2544
   41MOL   H84544125   4.268   6.569   1.373 -0.3609 -2.1234  1.2507
   41MOL   H84644126   4.658   6.754   1.530 -2.0785 -2.0095 -1.6712
   41MOL   H84744127   4.821   6.838   1.693  0.3785 -0.4892  0.8288
   41MOL   H84844128   4.999   6.943   1.835  0.6391 -0.1277 -0.6182
   41MOL   H84944129   5.236   6.990   1.833 -2.5209 -0.0188 -2.0813
   41MOL   H85044130   5.508   6.682   1.863  0.5328 -1.8637  0.6260
   41MOL   H85144131   5.513   6.633   2.030  2.3851 -0.9696 -1.1038
   41MOL   H85244132   5.640   6.739   1.977  0.0295  1.2931  0.1383
   41MOL   H85344133   5.596   6.978   1.945 -0.2293 -0.4583  1.2335
   41MOL   H85444134   5.496   6.947   1.803 -0.7667  2.1054  0.4156
   41MOL   H85544135   5.436   7.049   1.930  1.2210  0.6173  2.8657
   41MOL   H85644136   5.625   6.795   2.204 -0.3276  1.4235 -2.6542
   41MOL   H85744137   5.609   6.855   2.427  0.3647 -1.7088 -0.7338
   41MOL   H85844138   5.243   7.073   2.358 -0.8519 -2.0781  0.4619
   41MOL   H85944139   5.237   6.986   2.127  0.6486  1.0156 -0.6610
   41MOL   H86044140   5.300   6.615   2.053  0.1882  0.7065  1.6980
   41MOL   H86144141   5.069   6.549   1.999 -1.2330  0.8037  0.9663
   41MOL   H86244142   4.765   6.470   1.922  0.3246 -1.5851 -1.8199
   41MOL   H86344143   4.618   6.382   1.747 -0.9807  0.3896 -0.4209
   41MOL   H86444144   4.436   6.641   1.762  1.1464  0.3239 -1.3506
   41MOL   H86544145   4.221   6.733   1.841  0.2295  0.0267 -0.5065
   41MOL   C86644146   5.394   7.144   2.566 -0.0964  0.3945 -0.0707
   41MOL   C86744147   5.352   7.191   2.689  0.1574  0.4741  0.2933
   41MOL   C86844148   5.334   7.330   2.716  0.3055 -0.6037 -0.5754
   41MOL   C86944149   5.387   7.425   2.625 -0.3676 -0.0768  0.0195
   41MOL   S87044150   5.391   7.598   2.664 -0.2931  0.4137 -0.1952
   41MOL   O87144151   5.514   7.655   2.610  0.6792 -0.2913 -0.3681
   41MOL   O87244152   5.365   7.610   2.809 -0.3143  0.4575  1.0979
   41MOL   C87344153   5.247   7.669   2.585 -0.3791  0.1004 -0.2886
   41MOL   C87444154   5.184   7.778   2.645  0.2555  0.5223 -0.7218
   41MOL   C87544155   5.071   7.833   2.582 -0.4738  0.0280  0.1682
   41MOL   C87644156   5.046   7.798   2.450 -1.2379  0.0496  0.4531
   41MOL   O87744157   4.933   7.848   2.393 -0.8357 -0.2432  0.0820
   41MOL   C87844158   4.938   7.971   2.331 -0.4474  0.0356  0.5368
   41MOL   C87944159   4.825   8.053   2.338  0.4311  0.8961 -0.6702
   41MOL   C88044160   4.830   8.172   2.262  0.0151 -0.6014 -0.4093
   41MOL   C88144161   4.949   8.214   2.197  0.5324  0.0413  0.0381
   41MOL   C88244162   4.943   0.105   2.128  0.1577 -0.6119  0.3773
   41MOL   C88344163   4.994   0.197   2.238 -0.3088  0.1437  0.0591
   41MOL   C88444164   5.037   0.119   2.006  0.7248 -0.3626 -0.1723
   41MOL   C88544165   4.796   0.148   2.084  0.1121  0.0626  0.1223
   41MOL   C88644166   4.707   0.217   2.168  0.6182  0.2731  0.2265
   41MOL   C88744167   4.574   0.243   2.133  0.2563  1.2079 -0.0162
   41MOL   C88844168   4.522   0.211   2.003 -0.7419  0.2625 -0.1304
   41MOL   O88944169   4.400   0.249   1.962 -0.0078 -0.0954  0.1100
   41MOL   C89044170   4.613   0.150   1.914  0.1177 -0.2305 -0.0252
   41MOL   C89144171   4.746   0.118   1.953 -0.8613  0.0135 -0.1182
   41MOL   C89244172   5.060   8.127   2.189 -0.5228  0.1520 -0.3099
   41MOL   C89344173   5.051   8.003   2.254 -0.0760  0.0789 -0.5895
   41MOL   C89444174   5.116   7.702   2.381 -0.5561 -0.2568  0.1763
   41MOL   C89544175   5.217   7.638   2.453  0.1236 -0.3137 -0.3267
   41MOL   C89644176   5.438   7.380   2.503 -0.0845 -0.3714  0.6140
   41MOL   C89744177   5.446   7.240   2.478 -0.3464 -1.0549  0.4072
   41MOL   H89844178   5.311   7.124   2.764  0.8327  1.1910  1.3101
   41MOL   H89944179   5.297   7.359   2.813 -2.7381  1.4907 -2.2549
   41MOL   H90044180   5.219   7.828   2.735 -1.1729 -1.0548  0.7590
   41MOL   H90144181   5.026   7.911   2.641 -1.7687 -3.1556  3.6594
   41MOL   H90244182   4.734   8.026   2.390  0.1419  1.4898 -0.8566
   41MOL   H90344183   4.749   8.243   2.272 -0.2155 -1.0522  0.9516
   41MOL   H90444184   4.971   0.299   2.211 -1.5589 -0.0245  0.4557
   41MOL   H90544185   5.103   0.198   2.241 -0.2722  2.7208 -1.3458
   41MOL   H90644186   4.954   0.174   2.337  0.1156 -3.2051 -0.4875
   41MOL   H90744187   5.024   0.220   1.967  3.4775 -0.8380 -2.4656
   41MOL   H90844188   5.144   0.115   2.025  1.0434  3.1457 -0.8912
   41MOL   H90944189   5.007   0.038   1.939 -1.0885 -0.6630  0.9698
   41MOL   H91044190   4.733   0.238   2.270  0.9458 -2.0391  0.6515
   41MOL   H91144191   4.515   0.296   2.206 -0.6446 -0.7228  0.6863
   41MOL   H91244192   4.587   0.146   1.810  0.0873  0.8750 -0.0636
   41MOL   H91344193   4.801   0.064   1.878  0.4392 -0.9761  1.5272
   41MOL   H91444194   5.153   8.157   2.143  0.2337 -0.1353  0.9899
   41MOL   H91544195   5.135   7.937   2.238 -0.7454 -0.8102 -0.4638
   41MOL   H91644196   5.096   7.681   2.278  0.6682  2.5440 -0.6828
   41MOL   H91744197   5.285   7.572   2.401 -0.0629 -0.5508 -0.2683
   41MOL   H91844198   5.464   7.455   2.430 -1.5846 -0.5434 -0.1237
   41MOL   H91944199   5.488   7.211   2.383 -1.1169 -0.5096 -0.1055
   41MOL   C92044200   4.304   0.147   1.971  0.0510 -0.1253  0.3487
   41MOL   C92144201   4.306   0.035   1.883 -0.0952 -0.0831  0.2531
   41MOL   C92244202   4.218   8.180   1.897  0.7141  0.8531 -0.0321
   41MOL   C92344203   4.127   8.179   2.009 -0.2367  0.0466  0.2712
   41MOL   S92444204   4.012   8.033   2.020  0.1220  0.2012  0.2448
   41MOL   O92544205   4.107   7.915   2.021  0.3559  0.0213  0.5727
   41MOL   O92644206   3.901   8.052   1.927  0.0506  0.3447 -0.2104
   41MOL   C92744207   3.942   8.048   2.178 -0.7831  0.4409  0.4323
   41MOL   C92844208   4.032   8.013   2.282  0.2539 -0.3723 -0.0717
   41MOL   C92944209   3.993   8.024   2.414  0.7111 -0.1230 -0.1042
   41MOL   C93044210   3.860   8.059   2.452  0.5850  0.1149 -0.1985
   41MOL   O93144211   3.827   8.063   2.587  0.1138  0.4135  0.1433
   41MOL   C93244212   3.697   8.086   2.635  0.7336 -0.0162  0.6719
   41MOL   C93344213   3.624   7.983   2.686 -0.4859 -0.4838  0.1674
   41MOL   C93444214   3.493   8.004   2.727 -0.0883  0.8942  0.4290
   41MOL   C93544215   3.434   8.133   2.727  0.7379 -0.2420  0.1440
   41MOL   C93644216   3.293   8.147   2.788 -0.4155 -0.6392 -0.5839
   41MOL   C93744217   3.258   8.019   2.873  0.3299 -0.3199 -0.4351
   41MOL   C93844218   3.298   0.010   2.893 -0.5193 -0.2404 -0.8380
   41MOL   C93944219   3.185   8.167   2.684  0.3776 -0.0578 -0.4633
   41MOL   C94044220   3.195   0.029   2.605  0.3310  0.6527 -0.3333
   41MOL   C94144221   3.101   0.069   2.522  0.0776  0.2847  0.6534
   41MOL   C94244222   2.972   0.006   2.534 -0.0028  0.3597  0.5010
   41MOL   O94344223   2.865   0.056   2.463 -0.1521  0.1317  0.3763
   41MOL   C94444224   2.952   8.144   2.612  0.7062 -0.1561  0.4606
   41MOL   C94544225   3.063   8.092   2.683 -0.8406 -0.2594  0.0340
   41MOL   C94644226   3.523   8.243   2.701  0.0620 -0.2219  0.2730
   41MOL   C94744227   3.646   8.212   2.645  0.7354 -0.2343  0.4191
   41MOL   C94844228   3.767   8.089   2.344 -0.1424  0.8081 -0.5054
   41MOL   C94944229   3.814   8.093   2.212 -0.3633  0.4111  0.5724
   41MOL   C95044230   4.123   0.036   2.100 -0.1387  0.0746  0.3281
   41MOL   C95144231   4.203   0.147   2.070 -0.1108  0.4446 -0.2460
   41MOL   H95244232   4.379   0.033   1.803 -0.7162 -1.7482 -0.2889
   41MOL   H95344233   4.225   8.101   1.824 -1.2032 -0.2230  0.8948
   41MOL   H95444234   4.124   7.964   2.256  1.1487  1.8464 -1.2457
   41MOL   H95544235   4.061   7.984   2.488  0.7531  0.5453  0.2236
   41MOL   H95644236   3.660   7.881   2.690  0.2178 -0.2118  1.0214
   41MOL   H95744237   3.446   7.914   2.763  0.3045 -0.7463 -2.9443
   41MOL   H95844238   3.164   8.035   2.926  0.2757 -1.7931 -0.0510
   41MOL   H95944239   3.333   8.003   2.951 -1.3738  1.7187  1.7173
   41MOL   H96044240   3.248   7.929   2.813  1.1461 -0.7466  0.0691
   41MOL   H96144241   3.381   8.240   2.961  0.1901  0.3616 -1.4856
   41MOL   H96244242   3.309   0.111   2.853 -0.6875  0.4321  0.7586
   41MOL   H96344243   3.203   0.017   2.945 -0.6585 -0.6897 -1.0282
   41MOL   H96444244   3.290   0.082   2.606  2.3864 -2.8264 -0.7862
   41MOL   H96544245   3.120   0.157   2.462  1.9930 -0.5960 -0.0780
   41MOL   H96644246   2.860   8.088   2.618  0.3904  0.2928 -0.1306
   41MOL   H96744247   3.044   8.007   2.746 -0.9080 -1.4093 -1.5068
   41MOL   H96844248   3.483   0.089   2.704  1.4742  0.3584  0.4066
   41MOL   H96944249   3.710   0.038   2.608 -1.1459  0.7811 -0.7210
   41MOL   H97044250   3.663   8.106   2.363  0.3554  2.4294  0.8725
   41MOL   H97144251   3.754   8.117   2.125 -1.1353  2.5372  1.6698
   41MOL   H97244252   4.051   0.039   2.180 -1.6291  1.2884 -1.0240
   41MOL   H97344253   4.211   0.227   2.142 -0.5247 -0.1454  0.4711
   41MOL   C97444254   2.782   0.139   2.527 -0.3612 -0.0748 -0.1242
   41MOL   C97544255   2.664   0.087   2.577 -0.1746 -0.4298 -0.4826
   41MOL   C97644256   2.575   0.164   2.651  0.1020  0.1973  0.4577
   41MOL   C97744257   2.612   0.295   2.680  0.4207  0.9036 -0.2028
   41MOL   S97844258   2.499   0.396   2.790  0.0853  0.1467  0.3067
   41MOL   O97944259   2.406   0.466   2.704  0.1371 -0.2698 -0.0990
   41MOL   O98044260   2.579   0.468   2.889 -0.1299  0.0582 -0.1101
   41MOL   C98144261   2.393   0.274   2.879  0.1479 -0.0198 -0.8439
   41MOL   C98244262   2.275   0.227   2.813  0.2047  0.0801  0.0504
   41MOL   C98344263   2.188   0.148   2.890 -0.1439 -0.6418 -0.1045
   41MOL   C98444264   2.216   0.113   3.022  0.1603  0.4029  0.0082
   41MOL   O98544265   2.120   0.050   3.090  0.2652 -0.0921  0.2549
   41MOL   C98644266   2.060   0.116   3.194 -0.1183  0.3163 -0.2442
   41MOL   C98744267   1.980   0.232   3.176  0.0528  0.1126  0.3365
   41MOL   C98844268   1.905   0.282   3.281  0.1007 -0.4026  1.0328
   41MOL   C98944269   1.915   0.232   3.413 -0.8920 -0.0946 -0.0772
   41MOL   C99044270   1.833   0.291   3.521  0.3177 -0.0558 -1.1616
   41MOL   C99144271   1.852   0.225   3.664 -0.0053 -0.1982 -0.4180
   41MOL   C99244272   1.888   0.433   3.535 -0.3618 -0.5066  0.9444
   41MOL   C99344273   1.684   0.281   3.489  0.1876  0.3537 -0.1150
   41MOL   C99444274   1.636   0.167   3.421 -0.0437  0.2000  0.0737
   41MOL   C99544275   1.503   0.166   3.375 -0.3243  0.5125  0.3548
   41MOL   C99644276   1.412   0.255   3.426 -0.6372 -0.8078  0.8138
   41MOL   O99744277   1.275   0.235   3.412  0.5564 -0.1001 -0.0292
   41MOL   C99844278   1.456   0.371   3.504 -0.3856  0.7456 -0.1665
   41MOL   C99944279   1.595   0.385   3.534  0.3405 -0.1726 -1.0580
   41MOL     C144280   2.004   0.121   3.433  0.3265 -0.3496  0.0437
   41MOL     C244281   2.070   0.062   3.321  0.5482  0.3680 -0.5501
   41MOL     C344282   2.345   0.143   3.071  0.0428 -0.0462  0.0878
   41MOL     C444283   2.432   0.228   3.008  0.6107 -0.8465  0.0808
   41MOL     C544284   2.735   0.351   2.647  0.0083 -0.2064 -0.0487
   41MOL     C644285   2.817   0.270   2.570 -0.2774  1.0817  0.1921
   41MOL     H744286   2.645   8.234   2.566  3.0385 -1.0030 -1.0183
   41MOL     H844287   2.482   0.118   2.679  0.7530 -0.6997  1.1886
   41MOL     H944288   2.246   0.260   2.714 -1.4050 -0.3955  0.3534
   41MOL    H1044289   2.092   0.123   2.848 -0.4890 -0.4580  0.5713
   41MOL    H1144290   1.965   0.276   3.078 -0.0048 -2.0643 -0.6431
   41MOL    H1244291   1.838   0.361   3.254  1.7829  1.2800  1.6917
   41MOL    H1344292   1.818   0.122   3.658  2.0507 -0.9505  0.3670
   41MOL    H1444293   1.796   0.285   3.736  2.2826 -0.4339  1.6373
   41MOL    H1544294   1.958   0.222   3.692 -0.2837 -0.7369  0.6068
   41MOL    H1644295   1.852   0.489   3.620  0.8812  0.9604  0.5190
   41MOL    H1744296   1.997   0.432   3.541 -0.0612  0.4130 -2.8821
   41MOL    H1844297   1.861   0.494   3.449 -1.5676 -0.4513  1.3577
   41MOL    H1944298   1.703   0.084   3.406  0.5218  0.6781 -0.0767
   41MOL    H2044299   1.462   0.087   3.314  1.0042  1.6662 -2.1037
   41MOL    H2144300   1.394   0.442   3.556  1.1701 -0.7455  3.8447
   41MOL    H2244301   1.622   0.461   3.607 -2.1634 -1.5828  1.4712
   41MOL    H2344302   2.019   0.073   3.528  1.2541 -1.2544 -0.5447
   41MOL    H2444303   2.128   8.225   3.334  0.5311  0.5419  0.7238
   41MOL    H2544304   2.360   0.127   3.176 -1.9843 -2.6589  0.0096
   41MOL    H2644305   2.519   0.262   3.062 -0.2641  0.1324  0.8961
   41MOL    H2744306   2.758   0.451   2.681 -1.6391  0.1170  0.1518
   41MOL    H2844307   2.915   0.313   2.552 -0.2316 -0.1492 -2.5871
   41MOL    C2944308   1.208   0.306   3.316 -0.9420 -0.4380 -0.6478
   41MOL    C3044309   1.150   0.233   3.210 -0.2717 -0.0642  0.0037
   41MOL    C3144310   1.070   0.302   3.115 -0.1307  0.1732  0.4700
   41MOL    C3244311   1.068   0.440   3.118 -0.3049  0.3668 -0.2945
   41MOL    S3344312   0.974   0.522   3.001  0.0116 -0.2416  0.4360
   41MOL    O3444313   0.851   0.447   2.968 -0.1722  0.3759 -0.0765
   41MOL    O3544314   1.069   0.574   2.902 -0.2735 -0.4895  0.0943
   41MOL    C3644315   0.912   0.662   3.092  0.2349  0.6066  0.5553
   41MOL    C3744316   0.917   0.789   3.038  0.4116  0.1110 -0.2229
   41MOL    C3844317   0.864   0.893   3.114 -0.0390  0.8204 -0.5290
   41MOL    C3944318   0.814   0.870   3.250  0.4708 -0.9159  0.1811
   41MOL    O4044319   0.771   0.976   3.320 -0.2064 -0.9206  0.0411
   41MOL    C4144320   0.867   1.066   3.364 -0.2643  0.1205  0.5410
   41MOL    C4244321   0.980   1.025   3.426  0.2459 -0.4566 -0.0736
   41MOL    C4344322   1.077   1.114   3.477 -0.1930 -0.2193  0.4581
   41MOL    C4444323   1.052   1.256   3.460  0.2819 -0.4818  0.2178
   41MOL    C4544324   1.145   1.364   3.518 -0.6513  0.4116  0.2420
   41MOL    C4644325   1.265   1.300   3.592  0.2411 -0.0715  0.2199
   41MOL    C4744326   1.204   1.452   3.399 -0.2278 -0.0065  0.2474
   41MOL    C4844327   1.067   1.442   3.615 -0.1050  0.3957  0.3222
   41MOL    C4944328   1.010   1.373   3.719 -0.2068  0.2863  0.1666
   41MOL    C5044329   0.918   1.435   3.802  0.5302 -0.7735 -1.0058
   41MOL    C5144330   0.887   1.570   3.784 -0.5144 -0.8133 -0.0363
   41MOL    O5244331   0.787   1.625   3.859 -0.1776 -0.2849  0.1066
   41MOL    C5344332   0.955   1.646   3.690 -0.0982 -0.5724  1.0390
   41MOL    C5444333   1.047   1.578   3.608 -0.5033  0.2487 -0.3455
   41MOL    C5544334   0.939   1.298   3.380 -0.1724  0.5655 -0.8604
   41MOL    C5644335   0.848   1.199   3.333 -0.3687  0.2403 -0.3533
   41MOL    C5744336   0.800   0.735   3.299  0.5219 -0.5277 -0.2543
   41MOL    C5844337   0.850   0.631   3.216  0.5285  0.2019 -0.2891
   41MOL    C5944338   1.131   0.512   3.221 -0.5328  0.1773  0.3273
   41MOL    C6044339   1.205   0.446   3.321 -0.4978  0.0955 -0.3380
   41MOL    H6144340   1.167   0.127   3.205 -0.7976 -0.0672 -2.0317
   41MOL    H6244341   1.007   0.248   3.047 -0.8431  0.7419  0.6779
   41MOL    H6344342   0.956   0.810   2.939 -1.9758 -0.2375 -1.2815
   41MOL    H6444343   0.865   0.995   3.079  0.0402  1.0240  0.0702
   41MOL    H6544344   1.005   0.922   3.445 -2.4466 -0.5660  3.5162
   41MOL    H6644345   1.160   1.073   3.533  1.0259  1.7804  0.1621
   41MOL    H6744346   1.249   1.233   3.677  1.6646  0.7655  1.1592
   41MOL    H6844347   1.329   1.372   3.641 -0.1184  0.9320 -0.7670
   41MOL    H6944348   1.341   1.252   3.530 -2.0566  0.0022 -2.7942
   41MOL    H7044349   1.120   1.500   3.348  2.6207  3.2643 -1.6448
   41MOL    H7144350   1.261   1.535   3.442  0.2666  0.2905 -0.9504
   41MOL    H7244351   1.268   1.390   3.335  1.0408  0.0722  1.4009
   41MOL    H7344352   1.025   1.266   3.726  2.2595  0.5143 -0.9981
   41MOL    H7444353   0.862   1.385   3.879 -0.7661  1.6359 -0.3457
   41MOL    H7544354   0.931   1.751   3.680 -0.1386 -0.7022 -0.3454
   41MOL    H7644355   1.072   1.641   3.524 -0.6527  1.2139  0.3231
   41MOL    H7744356   0.923   1.404   3.368 -1.6858  0.3066 -1.2014
   41MOL    H7844357   0.764   1.244   3.282 -0.2823  0.3853 -0.3707
   41MOL    H7944358   0.758   0.724   3.398  0.4791  1.8129  0.0134
   41MOL    H8044359   0.849   0.528   3.248 -2.7738  0.0937 -0.5623
   41MOL    H8144360   1.124   0.620   3.226 -0.7105  0.1306  1.0920
   41MOL    H8244361   1.247   0.500   3.404  0.7973 -0.2092 -0.7825
   41MOL    H8344362   0.767   1.717   3.853  2.9306  0.2687 -2.9246
   42MOL     C144363   3.877   1.753   0.803  0.7243  1.0573  0.4821
   42MOL     C244364   3.756   1.737   0.733 -0.0886 -0.2611  0.2930
   42MOL     C344365   3.656   1.833   0.754  0.0653  0.2421 -0.2066
   42MOL     C444366   3.675   1.939   0.843 -0.4268  0.6123  0.2655
   42MOL     S544367   3.544   2.059   0.871 -0.1500  0.0110 -0.1389
   42MOL     O644368   3.493   2.078   0.737  0.2411  0.3007 -0.3575
   42MOL     O744369   3.592   2.174   0.951 -0.7913  0.4787 -0.3772
   42MOL     C844370   3.425   1.966   0.970  0.3085  0.6006  0.2057
   42MOL     C944371   3.462   1.928   1.102  0.0408  0.0206  0.0245
   42MOL    C1044372   3.363   1.885   1.192 -0.2073  0.3261 -0.2844
   42MOL    C1144373   3.231   1.860   1.148 -0.0110 -0.5654  0.2123
   42MOL    O1244374   3.139   1.828   1.241 -0.4926  0.0952  0.3851
   42MOL    C1344375   3.065   1.926   1.300  0.4511 -0.3195  0.7272
   42MOL    C1444376   2.952   1.886   1.372 -0.6902 -0.0312 -0.5024
   42MOL    C1544377   2.873   1.979   1.447  0.6253  0.5847 -0.4287
   42MOL    C1644378   2.910   2.116   1.450 -0.1472 -0.1067  0.4963
   42MOL    C1744379   2.829   2.226   1.522 -0.1948  0.0819  0.2101
   42MOL    C1844380   2.798   2.344   1.429 -1.1937  0.1141 -0.2683
   42MOL    C1944381   2.690   2.181   1.566  0.0362 -0.0288 -0.5019
   42MOL    C2044382   2.910   2.278   1.650 -0.3268  0.1908  0.0684
   42MOL    C2144383   2.967   2.410   1.661 -0.3032  0.1679  0.5504
   42MOL    C2244384   3.056   2.446   1.766 -0.1293  0.6826 -0.2606
   42MOL    C2344385   3.086   2.356   1.867  0.0473 -0.1508 -0.6296
   42MOL    O2444386   3.168   2.394   1.976  0.7472  0.1527 -0.1915
   42MOL    C2544387   3.039   2.224   1.857  0.6019 -0.3842 -0.3143
   42MOL    C2644388   2.950   2.188   1.748 -0.7989 -0.3818 -0.5458
   42MOL    C2744389   3.034   2.150   1.385  0.5303  0.2212  0.2552
   42MOL    C2844390   3.106   2.060   1.308 -0.9988 -0.6012  0.5033
   42MOL    C2944391   3.202   1.875   1.012  0.8808  0.4371  0.0787
   42MOL    C3044392   3.300   1.919   0.921  0.4429 -0.5711  0.0779
   42MOL    C3144393   3.794   1.960   0.909 -0.1926 -0.0212 -0.8347
   42MOL    C3244394   3.899   1.863   0.894  0.9900  0.6800 -0.3200
   42MOL    H3344395   3.740   1.657   0.662 -0.6045 -0.4395  0.6050
   42MOL    H3444396   3.554   1.834   0.719  0.3661 -0.7564 -1.1653
   42MOL    H3544397   3.559   1.963   1.133 -0.3292  0.0620  1.1490
   42MOL    H3644398   3.382   1.876   1.298 -1.1130 -0.5084 -0.1818
   42MOL    H3744399   2.924   1.782   1.368 -1.1416  0.0339  0.9151
   42MOL    H3844400   2.786   1.934   1.493  2.7785 -1.5826  1.7525
   42MOL    H3944401   2.748   2.323   1.335  1.8723 -2.6928 -1.3859
   42MOL    H4044402   2.893   2.392   1.402 -1.3328  0.8138  0.4540
   42MOL    H4144403   2.723   2.409   1.473 -0.1183  0.8528  0.5018
   42MOL    H4244404   2.700   2.108   1.646  3.0855  0.7417 -0.1215
   42MOL    H4344405   2.619   2.261   1.588  2.0780  1.6050  0.2239
   42MOL    H4444406   2.644   2.118   1.489  0.0158  0.3214 -0.7769
   42MOL    H4544407   2.961   2.486   1.584 -0.0279  0.4312  0.7885
   42MOL    H4644408   3.098   2.546   1.766 -1.7067  1.3750  0.4965
   42MOL    H4744409   3.059   2.158   1.940 -1.0888  0.9929  1.2230
   42MOL    H4844410   2.916   2.086   1.747  1.3112 -1.1098 -2.9946
   42MOL    H4944411   3.069   2.251   1.401  2.3963 -0.2529 -0.6456
   42MOL    H5044412   3.197   2.098   1.262 -1.1423 -0.5434  0.2652
   42MOL    H5144413   3.109   1.859   0.959  0.8111  0.6899  0.1248
   42MOL    H5244414   3.271   1.932   0.818 -1.2209  1.1956  0.7441
   42MOL    H5344415   3.809   2.046   0.972 -0.3129 -1.5063  1.2581
   42MOL    H5444416   3.996   1.870   0.940  1.2225  0.5629 -0.7926
   42MOL    H5544417   3.962   1.692   0.776  0.4429  1.7741 -2.1935
   42MOL    C5644418   3.268   2.485   1.969  0.4186 -0.1537  0.7571
   42MOL    C5744419   3.369   2.474   1.874  0.0440 -0.2054  0.5669
   42MOL    C5844420   3.460   2.582   1.860  0.2185 -0.5631  0.4364
   42MOL    C5944421   3.455   2.696   1.948 -0.3917 -0.5174  0.4528
   42MOL    S6044422   3.585   2.828   1.943  0.1505  0.0443  0.0316
   42MOL    O6144423   3.518   2.953   1.994  0.1477 -0.4623  0.1524
   42MOL    O6244424   3.651   2.824   1.813  0.5383 -0.4189 -0.1224
   42MOL    C6344425   3.715   2.789   2.058  0.5247  0.0792  1.0154
   42MOL    C6444426   3.811   2.891   2.083  0.2098 -0.0342  0.8634
   42MOL    C6544427   3.932   2.852   2.150  0.0624  0.9778 -0.2102
   42MOL    C6644428   3.951   2.721   2.203 -0.0920 -0.5877 -0.0700
   42MOL    O6744429   4.062   2.685   2.280  0.5639 -0.6099  0.2501
   42MOL    C6844430   4.187   2.671   2.221 -0.2882 -0.3271 -0.3289
   42MOL    C6944431   4.227   2.543   2.173  0.1239 -0.3272  0.4524
   42MOL    C7044432   4.355   2.527   2.119 -0.3700 -0.0818  0.6229
   42MOL    C7144433   4.445   2.638   2.107  0.3168  0.0887 -0.0485
   42MOL    C7244434   4.588   2.632   2.051 -1.2503 -0.3204 -0.4254
   42MOL    C7344435   4.616   2.483   2.004 -0.5573  0.2521  0.1313
   42MOL    C7444436   4.597   2.724   1.923 -0.0016 -0.0137 -0.7204
   42MOL    C7544437   4.696   2.673   2.159  0.6452 -0.1561 -0.1927
   42MOL    C7644438   4.679   2.607   2.281  0.0275 -0.2105 -0.2517
   42MOL    C7744439   4.773   2.621   2.384 -0.0614 -0.3008  0.7802
   42MOL    C7844440   4.882   2.708   2.369 -0.5388 -0.0175 -0.4363
   42MOL    O7944441   4.979   2.715   2.465  0.2140  0.3027  0.0331
   42MOL    C8044442   4.898   2.783   2.250  0.5815 -0.4171  0.2195
   42MOL    C8144443   4.816   2.747   2.144  0.5771 -0.2286  0.7825
   42MOL    C8244444   4.402   2.763   2.154  0.0390  0.4406  0.1855
   42MOL    C8344445   4.275   2.778   2.211  0.1980 -0.2154  0.3365
   42MOL    C8444446   3.851   2.626   2.181 -0.1743  0.1716 -1.1072
   42MOL    C8544447   3.732   2.661   2.109  0.0045  0.4216 -0.7309
   42MOL    C8644448   3.351   2.706   2.044 -0.2185 -0.1149  0.2696
   42MOL    C8744449   3.256   2.602   2.051  0.1271  0.1038  0.1973
   42MOL    H8844450   3.376   2.385   1.812 -3.8860  0.3923 -0.8611
   42MOL    H8944451   3.540   2.576   1.788  0.2007  1.9113  0.1538
   42MOL    H9044452   3.804   2.985   2.031 -2.0830 -0.9906 -0.6449
   42MOL    H9144453   4.004   2.931   2.161 -0.0589  1.0775 -0.1245
   42MOL    H9244454   4.154   2.463   2.180 -2.3819  1.8947  0.2701
   42MOL    H9344455   4.382   2.429   2.083 -3.2380 -0.4744 -0.5737
   42MOL    H9444456   4.587   2.415   2.085 -1.2246 -3.5255 -3.1013
   42MOL    H9544457   4.724   2.471   1.992 -0.5894 -0.4142  0.4371
   42MOL    H9644458   4.562   2.445   1.917 -1.6789  0.2943  0.8045
   42MOL    H9744459   4.526   2.690   1.848  0.6689  1.0946 -1.8900
   42MOL    H9844460   4.589   2.831   1.943 -2.5716  0.0025 -1.6198
   42MOL    H9944461   4.690   2.704   1.870  1.1880  1.6227  0.6798
   42MOL   H10044462   4.591   2.549   2.304 -1.5357  1.9448 -0.6442
   42MOL   H10144463   4.752   2.580   2.481  1.5915 -0.5375  1.0535
   42MOL   H10244464   4.984   2.847   2.239  1.5149 -1.8807 -1.2674
   42MOL   H10344465   4.841   2.781   2.044 -2.0145 -0.9624 -0.1488
   42MOL   H10444466   4.469   2.847   2.142  0.3696 -0.0135 -1.2481
   42MOL   H10544467   4.241   2.871   2.256  2.3418  0.5797  0.3738
   42MOL   H10644468   3.866   2.525   2.217 -2.4891 -0.6054 -2.2001
   42MOL   H10744469   3.653   2.588   2.100  0.9047 -0.8389  1.0422
   42MOL   H10844470   3.347   2.797   2.100 -1.8094  0.9519 -1.5102
   42MOL   H10944471   3.175   2.614   2.121 -0.9108  0.0762 -0.9972
   42MOL   C11044472   5.051   2.598   2.489  0.4149 -0.1583  0.0895
   42MOL   C11144473   5.061   2.486   2.401  0.2464  0.5120  0.4937
   42MOL   C11244474   5.121   2.365   2.443 -1.1032 -0.3673 -0.3472
   42MOL   C11344475   5.196   2.370   2.564  0.0314 -0.6567 -0.2060
   42MOL   S11444476   5.278   2.228   2.631 -0.1068 -0.4387  0.2587
   42MOL   O11544477   5.345   2.256   2.758  0.0117 -0.5948  0.5534
   42MOL   O11644478   5.356   2.168   2.519 -0.2308  0.1385  0.2082
   42MOL   C11744479   5.155   2.109   2.654  0.2630  0.2303 -0.0032
   42MOL   C11844480   5.139   1.997   2.566  0.2779  0.5234  0.2091
   42MOL   C11944481   5.031   1.910   2.579 -0.8113  0.3173 -0.8101
   42MOL   C12044482   4.945   1.921   2.694 -1.0952  0.3862  0.2474
   42MOL   O12144483   4.852   1.823   2.719  0.0965  0.4383  0.3060
   42MOL   C12244484   4.904   1.697   2.739 -0.1111  0.1796  0.6916
   42MOL   C12344485   4.899   1.597   2.639 -0.3430  0.3343  0.3199
   42MOL   C12444486   4.968   1.469   2.657 -0.4693 -0.0537  0.5613
   42MOL   C12544487   5.039   1.443   2.779  0.2808 -0.3639  0.5741
   42MOL   C12644488   5.125   1.316   2.794 -0.0418  0.1730  0.1494
   42MOL   C12744489   5.089   1.254   2.934 -0.5981 -0.1648  0.2919
   42MOL   C12844490   5.088   1.208   2.683  0.2557  0.7096 -0.0115
   42MOL   C12944491   5.273   1.348   2.779 -0.7824  0.6366  0.5071
   42MOL   C13044492   5.323   1.452   2.696 -0.4334 -0.7603  0.8408
   42MOL   C13144493   5.458   1.487   2.692 -0.3360 -0.0602 -0.2109
   42MOL   C13244494   5.546   1.423   2.775 -0.1794 -0.3602 -0.3293
   42MOL   O13344495   5.679   1.467   2.785  0.1600 -0.2541  0.1721
   42MOL   C13444496   5.502   1.319   2.856  0.0177  0.3979  0.2465
   42MOL   C13544497   5.364   1.277   2.857 -0.2000  0.3951  0.8774
   42MOL   C13644498   5.050   1.543   2.877 -0.1544 -0.2956 -0.4905
   42MOL   C13744499   4.986   1.665   2.851 -0.2626 -1.0005 -0.1912
   42MOL   C13844500   4.962   2.032   2.782  0.4455 -0.1987 -1.1168
   42MOL   C13944501   5.055   2.130   2.753 -0.0510  0.1918 -0.4988
   42MOL   C14044502   5.198   2.481   2.647 -0.3882 -0.2689  0.6438
   42MOL   C14144503   5.121   2.592   2.610 -0.1226  0.1668 -0.5225
   42MOL   H14244504   5.009   2.485   2.306  1.1870 -0.7241 -0.0195
   42MOL   H14344505   5.127   2.269   2.394  0.7697 -0.5494  0.1908
   42MOL   H14444506   5.208   1.974   2.486 -0.7624 -0.3707 -0.4544
   42MOL   H14544507   5.025   1.821   2.517  1.3811  0.2130 -0.9205
   42MOL   H14644508   4.843   1.607   2.547  0.3547 -1.8134 -0.3636
   42MOL   H14744509   4.957   1.397   2.577  1.6560  1.6052 -1.3157
   42MOL   H14844510   4.981   1.251   2.940 -0.8223  0.2083 -2.7773
   42MOL   H14944511   5.127   1.311   3.019 -3.0267  0.9884  0.6408
   42MOL   H15044512   5.122   1.152   2.954  0.8362  0.0115 -1.0581
   42MOL   H15144513   5.105   1.238   2.579  1.8438  0.2544  0.1062
   42MOL   H15244514   5.157   1.128   2.709 -0.3432  0.3746  0.5398
   42MOL   H15344515   4.986   1.171   2.691  0.2963  1.0019  2.2209
   42MOL   H15444516   5.251   1.508   2.639  0.1881  0.8333  1.5721
   42MOL   H15544517   5.490   1.579   2.645 -0.8879 -0.0555 -0.5745
   42MOL   H15644518   5.570   1.260   2.916 -0.7696 -1.1002 -0.3075
   42MOL   H15744519   5.334   1.199   2.924 -1.8296 -0.1429 -0.4501
   42MOL   H15844520   5.094   1.528   2.975 -0.7226 -1.1364 -0.3513
   42MOL   H15944521   4.994   1.741   2.927 -2.1222  1.0830 -2.0183
   42MOL   H16044522   4.896   2.056   2.864  1.5407  0.0164 -0.2879
   42MOL   H16144523   5.045   2.228   2.798  0.4963  0.5377 -1.1142
   42MOL   H16244524   5.259   2.490   2.735 -0.7706  0.1497  0.8726
   42MOL   H16344525   5.137   2.678   2.674  1.0557  0.0556 -0.6688
   42MOL   C16444526   5.705   1.570   2.870  0.0472 -0.4851  0.3609
   42MOL   C16544527   5.761   1.548   2.994  0.0451  0.4668  0.3013
   42MOL   C16644528   5.786   1.648   3.085 -0.1649 -0.0772  0.0995
   42MOL   C16744529   5.787   1.778   3.038  0.6477 -0.3488 -0.0576
   42MOL   S16844530   5.837   1.917   3.140 -0.0100 -0.1148  0.0656
   42MOL   O16944531   5.761   1.908   3.260 -0.6195  0.4806 -0.4794
   42MOL   O17044532   5.831   2.044   3.060  0.1514 -0.1297 -0.2122
   42MOL   C17144533   6.012   1.883   3.185  0.4999 -0.0638  0.5881
   42MOL   C17244534   6.086   1.810   3.093 -0.9218 -0.3480  0.4507
   42MOL   C17344535   6.216   1.770   3.125  0.5459  0.4583 -0.2782
   42MOL   C17444536   6.276   1.812   3.247 -0.8638  0.1501 -0.5057
   42MOL   O17544537   6.399   1.758   3.277 -0.2314  0.0135  0.9141
   42MOL   C17644538   6.402   1.661   3.369 -0.3513  0.0462  0.0177
   42MOL   C17744539   6.459   1.694   3.495  0.0135  0.4901 -0.3127
   42MOL   C17844540   6.470   1.598   3.600 -0.0768  0.0751 -0.7056
   42MOL   C17944541   6.415   1.471   3.580 -0.2029  0.4863 -0.1740
   42MOL   C18044542   6.419   1.367   3.696 -0.1499  0.2338 -0.1600
   42MOL   C18144543   6.536   1.373   3.798  0.7454  0.0062  0.2072
   42MOL   C18244544   6.293   1.403   3.780  0.3177  0.2703  0.4868
   42MOL   C18344545   6.420   1.225   3.641 -0.5053 -0.8331  0.4904
   42MOL   C18444546   6.298   1.153   3.612 -0.5838 -0.3667 -0.3171
   42MOL   C18544547   6.301   1.029   3.549 -0.2672  0.0443 -0.4200
   42MOL   C18644548   6.429   0.974   3.521  0.7293  0.4067 -0.0041
   42MOL   O18744549   6.432   0.860   3.450  0.0048  0.5696 -0.4727
   42MOL   C18844550   6.546   1.033   3.561 -0.4890 -0.2443  0.0646
   42MOL   C18944551   6.541   1.153   3.615  0.1908 -0.2237  0.5549
   42MOL   C19044552   6.357   1.439   3.458  0.0517  0.4437 -0.8204
   42MOL   C19144553   6.350   1.532   3.352 -0.8411 -0.8517  0.4857
   42MOL   C19244554   6.205   1.891   3.342 -0.1023 -0.1289 -0.1257
   42MOL   C19344555   6.071   1.924   3.311  0.7073  0.3936 -0.5793
   42MOL   C19444556   5.736   1.800   2.909 -0.6205 -0.4528 -0.5696
   42MOL   C19544557   5.695   1.704   2.816 -0.0555 -0.6185 -0.0651
   42MOL   H19644558   5.759   1.444   3.023  0.4344  0.1561 -0.7653
   42MOL   H19744559   5.822   1.612   3.180  0.6831 -0.8137 -0.4991
   42MOL   H19844560   6.047   1.777   2.998  0.6326 -0.6193 -0.1221
   42MOL   H19944561   6.275   1.698   3.070  0.6886  1.1225 -1.0093
   42MOL   H20044562   6.501   1.791   3.517  0.2864  0.0683  1.0237
   42MOL   H20144563   6.513   1.625   3.695  1.0161 -0.2360 -1.1058
   42MOL   H20244564   6.519   1.453   3.870 -1.2946  1.2275 -1.5822
   42MOL   H20344565   6.632   1.401   3.753  0.2296 -0.9885 -1.5615
   42MOL   H20444566   6.552   1.284   3.859  1.4119 -0.5015 -0.6968
   42MOL   H20544567   6.292   1.500   3.830 -0.3619 -0.4123  1.8263
   42MOL   H20644568   6.201   1.396   3.722  1.2168  0.1349 -0.9389
   42MOL   H20744569   6.283   1.325   3.855  1.6854 -0.1339  0.2571
   42MOL   H20844570   6.199   1.195   3.620 -1.1489 -1.8916  0.9595
   42MOL   H20944571   6.216   0.971   3.515  0.7877 -0.8141 -1.6136
   42MOL   H21044572   6.634   0.975   3.536 -2.1826 -1.9194 -2.2680
   42MOL   H21144573   6.632   1.205   3.640  0.3264 -0.9246  1.5653
   42MOL   H21244574   6.305   1.345   3.447  0.7836 -0.0345 -0.2180
   42MOL   H21344575   6.306   1.513   3.256  1.3130  0.1577 -0.7505
   42MOL   H21444576   6.242   1.920   3.439 -1.0533 -1.3314  0.6132
   42MOL   H21544577   6.002   1.963   3.384  0.8918 -1.2953  0.5064
   42MOL   H21644578   5.736   1.904   2.879 -1.4678 -0.4340 -0.5395
   42MOL   H21744579   5.677   1.728   2.713 -1.3299 -1.9204 -0.1686
   42MOL   C21844580   6.460   0.754   3.526  0.2786 -0.1123 -0.1689
   42MOL   C21944581   6.588   0.697   3.534  0.0019  0.1041  0.1016
   42MOL   C22044582   6.608   0.591   3.631 -0.3488 -0.0082  0.1825
   42MOL   C22144583   6.496   0.534   3.698  0.2955 -0.2797 -0.4050
   42MOL   S22244584   6.498   0.392   3.814 -0.4402 -0.3429 -0.1748
   42MOL   O22344585   6.373   0.315   3.809  0.2927  0.0421 -0.0288
   42MOL   O22444586   6.554   0.437   3.938 -0.2482 -0.3739 -0.4092
   42MOL   C22544587   6.616   0.282   3.741 -0.0958  0.3773 -0.0369
   42MOL   C22644588   6.726   0.238   3.818 -0.5790 -0.6349 -0.4226
   42MOL   C22744589   6.820   0.154   3.755  0.1779  0.6176  0.1886
   42MOL   C22844590   6.806   0.111   3.620  0.2454  0.1772  0.6055
   42MOL   O22944591   6.887   0.019   3.561 -0.2541  0.3786  0.0347
   42MOL   C23044592   6.984   0.068   3.476 -0.1374  0.4240 -0.1887
   42MOL   C23144593   7.020   0.002   3.361 -0.2738  0.7511  0.1474
   42MOL   C23244594   7.128   0.046   3.283  0.0762  0.3700 -0.3419
   42MOL   C23344595   7.202   0.159   3.320  0.2170  0.1953  0.1814
   42MOL   C23444596   7.323   0.212   3.235  0.0506 -0.4566 -0.3021
   42MOL   C23544597   7.459   0.182   3.303  0.4526 -0.6112 -0.1084
   42MOL   C23644598   7.324   0.147   3.091 -0.0720  0.0486 -0.2533
   42MOL   C23744599   7.306   0.368   3.211 -0.2067 -0.5931 -0.0862
   42MOL   C23844600   7.385   0.469   3.272 -0.3738  1.1440 -0.1526
   42MOL   C23944601   7.369   0.607   3.248 -0.4201  0.1466 -0.1356
   42MOL   C24044602   7.266   0.643   3.156  0.1238 -0.2709 -0.6029
   42MOL   O24144603   7.250   0.776   3.125  0.3294 -0.3348  0.8352
   42MOL   C24244604   7.181   0.545   3.093  0.1161  0.3383  0.0829
   42MOL   C24344605   7.202   0.409   3.123  0.4774  0.4971  0.1849
   42MOL   C24444606   7.166   0.233   3.436  0.1459 -0.3672 -0.2554
   42MOL   C24544607   7.065   0.182   3.515 -0.4755 -0.9360  0.4888
   42MOL   C24644608   6.697   0.154   3.552 -0.0589 -0.6756  0.0451
   42MOL   C24744609   6.604   0.249   3.606 -0.4760  0.3778  0.2889
   42MOL   C24844610   6.368   0.592   3.681 -1.3792  0.0436 -0.8486
   42MOL   C24944611   6.352   0.702   3.597 -0.1481  1.0258 -0.3564
   42MOL   H25044612   6.659   0.741   3.465 -1.7793 -0.3665 -2.0707
   42MOL   H25144613   6.702   0.538   3.637 -0.4946 -0.5778 -2.0520
   42MOL   H25244614   6.741   0.268   3.921  0.0451 -3.7644  0.4358
   42MOL   H25344615   6.912   0.128   3.806 -0.4348 -1.8577  0.0749
   42MOL   H25444616   6.963   8.172   3.322 -0.2561  1.2484 -0.9440
   42MOL   H25544617   7.148   8.238   3.196  3.2130  1.8884 -0.7532
   42MOL   H25644618   7.450   0.242   3.393 -0.5602  1.6303 -1.6574
   42MOL   H25744619   7.545   0.207   3.241 -0.8476 -0.5821 -1.9341
   42MOL   H25844620   7.483   0.078   3.323  1.9601 -0.3632 -0.5323
   42MOL   H25944621   7.351   0.043   3.106 -2.2252 -0.3856  0.8173
   42MOL   H26044622   7.228   0.136   3.041  0.0206  1.2946 -0.7266
   42MOL   H26144623   7.394   0.207   3.033  0.6764 -1.6733 -1.1571
   42MOL   H26244624   7.468   0.440   3.335 -0.5595  0.9164 -0.0102
   42MOL   H26344625   7.426   0.683   3.298 -1.6144  0.7145  0.3856
   42MOL   H26444626   7.101   0.581   3.030 -0.7240 -1.4967  0.0776
   42MOL   H26544627   7.132   0.337   3.085  1.0943 -2.0609  3.6183
   42MOL   H26644628   7.218   0.322   3.467 -0.6537 -0.3435  1.0240
   42MOL   H26744629   7.046   0.221   3.614 -2.6051 -2.7754  0.8431
   42MOL   H26844630   6.670   0.128   3.450 -0.4384 -0.4335  0.0816
   42MOL   H26944631   6.520   0.292   3.553 -0.8779 -0.8841 -0.0934
   42MOL   H27044632   6.277   0.560   3.730  0.5598 -1.7148  1.7582
   42MOL   H27144633   6.255   0.746   3.580 -0.0520  2.0461  1.5400
   42MOL   C27244634   7.188   0.859   3.213  0.0149 -0.2550 -0.9933
   42MOL   C27344635   7.060   0.825   3.263  0.0681  0.6516 -0.0237
   42MOL   C27444636   6.998   0.906   3.359 -0.1485  0.1403  0.2495
   42MOL   C27544637   7.053   1.029   3.392  0.8445  0.0099  0.0116
   42MOL   S27644638   6.969   1.121   3.510  0.5641 -0.1472  0.7360
   42MOL   O27744639   7.065   1.203   3.581 -0.0619 -0.6431 -0.0792
   42MOL   O27844640   6.888   1.031   3.584  0.1843 -0.0462  0.2751
   42MOL   C27944641   6.862   1.231   3.416  0.2949  0.2711 -0.6271
   42MOL   C28044642   6.824   1.204   3.283  0.0624  0.2275 -0.0261
   42MOL   C28144643   6.752   1.308   3.209  0.7326  0.5824  0.7270
   42MOL   C28244644   6.704   1.421   3.270 -0.4108  0.0915 -0.0235
   42MOL   O28344645   6.623   1.508   3.206  0.2540 -0.2959  0.1135
   42MOL   C28444646   6.686   1.590   3.119  0.5406  0.0022  0.2489
   42MOL   C28544647   6.680   1.555   2.983 -0.4618  0.8001  0.5425
   42MOL   C28644648   6.733   1.639   2.888  0.2449  0.2191 -0.6319
   42MOL   C28744649   6.811   1.747   2.931  0.5811 -0.5692 -0.3740
   42MOL   C28844650   6.880   1.829   2.824  0.6371 -0.2572 -0.3152
   42MOL   C28944651   6.956   1.751   2.717 -0.2188  0.5323  0.7923
   42MOL   C29044652   6.773   1.904   2.750  0.5401 -0.6470  0.3570
   42MOL   C29144653   6.977   1.935   2.885  0.4462  0.3640  0.1265
   42MOL   C29244654   7.101   1.885   2.933 -0.1824  0.2111  0.0026
   42MOL   C29344655   7.189   1.965   3.005 -0.0060  0.6321 -0.3328
   42MOL   C29444656   7.152   2.097   3.034  0.3416  0.3901  0.3089
   42MOL   O29544657   7.235   2.173   3.109 -0.4493  0.2378 -0.7416
   42MOL   C29644658   7.034   2.157   2.982 -0.3936 -1.1024  0.0429
   42MOL   C29744659   6.946   2.071   2.911  0.6321 -0.8821  0.6196
   42MOL   C29844660   6.822   1.784   3.066 -0.0959  0.2490 -0.4354
   42MOL   C29944661   6.758   1.706   3.161 -0.3197 -0.2857  0.4171
   42MOL   C30044662   6.736   1.442   3.406  0.0039  0.1493 -0.6718
   42MOL   C30144663   6.820   1.356   3.476  0.1529  0.1615  0.0230
   42MOL   C30244664   7.178   1.071   3.349  0.6206 -0.0366  0.1075
   42MOL   C30344665   7.245   0.983   3.258 -0.4216  0.0823  0.6995
   42MOL   H30444666   7.018   0.732   3.229 -2.0070  1.9578 -1.1236
   42MOL   H30544667   6.905   0.867   3.396  0.1264 -0.6535  0.1256
   42MOL   H30644668   6.831   1.107   3.235 -0.0473 -1.2405  2.7769
   42MOL   H30744669   6.717   1.285   3.109 -1.9108  2.9673  1.0549
   42MOL   H30844670   6.622   1.468   2.954 -0.5366  1.0593 -0.1042
   42MOL   H30944671   6.710   1.618   2.785  0.5547 -1.3778 -0.3999
   42MOL   H31044672   7.024   1.819   2.665  0.2722 -0.2575  0.3870
   42MOL   H31144673   6.908   1.689   2.641 -0.2612  1.2888  0.1907
   42MOL   H31244674   7.033   1.684   2.754  1.4618  0.9547 -1.7447
   42MOL   H31344675   6.718   1.970   2.818 -1.7734 -0.5263 -1.5723
   42MOL   H31444676   6.815   1.967   2.672  2.2260 -1.6595  0.4328
   42MOL   H31544677   6.689   1.848   2.711  1.2102 -1.9260  0.7397
   42MOL   H31644678   7.117   1.780   2.916 -2.7017 -0.4728  1.4658
   42MOL   H31744679   7.278   1.926   3.052 -0.0898  1.4594  0.5062
   42MOL   H31844680   7.028   2.262   3.003  0.2969 -1.6973  3.6067
   42MOL   H31944681   6.859   2.112   2.861  2.0165  0.2280 -0.9473
   42MOL   H32044682   6.876   1.870   3.102  0.2716  0.0162 -0.4287
   42MOL   H32144683   6.766   1.738   3.264  0.0390  2.0432 -0.2832
   42MOL   H32244684   6.704   1.539   3.441 -0.8714  0.7602 -3.0410
   42MOL   H32344685   6.845   1.371   3.580  0.5011 -0.9933  0.1127
   42MOL   H32444686   7.227   1.165   3.372  0.6329 -0.0748  0.2369
   42MOL   H32544687   7.346   1.006   3.227  0.4664  0.2935  3.5458
   42MOL   C32644688   7.366   2.182   3.075  0.2182 -0.3952 -0.1860
   42MOL   C32744689   7.400   2.249   2.954  0.2390 -0.2346 -0.4475
   42MOL   C32844690   7.534   2.249   2.912 -0.5221 -0.4437  0.1972
   42MOL   C32944691   7.633   2.193   3.000  0.5768  0.1856  0.4404
   42MOL   S33044692   7.800   2.182   2.941 -0.1850 -0.4960  0.4312
   42MOL   O33144693   7.800   2.087   2.825 -0.2754 -0.3846 -0.8731
   42MOL   O33244694   7.877   2.160   3.064 -0.3567  0.2776 -0.4141
   42MOL   C33344695   7.843   2.349   2.883  0.3866 -0.2848 -0.9166
   42MOL   C33444696   7.785   2.458   2.956  0.1840  0.1009 -0.0786
   42MOL   C33544697   7.807   2.592   2.926  0.6596  0.3926  0.1022
   42MOL   C33644698   7.889   2.618   2.810  0.3133  0.4497 -0.0718
   42MOL   O33744699   7.921   2.746   2.776  0.2576 -0.5101 -0.8891
   42MOL   C33844700   7.846   2.812   2.680  0.2109 -0.6310 -1.1024
   42MOL   C33944701   7.785   2.927   2.728 -0.5300 -0.1030 -0.2012
   42MOL   C34044702   7.710   3.002   2.637  0.0503 -0.4049  0.0708
   42MOL   C34144703   7.666   2.955   2.506  0.4468 -0.3874 -0.1360
   42MOL   C34244704   7.564   3.038   2.418 -0.3162  0.1339  0.1265
   42MOL   C34344705   7.620   3.184   2.410 -0.3389  0.0580 -0.2154
   42MOL   C34444706   7.559   2.989   2.272 -0.1826 -0.0644  0.5285
   42MOL   C34544707   7.425   3.020   2.475 -0.3568 -0.7356  0.0712
   42MOL   C34644708   7.399   2.937   2.589  0.5354 -0.5413 -0.0191
   42MOL   C34744709   7.266   2.920   2.631  0.0315  0.0830 -0.1150
   42MOL   C34844710   7.166   3.006   2.583  0.2224 -0.0136 -0.2115
   42MOL   O34944711   7.034   2.994   2.626 -0.5618  0.1428  0.0228
   42MOL   C35044712   7.196   3.105   2.487  1.0615 -0.0146  0.2037
   42MOL   C35144713   7.325   3.111   2.425 -0.0238  0.2347 -0.2809
   42MOL   C35244714   7.723   2.830   2.466 -1.0875 -0.1789  0.1294
   42MOL   C35344715   7.819   2.761   2.549  0.2212  0.2886 -0.0168
   42MOL   C35444716   7.951   2.517   2.739 -0.3075  0.3449 -0.1231
   42MOL   C35544717   7.934   2.379   2.777  0.3333  0.2157  0.1243
   42MOL   C35644718   7.596   2.126   3.122  0.1332 -0.0554 -0.0109
   42MOL   C35744719   7.462   2.119   3.158  0.6772 -0.5007  0.1351
   42MOL   H35844720   7.324   2.296   2.894 -0.5569  1.7553  2.0162
   42MOL   H35944721   7.566   2.275   2.813  2.1935 -1.8435  0.6502
   42MOL   H36044722   7.722   2.421   3.036  0.3961  1.7643  0.8802
   42MOL   H36144723   7.769   2.674   2.985 -0.3862  0.3545 -0.5075
   42MOL   H36244724   7.812   2.951   2.829 -3.7414  0.3471  0.6214
   42MOL   H36344725   7.670   3.094   2.677 -2.0213 -0.6249 -1.4072
   42MOL   H36444726   7.626   3.239   2.504  1.0646  1.9005 -1.3413
   42MOL   H36544727   7.562   3.240   2.336  0.7974  1.0828 -0.3308
   42MOL   H36644728   7.718   3.193   2.364 -0.8000  1.0731 -1.0222
   42MOL   H36744729   7.658   2.993   2.227 -0.4966  1.3074 -0.0737
   42MOL   H36844730   7.536   2.885   2.251  0.7584 -0.0283 -0.7016
   42MOL   H36944731   7.501   3.054   2.206  0.4100 -0.6866 -0.5980
   42MOL   H37044732   7.484   2.880   2.621  1.0829  0.7780  0.9236
   42MOL   H37144733   7.263   2.847   2.711  0.7414  2.6566  2.3589
   42MOL   H37244734   7.118   3.159   2.435  0.1263 -0.5796  1.0044
   42MOL   H37344735   7.337   3.171   2.336 -2.3861  1.3502  0.0909
   42MOL   H37444736   7.684   2.781   2.378  0.2548  1.0322 -1.1851
   42MOL   H37544737   7.865   2.669   2.517 -0.7997  0.3271 -1.6825
   42MOL   H37644738   8.016   2.549   2.658 -0.4691  1.8738  0.3259
   42MOL   H37744739   7.973   2.293   2.725  0.1806  1.0463 -1.3871
   42MOL   H37844740   7.675   2.081   3.180 -0.6490  0.3871  1.4171
   42MOL   H37944741   7.430   2.051   3.235  1.5334 -2.2960 -1.0666
   42MOL   C38044742   6.962   3.111   2.660  0.0606 -0.6368 -0.3123
   42MOL   C38144743   7.020   3.210   2.743  0.0617 -0.0196 -1.1848
   42MOL   C38244744   6.960   3.342   2.758  0.0051 -0.2000 -0.2962
   42MOL   C38344745   6.838   3.367   2.701  0.0196 -0.3112  0.5611
   42MOL   S38444746   6.748   3.513   2.753  0.0431  0.4112  0.6128
   42MOL   O38544747   6.606   3.495   2.717 -0.4403  0.0704 -0.0724
   42MOL   O38644748   6.827   3.628   2.712  0.2294 -0.9104  0.6103
   42MOL   C38744749   6.743   3.515   2.928  0.3144 -0.0476  0.0081
   42MOL   C38844750   6.665   3.420   2.988  0.1605 -0.3218  0.1349
   42MOL   C38944751   6.625   3.437   3.123  0.1372 -0.3469 -0.0581
   42MOL   C39044752   6.684   3.540   3.206 -0.0578 -0.4716 -0.2650
   42MOL   O39144753   6.647   3.567   3.337 -0.5729  0.1033 -0.1400
   42MOL   C39244754   6.584   3.467   3.407  0.7841  0.1502 -0.0694
   42MOL   C39344755   6.637   3.342   3.437  0.7148  0.2073 -0.0431
   42MOL   C39444756   6.567   3.248   3.510  0.1720  0.6874  0.0982
   42MOL   C39544757   6.444   3.274   3.566  0.4195  0.0382  0.5252
   42MOL   C39644758   6.376   3.161   3.646 -0.4040  1.1610 -0.0685
   42MOL   C39744759   6.474   3.133   3.772  0.6918 -0.1407 -0.1130
   42MOL   C39844760   6.238   3.203   3.699 -0.0578 -0.4234 -0.8751
   42MOL   C39944761   6.360   3.030   3.572 -0.1477  0.3050 -0.3825
   42MOL   C40044762   6.323   2.910   3.641 -0.1785 -0.1019  0.0245
   42MOL   C40144763   6.312   2.786   3.570 -0.3549 -0.2443  0.6289
   42MOL   C40244764   6.328   2.783   3.427 -0.0597 -0.2070  0.0860
   42MOL   O40344765   6.311   2.663   3.358  0.0746 -0.0085 -0.7902
   42MOL   C40444766   6.350   2.909   3.360 -0.4521 -0.0045  0.0881
   42MOL   C40544767   6.374   3.027   3.432  0.5329 -0.3276 -0.0157
   42MOL   C40644768   6.385   3.400   3.541  0.8657  0.0785 -0.0008
   42MOL   C40744769   6.451   3.493   3.457  0.0415 -0.2004 -0.0171
   42MOL   C40844770   6.777   3.632   3.142  0.0312  0.3233  0.6104
   42MOL   C40944771   6.799   3.619   3.002  0.0305  0.1593  0.1712
   42MOL   C41044772   6.774   3.272   2.614 -0.3410  0.2998  0.7574
   42MOL   C41144773   6.833   3.143   2.599  0.0118  0.7129  0.1973
   42MOL   H41244774   7.117   3.207   2.791  0.5356 -0.4143 -2.1524
   42MOL   H41344775   7.017   3.411   2.819 -0.7673  0.6121 -0.4771
   42MOL   H41444776   6.610   3.343   2.937  1.5734 -0.2122 -1.6022
   42MOL   H41544777   6.550   3.367   3.159  1.2211 -0.7294  1.4966
   42MOL   H41644778   6.734   3.312   3.401  0.2397 -1.7678  0.2527
   42MOL   H41744779   6.620   3.155   3.522  0.7437  0.9405 -0.4614
   42MOL   H41844780   6.557   3.070   3.741  1.0159 -0.2720  1.0129
   42MOL   H41944781   6.425   3.083   3.856 -0.0208  2.0898  0.8639
   42MOL   H42044782   6.514   3.226   3.812 -0.5364  0.5569 -0.4540
   42MOL   H42144783   6.194   3.129   3.766 -0.1119  0.1644 -0.2552
   42MOL   H42244784   6.238   3.295   3.757  2.5275 -0.7056 -0.3815
   42MOL   H42344785   6.172   3.225   3.615 -1.0483 -0.7117 -0.1849
   42MOL   H42444786   6.299   2.913   3.746  0.7581  0.3859  0.2254
   42MOL   H42544787   6.282   2.691   3.611  0.8661 -1.3950 -1.0848
   42MOL   H42644788   6.359   2.914   3.253 -0.3570  1.6219  0.1601
   42MOL   H42744789   6.389   3.116   3.374 -1.3467  1.5045  2.2248
   42MOL   H42844790   6.286   3.418   3.581  0.5275 -1.4625 -0.0881
   42MOL   H42944791   6.417   3.592   3.433  3.2076  0.1013 -3.7055
   42MOL   H43044792   6.812   3.712   3.206  1.9094  2.5564 -3.0863
   42MOL   H43144793   6.865   3.689   2.952  0.5234  1.7904  3.0612
   42MOL   H43244794   6.676   3.293   2.574  0.0709  1.4150  0.3055
   42MOL   H43344795   6.795   3.065   2.535 -1.8125  0.4674  1.5244
   42MOL   C43444796   6.381   2.649   3.245 -0.1322 -0.2021 -0.3742
   42MOL   C43544797   6.316   2.676   3.123 -0.4417  0.3416 -0.7547
   42MOL   C43644798   6.388   2.668   3.003 -0.3922 -0.5550 -0.7483
   42MOL   C43744799   6.523   2.623   3.003  0.1988  0.1301 -0.8304
   42MOL   S43844800   6.607   2.592   2.843  0.0693  0.5175  0.3348
   42MOL   O43944801   6.657   2.456   2.857 -0.1374 -0.0205  0.4046
   42MOL   O44044802   6.693   2.705   2.816 -0.0719  0.2783 -0.0568
   42MOL   C44144803   6.473   2.577   2.725 -0.3148 -0.0915  0.0971
   42MOL   C44244804   6.409   2.457   2.689 -0.0869 -0.2940  0.3243
   42MOL   C44344805   6.295   2.455   2.608  0.8266 -0.2020  0.6237
   42MOL   C44444806   6.246   2.582   2.564 -0.3749  0.0411 -0.3149
   42MOL   O44544807   6.128   2.584   2.495  0.7155 -0.5238 -0.4569
   42MOL   C44644808   6.130   2.549   2.361  0.4855 -0.7273 -0.3066
   42MOL   C44744809   6.032   2.468   2.299  0.4153  0.7576  0.7019
   42MOL   C44844810   6.026   2.433   2.166 -0.1137 -0.2174  0.7375
   42MOL   C44944811   6.129   2.475   2.083 -0.3097 -0.0582 -0.1124
   42MOL   C45044812   6.135   2.432   1.936 -0.7897  0.3307  0.5152
   42MOL   C45144813   6.232   2.312   1.930 -0.1601  0.0284 -0.1463
   42MOL   C45244814   5.995   2.373   1.878 -0.6039 -0.2652 -0.4385
   42MOL   C45344815   6.172   2.547   1.846 -0.9626 -0.1102 -0.0724
   42MOL   C45444816   6.100   2.668   1.857  0.5551 -0.3650 -0.8948
   42MOL   C45544817   6.135   2.775   1.774 -0.3136 -0.0910 -0.1764
   42MOL   C45644818   6.237   2.766   1.674  0.7670 -0.4102  0.0574
   42MOL   O45744819   6.275   2.875   1.595  0.1676 -0.5571  0.0550
   42MOL   C45844820   6.318   2.653   1.671 -0.2532  0.0067 -0.0998
   42MOL   C45944821   6.283   2.544   1.755  0.0947 -0.6051 -0.8972
   42MOL   C46044822   6.236   2.553   2.141  0.6929 -0.2120  0.3397
   42MOL   C46144823   6.230   2.597   2.273 -0.3001 -0.0210  0.0657
   42MOL   C46244824   6.306   2.702   2.596 -0.6509 -0.0143 -0.8774
   42MOL   C46344825   6.423   2.702   2.671 -0.4079  0.0755 -0.2249
   42MOL   C46444826   6.588   2.591   3.123  0.4823  0.4606  0.2502
   42MOL   C46544827   6.511   2.603   3.239 -0.4905  0.2939 -0.1718
   42MOL   H46644828   6.213   2.706   3.135 -1.2028 -2.2377 -0.3508
   42MOL   H46744829   6.348   2.688   2.904 -0.9100 -3.4009 -1.1616
   42MOL   H46844830   6.438   2.365   2.737 -2.2015  0.4525  3.1846
   42MOL   H46944831   6.243   2.367   2.574 -0.5355  1.8678 -2.9868
   42MOL   H47044832   5.957   2.430   2.368  1.7049 -0.6985  1.3189
   42MOL   H47144833   5.936   2.380   2.138 -0.7422  0.6207  1.1393
   42MOL   H47244834   6.234   2.285   1.825  0.1815  1.0461 -0.4105
   42MOL   H47344835   6.205   2.228   1.994  2.0237  0.9651  2.1077
   42MOL   H47444836   6.333   2.342   1.960 -0.1505  1.0559 -1.1836
   42MOL   H47544837   6.011   2.328   1.780 -2.9090  1.8991 -1.8647
   42MOL   H47644838   5.970   2.291   1.946  1.0618 -2.2993 -2.2133
   42MOL   H47744839   5.910   2.440   1.883 -1.2197 -1.1214  0.9501
   42MOL   H47844840   6.020   2.674   1.929  1.5841  5.2915 -0.0394
   42MOL   H47944841   6.083   2.870   1.780 -0.4844 -0.3042  2.1732
   42MOL   H48044842   6.407   2.647   1.610 -0.1518  1.1984 -0.0769
   42MOL   H48144843   6.351   2.460   1.751 -0.5253 -1.0614 -1.8820
   42MOL   H48244844   6.304   2.591   2.067 -0.0615  1.7827  0.6477
   42MOL   H48344845   6.305   2.663   2.314 -0.2347  0.9461 -1.5286
   42MOL   H48444846   6.265   2.797   2.566  1.1742  1.1151  0.0915
   42MOL   H48544847   6.486   2.789   2.680 -0.7764  0.5494 -2.0411
   42MOL   H48644848   6.685   2.545   3.125  0.1218 -0.2781  1.7523
   42MOL   H48744849   6.549   2.569   3.334 -1.2126 -0.3448 -0.1046
   42MOL   C48844850   6.245   2.877   1.458 -0.1906 -0.0492 -0.3614
   42MOL   C48944851   6.166   2.773   1.394 -0.1737  0.8887  0.5216
   42MOL   C49044852   6.139   2.781   1.257  0.0221 -0.4247  0.0531
   42MOL   C49144853   6.179   2.892   1.186 -0.0457  0.0716 -0.4429
   42MOL   S49244854   6.130   2.901   1.009 -0.2970  0.1012 -0.0744
   42MOL   O49344855   6.053   2.775   0.985 -0.3609 -0.0362 -0.3777
   42MOL   O49444856   6.249   2.937   0.931  0.1242 -0.1055 -0.9356
   42MOL   C49544857   6.011   3.034   1.002 -0.6542  1.2118  0.2069
   42MOL   C49644858   5.940   3.067   1.115  0.4055  0.0595 -0.1836
   42MOL   C49744859   5.851   3.179   1.119 -0.9561  0.4126 -0.6393
   42MOL   C49844860   5.820   3.239   1.003  0.1243 -0.2398 -0.1392
   42MOL   O49944861   5.743   3.352   1.003  0.2597 -0.1924 -0.6823
   42MOL   C50044862   5.607   3.343   0.956  0.2506 -0.5164 -0.0092
   42MOL   C50144863   5.493   3.364   1.036 -0.2573 -0.0582  0.1495
   42MOL   C50244864   5.359   3.353   0.995 -0.7728  0.7959  0.0562
   42MOL   C50344865   5.338   3.308   0.863  0.1613  0.1572  0.6634
   42MOL   C50444866   5.201   3.277   0.803  0.0435  0.1919  0.1574
   42MOL   C50544867   5.212   3.125   0.778  0.1984  0.3062 -0.2650
   42MOL   C50644868   5.085   3.297   0.902  0.5460  0.0731 -0.0566
   42MOL   C50744869   5.174   3.357   0.674  0.1166 -0.2963  0.1204
   42MOL   C50844870   5.171   3.498   0.681  0.0428  0.1317  0.5692
   42MOL   C50944871   5.161   3.575   0.563  1.0253  0.9979  0.2038
   42MOL   C51044872   5.130   3.515   0.442  0.2539  0.3123  0.0162
   42MOL   O51144873   5.116   3.594   0.330 -0.4826  0.1038 -0.1803
   42MOL   C51244874   5.125   3.372   0.434 -0.2374 -0.1211 -0.0965
   42MOL   C51344875   5.145   3.297   0.549 -0.6671  0.3047 -0.9486
   42MOL   C51444876   5.448   3.310   0.772  0.3232 -0.3507 -0.2464
   42MOL   C51544877   5.578   3.333   0.818 -0.5648  0.2727 -0.2398
   42MOL   C51644878   5.884   3.205   0.881  0.4327 -0.3724 -0.0739
   42MOL   C51744879   5.983   3.109   0.881 -0.8821 -0.2747 -0.6915
   42MOL   C51844880   6.252   2.992   1.244 -0.0258  0.4629  0.1774
   42MOL   C51944881   6.282   2.989   1.382 -0.9082  0.4844  0.2411
   42MOL   H52044882   6.139   2.678   1.438  0.9871  0.3863  0.1574
   42MOL   H52144883   6.078   2.704   1.213 -2.0220  0.3442  1.4137
   42MOL   H52244884   5.958   3.004   1.201  0.4488 -0.1149 -0.3214
   42MOL   H52344885   5.819   3.215   1.216  0.3279 -1.8126  0.6641
   42MOL   H52444886   5.504   3.396   1.138 -1.0201 -0.0681  0.2303
   42MOL   H52544887   5.288   3.366   1.075 -0.2397  1.9277  0.3502
   42MOL   H52644888   5.286   3.105   0.701 -0.4638 -0.0234 -0.8227
   42MOL   H52744889   5.119   3.083   0.739 -0.4789 -0.2194  1.8345
   42MOL   H52844890   5.244   3.062   0.862 -0.9685 -3.0085 -2.2098
   42MOL   H52944891   4.990   3.264   0.860  1.7911 -1.5171 -1.6981
   42MOL   H53044892   5.101   3.252   1.000  1.9898 -0.6138 -0.6004
   42MOL   H53144893   5.071   3.403   0.925  0.8772 -0.1150  1.0815
   42MOL   H53244894   5.195   3.548   0.773 -0.8819 -0.4837  1.1490
   42MOL   H53344895   5.167   3.683   0.568 -0.4214  1.1035 -0.1277
   42MOL   H53444896   5.094   3.323   0.343 -0.3053 -1.0839  0.4459
   42MOL   H53544897   5.128   3.190   0.544  2.6321 -0.2676 -0.9140
   42MOL   H53644898   5.435   3.297   0.666  2.5915 -0.8949 -0.4933
   42MOL   H53744899   5.656   3.326   0.743 -0.6330  0.4956 -0.3286
   42MOL   H53844900   5.855   3.256   0.791 -0.9577 -0.8557  0.0778
   42MOL   H53944901   6.048   3.088   0.797  0.8522 -0.1095  0.5639
   42MOL   H54044902   6.285   3.080   1.191 -0.3154 -0.3033 -1.2992
   42MOL   H54144903   6.335   3.069   1.431 -0.2076  0.4801 -0.5041
   42MOL   C54244904   5.228   3.605   0.258  0.5048 -0.1501 -0.1191
   42MOL   C54344905   5.311   3.723   0.265 -0.0034  0.2327 -0.3783
   42MOL   C54444906   5.420   3.735   0.177 -0.7338  0.8785  0.8782
   42MOL   C54544907   5.438   3.637   0.074  0.2596  0.2570  0.0971
   42MOL   S54644908   5.551   3.669   8.195  0.0936  0.0132  0.1511
   42MOL   O54744909   5.521   3.787   8.117  0.1832  0.1556 -0.0323
   42MOL   O54844910   5.575   3.539   8.136  0.2900 -0.0783 -0.3687
   42MOL   C54944911   5.711   3.699   0.026 -0.2199  0.7115 -0.5665
   42MOL   C55044912   5.771   3.826   0.013 -0.1995 -0.6887 -0.5545
   42MOL   C55144913   5.866   3.862   0.108 -0.2202 -0.0318 -0.1847
   42MOL   C55244914   5.913   3.772   0.203  0.0184 -0.4730 -0.0094
   42MOL   O55344915   6.007   3.820   0.290  0.6220  0.2739 -0.0615
   42MOL   C55444916   6.125   3.746   0.311 -0.3485  0.0529 -0.6227
   42MOL   C55544917   6.150   3.673   0.426 -0.2000  0.1805  0.0604
   42MOL   C55644918   6.273   3.624   0.463  0.1005  0.0335 -0.5804
   42MOL   C55744919   6.389   3.653   0.389 -0.2683  0.2571 -0.7846
   42MOL   C55844920   6.527   3.627   0.444  0.5909  0.1934 -0.4603
   42MOL   C55944921   6.603   3.754   0.487 -0.3062 -0.6300 -0.2561
   42MOL   C56044922   6.521   3.550   0.580 -0.2593  0.3585 -0.0384
   42MOL   C56144923   6.615   3.541   0.345  0.0134  0.5768  0.4826
   42MOL   C56244924   6.728   3.597   0.275  0.4617 -0.3059  1.0242
   42MOL   C56344925   6.815   3.522   0.195 -0.6990  0.2755 -0.5161
   42MOL   C56444926   6.793   3.383   0.180 -0.4748 -0.5799  0.2350
   42MOL   O56544927   6.867   3.311   0.087  0.6575  0.4028 -0.4132
   42MOL   C56644928   6.688   3.324   0.249 -0.9049  0.6902 -0.3894
   42MOL   C56744929   6.603   3.397   0.331  0.8591 -0.4003  1.0616
   42MOL   C56844930   6.369   3.727   0.272  0.4488  0.4525  0.1892
   42MOL   C56944931   6.238   3.764   0.226 -0.1845 -0.2551 -0.4114
   42MOL   C57044932   5.856   3.647   0.216 -0.7755  0.5620 -0.0678
   42MOL   C57144933   5.752   3.607   0.127  0.2531  0.0947 -0.2515
   42MOL   C57244934   5.352   3.528   0.063  0.5464  0.1858 -0.0002
   42MOL   C57344935   5.253   3.504   0.161  0.0883 -0.5041 -0.0478
   42MOL   H57444936   5.283   3.804   0.331 -0.3641  0.2194 -0.5163
   42MOL   H57544937   5.477   3.827   0.174  0.2783  0.2542  0.6106
   42MOL   H57644938   5.756   3.901   8.190  3.1198 -0.4684 -1.0843
   42MOL   H57744939   5.910   3.961   0.101  0.2178 -0.4412 -4.2697
   42MOL   H57844940   6.069   3.673   0.497 -2.3017  3.1715 -2.2050
   42MOL   H57944941   6.265   3.574   0.559 -2.4454 -0.8870 -1.2339
   42MOL   H58044942   6.537   3.821   0.543  0.0368  0.6110 -1.3386
   42MOL   H58144943   6.618   3.809   0.395  1.6217  1.2215  1.1115
   42MOL   H58244944   6.695   3.749   0.546 -2.4452  1.1029  3.4382
   42MOL   H58344945   6.617   3.527   0.627  0.1440  0.8742 -0.5982
   42MOL   H58444946   6.466   3.613   0.650 -0.8107 -2.7613  2.4501
   42MOL   H58544947   6.471   3.453   0.580  0.6435 -0.1247  1.6559
   42MOL   H58644948   6.752   3.702   0.271 -1.7014  0.1340 -3.5106
   42MOL   H58744949   6.891   3.573   0.138 -0.6807  0.2087 -0.5517
   42MOL   H58844950   6.673   3.218   0.233  1.6336  0.0483  1.1477
   42MOL   H58944951   6.525   3.344   0.384  1.9623  0.1381  3.3102
   42MOL   H59044952   6.452   3.762   0.213 -0.4374 -0.1104 -1.4045
   42MOL   H59144953   6.229   3.833   0.143 -0.3195  0.0858 -0.1127
   42MOL   H59244954   5.900   3.571   0.278 -0.4414  1.6320  1.0369
   42MOL   H59344955   5.698   3.515   0.145 -0.2866  0.1523 -1.5171
   42MOL   H59444956   5.349   3.463   8.230  0.1599  0.3114 -0.0813
   42MOL   H59544957   5.195   3.413   0.160  0.9651 -1.2308  4.7888
   42MOL   C59644958   6.844   3.324   8.205 -0.0388  0.5266 -0.6132
   42MOL   C59744959   6.943   3.292   8.116 -0.8386 -0.3856  0.8120
   42MOL   C59844960   6.920   3.299   7.974  0.0707 -0.4672 -0.5528
   42MOL   C59944961   6.795   3.335   7.929  0.0813 -0.5850 -0.5099
   42MOL   S60044962   6.765   3.349   7.750  0.3520 -0.0550  0.4963
   42MOL   O60144963   6.705   3.478   7.718  0.7333  0.4044  0.3946
   42MOL   O60244964   6.705   3.225   7.706  0.1070 -0.1153 -0.1306
   42MOL   C60344965   6.923   3.348   7.667  0.5328 -0.3795 -0.4975
   42MOL   C60444966   6.971   3.242   7.593  0.7967 -0.3421 -0.1691
   42MOL   C60544967   7.096   3.247   7.528  0.2030 -0.8078 -0.6596
   42MOL   C60644968   7.170   3.366   7.529  0.3276 -0.5004  0.2743
   42MOL   O60744969   7.286   3.367   7.459  0.4713  0.2197  0.1459
   42MOL   C60844970   7.340   3.480   7.407 -1.0014  0.2096  0.4077
   42MOL   C60944971   7.277   3.549   7.307  0.4954  0.2260  0.8131
   42MOL   C61044972   7.315   3.681   7.273  0.0058 -0.6245 -0.3411
   42MOL   C61144973   7.413   3.746   7.345 -0.6960 -0.1549  0.4977
   42MOL   C61244974   7.446   3.894   7.325  0.1029  0.0661 -0.0286
   42MOL   C61344975   7.580   3.936   7.389 -0.2027 -0.1588 -0.7116
   42MOL   C61444976   7.450   3.944   7.181 -0.1469 -0.0208 -0.1173
   42MOL   C61544977   7.334   3.968   7.403 -0.4202 -0.3348 -1.0910
   42MOL   C61644978   7.325   3.939   7.540  0.0417 -0.1978 -0.4855
   42MOL   C61744979   7.220   3.986   7.622  0.5801 -0.3862 -0.1941
   42MOL   C61844980   7.114   4.056   7.558  0.5820  0.6411 -0.1501
   42MOL   O61944981   7.002   4.095   7.630  0.4302 -0.3507 -0.3685
   42MOL   C62044982   7.119   4.084   7.420  0.3245  0.2324  0.3335
   42MOL   C62144983   7.227   4.040   7.342 -0.5405  0.6131  0.1738
   42MOL   C62244984   7.484   3.670   7.446  1.2195 -0.4561 -0.2768
   42MOL   C62344985   7.446   3.538   7.475  0.6036  0.0107  0.4492
   42MOL   C62444986   7.124   3.473   7.604 -0.0472 -0.1370  0.0812
   42MOL   C62544987   7.003   3.466   7.671  0.1779 -0.1659  0.1414
   42MOL   C62644988   6.694   3.366   8.017 -0.0114  0.1028  0.0062
   42MOL   C62744989   6.718   3.365   8.154  0.4914 -0.3394  0.0724
   42MOL   H62844990   7.041   3.280   8.160 -0.1432 -0.5486 -0.7371
   42MOL   H62944991   6.999   3.290   7.900 -1.6028 -2.5155 -2.1338
   42MOL   H63044992   6.911   3.155   7.573  0.1156 -0.5837  2.7334
   42MOL   H63144993   7.137   3.160   7.480  0.3658 -0.2951 -1.4611
   42MOL   H63244994   7.201   3.493   7.254  1.3586 -1.4016  1.2702
   42MOL   H63344995   7.269   3.732   7.190 -1.1868 -1.8352 -0.4400
   42MOL   H63444996   7.589   4.044   7.378 -0.8050  0.2923  2.6766
   42MOL   H63544997   7.663   3.894   7.331 -0.8684 -0.3660 -1.5328
   42MOL   H63644998   7.586   3.921   7.497  2.5450 -1.8735 -1.0682
   42MOL   H63744999   7.534   3.911   7.120  2.3397  0.8448  2.7306
   42MOL   H63845000   7.355   3.929   7.130  0.3068 -1.9149 -0.4332
   42MOL   H63945001   7.466   4.050   7.201 -1.7866  1.1293 -4.3857
   42MOL   H64045002   7.399   3.874   7.582 -0.2365 -0.2341 -0.0525
   42MOL   H64145003   7.214   3.956   7.725  0.2104  3.6701  1.0160
   42MOL   H64245004   7.029   4.137   7.391 -0.1191  1.0395  3.0355
   42MOL   H64345005   7.228   4.072   7.239  1.5031  3.3415  1.0023
   42MOL   H64445006   7.569   3.699   7.507  0.4800 -0.7659  0.9224
   42MOL   H64545007   7.491   3.485   7.558  0.0291 -0.3487  0.5322
   42MOL   H64645008   7.190   3.559   7.603  0.8696 -0.8430 -0.9361
   42MOL   H64745009   6.965   3.551   7.725 -2.2106 -0.9791 -0.1810
   42MOL   H64845010   6.600   3.409   7.986 -1.2774 -2.0577  0.8204
   42MOL   H64945011   6.643   3.396   8.225 -0.8855 -0.0133 -1.5105
   42MOL   C65045012   6.971   4.020   7.742 -0.7016 -0.4522 -0.1809
   42MOL   C65145013   7.014   4.059   7.868  0.3455 -0.1789 -0.8642
   42MOL   C65245014   6.983   3.979   7.986 -0.3669 -0.5950 -0.5112
   42MOL   C65345015   6.894   3.869   7.972  0.0342 -0.5167 -0.5019
   42MOL   S65445016   6.844   3.774   8.110 -0.4279  0.3663 -0.0696
   42MOL   O65545017   6.892   3.838   8.230  0.3576 -0.2301 -0.5613
   42MOL   O65645018   6.888   3.638   8.079  0.2367 -0.4433  0.6682
   42MOL   C65745019   6.667   3.791   8.124  0.0943  0.0329  0.1915
   42MOL   C65845020   6.609   3.896   8.204 -0.0609  0.2997  0.2501
   42MOL   C65945021   6.470   3.921   8.195 -0.2494  0.8340  0.5025
   42MOL   C66045022   6.395   3.836   8.110  0.0801  0.6012  0.2960
   42MOL   O66145023   6.259   3.843   8.113  0.5786 -0.4334  0.2569
   42MOL   C66245024   6.188   3.891   8.005  0.4246 -0.5372 -0.2348
   42MOL   C66345025   6.046   3.890   8.017  0.2428  0.2532  0.3609
   42MOL   C66445026   5.965   3.924   7.907 -0.5209 -0.0167 -0.5984
   42MOL   C66545027   6.018   3.974   7.786  0.5532 -0.1626 -0.5348
   42MOL   C66645028   5.916   4.031   7.680  0.0198 -0.0104  0.0364
   42MOL   C66745029   5.878   4.168   7.734 -1.0971 -0.5472 -0.2896
   42MOL   C66845030   5.980   4.055   7.551 -0.2436  0.2907  0.1427
   42MOL   C66945031   5.798   3.937   7.662 -0.1119  0.5213  0.4273
   42MOL   C67045032   5.813   3.795   7.670  0.0633 -0.6723  0.7259
   42MOL   C67145033   5.704   3.708   7.651 -0.1914  0.6328  0.4843
   42MOL   C67245034   5.575   3.762   7.617 -0.3363 -0.3094 -0.0399
   42MOL   O67345035   5.470   3.680   7.590  0.0796 -0.0777 -0.2470
   42MOL   C67445036   5.561   3.904   7.608 -0.2848 -0.5015 -0.3751
   42MOL   C67545037   5.674   3.989   7.626 -0.6145 -1.1116 -0.0523
   42MOL   C67645038   6.156   4.000   7.789 -0.3959 -0.0249 -0.0137
   42MOL   C67745039   6.241   3.961   7.897  0.1706 -0.3035 -0.4848
   42MOL   C67845040   6.450   3.738   8.035 -0.9472  0.4972 -0.0647
   42MOL   C67945041   6.586   3.712   8.041 -0.3518  0.9909 -0.8004
   42MOL   C68045042   6.845   3.835   7.844 -0.1881 -0.2467  0.8056
   42MOL   C68145043   6.896   3.899   7.727  0.5497  0.7246 -0.2721
   42MOL   H68245044   7.081   4.144   7.874  0.9180 -0.7292  0.8760
   42MOL   H68345045   7.022   4.003   8.084 -0.4850  1.6171 -0.9865
   42MOL   H68445046   6.672   3.961   0.009  0.8933  1.3702 -1.9353
   42MOL   H68545047   6.427   4.003   8.250 -3.9505 -0.2010 -0.7107
   42MOL   H68645048   5.994   3.853   8.105  0.7842 -0.1438  0.5112
   42MOL   H68745049   5.857   3.915   7.914 -0.5770  1.0650  0.0274
   42MOL   H68845050   5.803   4.220   7.674 -0.4125  0.5329 -0.2262
   42MOL   H68945051   5.965   4.233   7.743 -0.4049 -1.7607  2.0496
   42MOL   H69045052   5.831   4.160   7.833 -0.2547  1.5806  0.3105
   42MOL   H69145053   5.909   4.100   7.481  1.3342  0.5531 -1.3063
   42MOL   H69245054   6.068   4.117   7.544 -0.0205 -0.0345  0.0417
   42MOL   H69345055   6.007   3.959   7.506 -0.3737  0.1728  0.3098
   42MOL   H69445056   5.909   3.751   7.692  0.6091 -1.0878 -2.2800
   42MOL   H69545057   5.726   3.604   7.666  0.7146  0.7768  0.2282
   42MOL   H69645058   5.464   3.937   7.575 -0.0061 -1.7849 -2.5608
   42MOL   H69745059   5.656   4.095   7.621 -0.8133 -1.2046 -1.5398
   42MOL   H69845060   6.203   4.031   7.697  1.7016  0.5977  1.2532
   42MOL   H69945061   6.346   3.983   7.883 -0.3676  1.7508 -1.5207
   42MOL   H70045062   6.387   3.669   7.981  0.3930 -1.1252  0.4048
   42MOL   H70145063   6.633   3.637   7.979 -0.5608 -0.6179  0.9476
   42MOL   H70245064   6.770   3.757   7.835  0.2781 -0.8286  1.9044
   42MOL   H70345065   6.866   3.864   7.630  1.4338 -0.9155  0.0248
   42MOL   C70445066   5.386   3.639   7.690  0.1098  0.3367 -0.0622
   42MOL   C70545067   5.252   3.681   7.680 -0.3548  0.3053 -0.2062
   42MOL   C70645068   5.155   3.636   7.773 -0.1197  0.3477 -1.0289
   42MOL   C70745069   5.198   3.556   7.882  0.3049 -0.7121  0.3907
   42MOL   S70845070   5.078   3.491   8.005 -0.4057 -0.2122 -0.0848
   42MOL   O70945071   5.144   3.375   8.074 -0.0559  0.0397  0.6287
   42MOL   O71045072   4.952   3.472   7.938 -0.1442  0.3692  1.2760
   42MOL   C71145073   5.056   3.618   8.135  0.3822  0.1462  0.3209
   42MOL   C71245074   4.948   3.606   8.225 -0.0490  0.3595 -0.2488
   42MOL   C71345075   4.922   3.707   0.065  0.2191 -0.5450  0.4001
   42MOL   C71445076   5.003   3.823   0.067  0.9555 -0.1924 -0.4685
   42MOL   O71545077   4.963   3.923   0.155  0.0330 -0.2871 -0.0476
   42MOL   C71645078   5.012   4.046   0.128 -0.1289 -0.1387 -0.2947
   42MOL   C71745079   5.124   4.095   0.201  0.6386 -0.3233  0.0618
   42MOL   C71845080   5.165   4.226   0.187  0.2869  0.0166 -0.7103
   42MOL   C71945081   5.113   4.306   0.087  0.0015 -0.6811 -0.6794
   42MOL   C72045082   5.158   4.449   0.072 -0.2027 -0.6785  0.7629
   42MOL   C72145083   5.304   4.457   0.013 -0.2209  0.1790 -0.0191
   42MOL   C72245084   5.064   4.530   8.225 -0.0127  1.1105 -0.1616
   42MOL   C72345085   5.144   4.513   0.214  0.2307 -0.2476 -0.5463
   42MOL   C72445086   5.013   4.518   0.269 -0.0383  0.1686 -0.5316
   42MOL   C72545087   4.991   4.582   0.393 -0.0385  0.0685  0.2867
   42MOL   C72645088   5.102   4.652   0.450 -0.3978 -0.8565 -0.6734
   42MOL   O72745089   5.083   4.738   0.556 -0.0364 -0.3900  0.0346
   42MOL   C72845090   5.230   4.643   0.396 -1.4533 -0.0231 -0.0292
   42MOL   C72945091   5.247   4.573   0.279  0.1714  0.4883 -0.6484
   42MOL   C73045092   5.013   4.246   0.002 -0.2567 -0.0597 -0.6402
   42MOL   C73145093   4.961   4.118   0.022  0.4354 -0.0953  0.5952
   42MOL   C73245094   5.113   3.834   8.233  0.4887  0.5537  0.4445
   42MOL   C73345095   5.141   3.738   8.138 -0.3959 -0.0837 -0.3067
   42MOL   C73445096   5.330   3.514   7.891  0.0418 -0.4004 -0.1364
   42MOL   C73545097   5.421   3.561   7.799 -0.5060 -0.3917 -0.2511
   42MOL   H73645098   5.219   3.735   7.593 -0.9789  2.0480  1.0817
   42MOL   H73745099   5.049   3.651   7.754 -0.0723 -0.6683 -2.1239
   42MOL   H73845100   4.890   3.515   8.232  2.7644 -1.5492 -1.2344
   42MOL   H73945101   4.836   3.701   0.130  0.2252 -1.0412  0.3649
   42MOL   H74045102   5.167   4.037   0.282 -2.2547  0.5973  2.3550
   42MOL   H74145103   5.245   4.256   0.253  2.0038 -0.9093 -2.3374
   42MOL   H74245104   5.316   4.413   8.168 -1.9350  0.6075 -0.4401
   42MOL   H74345105   5.378   4.404   0.074  0.3891  1.2983  0.2444
   42MOL   H74445106   5.345   4.558   0.005  0.3150  0.0775  1.3178
   42MOL   H74545107   5.065   4.487   8.125  0.3655  1.3576 -0.2633
   42MOL   H74645108   4.958   4.528   8.250 -0.6310 -1.0795 -2.7036
   42MOL   H74745109   5.105   4.631   8.215  2.7547 -0.0611 -1.2873
   42MOL   H74845110   4.932   4.480   0.209  1.1994  0.0149 -2.1351
   42MOL   H74945111   4.892   4.580   0.437  0.2235  0.9615  0.9404
   42MOL   H75045112   5.307   4.690   0.456 -1.8468  0.2121  0.2896
   42MOL   H75145113   5.344   4.581   0.232 -0.3690  0.2052 -1.8253
   42MOL   H75245114   4.968   4.294   8.170  0.7975  2.5533  0.2342
   42MOL   H75345115   4.873   4.070   8.235  1.7936 -1.7952 -0.4143
   42MOL   H75445116   5.177   3.921   8.236 -0.4248  1.2333  0.2724
   42MOL   H75545117   5.222   3.751   8.068  0.2327  2.8594  0.8862
   42MOL   H75645118   5.360   3.444   7.968  0.3810 -3.8618 -3.2554
   42MOL   H75745119   5.523   3.527   7.804 -0.7596 -1.0918  0.3086
   42MOL   C75845120   5.119   4.872   0.546 -0.3359 -0.0726  0.1014
   42MOL   C75945121   5.046   4.954   0.466 -0.3263 -0.3450  0.3182
   42MOL   C76045122   5.067   5.089   0.447  0.4585  0.4847  0.3223
   42MOL   C76145123   5.191   5.135   0.499 -0.1525 -0.1893  0.8456
   42MOL   S76245124   5.234   5.311   0.459 -0.0325 -0.1156 -0.1791
   42MOL   O76345125   5.157   5.395   0.554  0.4430  0.2623  0.2906
   42MOL   O76445126   5.206   5.324   0.313 -0.2005 -0.0308 -0.0158
   42MOL   C76545127   5.415   5.331   0.484  0.7529 -0.1193  0.0720
   42MOL   C76645128   5.460   5.448   0.540 -0.2007  0.7087  0.8989
   42MOL   C76745129   5.595   5.471   0.560 -0.2579 -0.0639 -0.2342
   42MOL   C76845130   5.692   5.375   0.520  0.0280  0.4990 -0.1394
   42MOL   O76945131   5.825   5.406   0.535  0.2390  0.0474  0.5452
   42MOL   C77045132   5.867   5.489   0.628  0.4200 -0.4744 -0.0543
   42MOL   C77145133   5.930   5.609   0.587 -0.4624 -0.3078  0.3980
   42MOL   C77245134   5.966   5.705   0.686  0.7413 -0.1911 -0.4311
   42MOL   C77345135   5.936   5.689   0.823  0.3796  0.2007  0.3280
   42MOL   C77445136   5.961   5.791   0.927  1.0006  0.5699  0.0641
   42MOL   C77545137   6.074   5.895   0.894 -0.3647 -0.3970  0.0345
   42MOL   C77645138   5.838   5.872   0.955 -0.1076 -1.0603  0.5368
   42MOL   C77745139   6.005   5.705   1.052 -0.2380  0.1558  0.2693
   42MOL   C77845140   5.940   5.688   1.179  0.2661 -0.5681 -0.2138
   42MOL   C77945141   6.002   5.616   1.286  0.1096  0.3848  0.2533
   42MOL   C78045142   6.121   5.551   1.270 -0.2517 -0.4169 -0.3460
   42MOL   O78145143   6.173   5.466   1.361  0.1613  0.0015  0.1916
   42MOL   C78245144   6.185   5.573   1.145 -0.1969  0.0115  0.1480
   42MOL   C78345145   6.130   5.645   1.042  0.3779 -0.7008  0.6421
   42MOL   C78445146   5.869   5.569   0.856  0.0520  0.2067  0.0990
   42MOL   C78545147   5.841   5.467   0.762  1.2500 -0.0970 -0.3925
   42MOL   C78645148   5.648   5.260   0.456  0.4011  0.3385  0.3642
   42MOL   C78745149   5.508   5.232   0.441  0.1994  0.3201 -0.6741
   42MOL   C78845150   5.269   5.052   0.581  0.0167 -0.8765  0.6033
   42MOL   C78945151   5.229   4.923   0.608 -0.2169  0.2613  0.0290
   42MOL   H79045152   4.952   4.918   0.426  0.0705 -0.9154 -0.1089
   42MOL   H79145153   4.998   5.155   0.397  0.0223  0.2054  0.5535
   42MOL   H79245154   5.386   5.524   0.564 -0.7463  0.3508  0.3525
   42MOL   H79345155   5.625   5.570   0.589 -0.2619  0.4863 -2.0543
   42MOL   H79445156   5.931   5.628   0.481 -0.6114  0.2174  0.4907
   42MOL   H79545157   6.014   5.796   0.652  2.2880 -1.2997 -1.2721
   42MOL   H79645158   6.171   5.854   0.864  0.0682  0.6283 -0.0077
   42MOL   H79745159   6.109   5.956   0.977  2.1133 -1.4321 -0.2041
   42MOL   H79845160   6.046   5.962   0.812 -1.6950 -1.0012 -0.0158
   42MOL   H79945161   5.765   5.807   1.002  0.1782 -2.1860 -0.5667
   42MOL   H80045162   5.848   5.953   1.027  0.1132 -0.7102  0.1155
   42MOL   H80145163   5.800   5.919   0.865  3.0219  0.3668 -0.1151
   42MOL   H80245164   5.843   5.733   1.192  0.4498  0.4040 -1.9597
   42MOL   H80345165   5.940   5.605   1.374 -0.2807  0.2442 -0.0388
   42MOL   H80445166   6.283   5.530   1.130  0.4044  0.9283  1.3925
   42MOL   H80545167   6.179   5.644   0.946 -0.1473  0.9109  0.3385
   42MOL   H80645168   5.845   5.561   0.961 -0.1310 -1.5922 -0.0590
   42MOL   H80745169   5.797   5.372   0.790 -0.0715  1.0992  1.7031
   42MOL   H80845170   5.717   5.184   0.420  0.9219 -0.0435  2.1330
   42MOL   H80945171   5.478   5.143   0.388 -2.5029  0.3480  0.7034
   42MOL   H81045172   5.352   5.098   0.632 -0.4622  0.4357  0.2347
   42MOL   H81145173   5.293   4.858   0.667  0.3840  0.7464 -0.0857
   42MOL   C81245174   6.309   5.482   1.377 -0.6596 -0.3072  0.1300
   42MOL   C81345175   6.366   5.599   1.426  0.2135  0.8502 -0.0782
   42MOL   C81445176   6.507   5.613   1.443  0.8477  0.3812  0.0923
   42MOL   C81545177   6.581   5.491   1.433 -0.1035 -0.0043 -0.2762
   42MOL   S81645178   6.757   5.501   1.468 -0.0048  0.1552 -0.0227
   42MOL   O81745179   6.814   5.366   1.470  0.0347 -0.0470  0.0310
   42MOL   O81845180   6.766   5.570   1.599 -0.3402 -0.1118  0.4893
   42MOL   C81945181   6.823   5.603   1.336 -0.0187  0.5684  0.0977
   42MOL   C82045182   6.870   5.545   1.222  1.1195  0.7733  0.1155
   42MOL   C82145183   6.941   5.619   1.127 -0.0976 -0.2223 -0.1240
   42MOL   C82245184   6.951   5.754   1.147 -0.7524 -0.5140 -0.6000
   42MOL   O82345185   6.995   5.832   1.047  0.3094  0.1015  0.4899
   42MOL   C82445186   7.120   5.886   1.052 -0.4686 -0.3134  0.4838
   42MOL   C82545187   7.136   6.011   1.117  0.1165  1.0034  0.0629
   42MOL   C82645188   7.262   6.081   1.110  0.2670 -0.1023  0.5977
   42MOL   C82745189   7.368   6.023   1.032  0.2752 -0.2093 -0.3092
   42MOL   C82845190   7.504   6.093   1.024 -0.4417  0.0601 -0.4044
   42MOL   C82945191   7.573   6.047   1.154 -0.5464  0.4397  0.0060
   42MOL   C83045192   7.584   6.053   0.905 -0.0186 -0.5633 -0.8218
   42MOL   C83145193   7.475   6.242   1.019 -0.0766 -0.5285  0.9778
   42MOL   C83245194   7.528   6.336   1.109  0.3767 -0.0381 -0.2917
   42MOL   C83345195   7.514   6.479   1.095  0.0721  0.1065  0.4842
   42MOL   C83445196   7.441   6.530   0.984 -0.1978  0.2767  0.7490
   42MOL   O83545197   7.439   6.664   0.954 -0.1252  0.7495  0.3691
   42MOL   C83645198   7.391   6.432   0.893 -0.0300  0.4491  0.1828
   42MOL   C83745199   7.401   6.291   0.909  0.3826 -0.6915  0.2524
   42MOL   C83845200   7.350   5.890   0.977 -0.2327 -0.6760  0.4995
   42MOL   C83945201   7.224   5.827   0.984 -0.5935 -0.4797 -0.3545
   42MOL   C84045202   6.892   5.818   1.259 -0.4945 -0.1552  0.2602
   42MOL   C84145203   6.831   5.740   1.356  0.3176 -0.2164  0.2869
   42MOL   C84245204   6.526   5.363   1.393 -0.0124 -0.2638 -0.5700
   42MOL   C84345205   6.388   5.365   1.363 -0.3362 -0.4409  0.5821
   42MOL   H84445206   6.307   5.681   1.466  1.0637  1.1729  0.5374
   42MOL   H84545207   6.554   5.706   1.468  0.4750  0.0611  2.1357
   42MOL   H84645208   6.860   5.438   1.213 -1.3482  0.8549  1.4151
   42MOL   H84745209   6.959   5.570   1.032  0.4291 -1.0193  0.3884
   42MOL   H84845210   7.053   6.055   1.169  0.5136  0.4410  1.1938
   42MOL   H84945211   7.279   6.177   1.155  0.1079  0.1031  0.2244
   42MOL   H85045212   7.573   5.939   1.165  1.2749  0.3005 -1.2329
   42MOL   H85145213   7.516   6.082   1.240  2.2085  0.2697  1.9572
   42MOL   H85245214   7.677   6.080   1.157 -0.3752  0.0656 -1.5050
   42MOL   H85345215   7.675   6.110   0.925 -1.6902  1.9433 -0.0930
   42MOL   H85445216   7.609   5.947   0.905 -4.4176 -1.7057 -1.8797
   42MOL   H85545217   7.555   6.080   0.804  2.5441 -2.0094 -1.9859
   42MOL   H85645218   7.589   6.308   1.193  0.9317  0.3756 -0.5536
   42MOL   H85745219   7.562   6.546   1.164  1.4772 -0.4074  0.0125
   42MOL   H85845220   7.353   6.460   0.795  1.4838 -0.8782 -0.8062
   42MOL   H85945221   7.351   6.226   0.838 -2.1354  1.0446  0.3877
   42MOL   H86045222   7.428   5.836   0.926 -0.1009  0.2862 -0.3373
   42MOL   H86145223   7.211   5.734   0.930 -0.8983 -0.7535  0.1849
   42MOL   H86245224   6.893   5.925   1.270 -1.4693 -0.2981  2.0406
   42MOL   H86345225   6.790   5.776   1.449  1.7544  1.7511  0.1887
   42MOL   H86445226   6.586   5.274   1.397  3.0351  1.7590  1.1365
   42MOL   H86545227   6.338   5.277   1.328 -3.3206  1.7242 -0.8265
   42MOL   C86645228   7.326   6.743   0.932  0.1719  0.4998 -0.9125
   42MOL   C86745229   7.205   6.695   0.883 -0.4399  0.4890  0.0285
   42MOL   C86845230   7.103   6.785   0.852  0.1274  0.4748 -0.0805
   42MOL   C86945231   7.115   6.921   0.878  0.8021 -0.2287 -0.1374
   42MOL   S87045232   6.973   7.012   0.824  0.1195  0.1573  0.1256
   42MOL   O87145233   6.870   6.911   0.791  0.4447 -0.2303 -0.2608
   42MOL   O87245234   7.013   7.094   0.712  0.2016  0.5802 -0.4350
   42MOL   C87345235   6.905   7.113   0.958 -0.5508  0.0632 -0.1788
   42MOL   C87445236   6.861   7.241   0.930 -0.1075 -0.2709 -0.2359
   42MOL   C87545237   6.799   7.318   1.031  0.7769 -0.4408 -0.4185
   42MOL   C87645238   6.787   7.262   1.161 -0.6208 -0.8321  0.1319
   42MOL   O87745239   6.731   7.339   1.262 -0.3555  0.4449 -0.5205
   42MOL   C87845240   6.683   7.269   1.367 -0.5608  0.2186 -0.0535
   42MOL   C87945241   6.553   7.223   1.366 -0.1120  0.1247 -0.0845
   42MOL   C88045242   6.501   7.151   1.473  0.0171 -0.1537 -0.5052
   42MOL   C88145243   6.580   7.109   1.579  0.4387 -0.4928  0.1024
   42MOL   C88245244   6.530   7.012   1.688 -0.0378 -0.3306 -0.0534
   42MOL   C88345245   6.651   6.955   1.775  0.4848 -0.2048  0.2075
   42MOL   C88445246   6.428   7.083   1.792  0.1617  0.2518 -0.1270
   42MOL   C88545247   6.463   6.898   1.606 -0.0858  0.7519 -0.1152
   42MOL   C88645248   6.542   6.801   1.544 -0.3399 -0.5097 -0.2278
   42MOL   C88745249   6.482   6.690   1.487  0.7598 -0.0046  0.1682
   42MOL   C88845250   6.341   6.678   1.474 -0.3753  0.3328  0.0032
   42MOL   O88945251   6.280   6.569   1.418  0.0369  0.7461  0.0250
   42MOL   C89045252   6.258   6.773   1.536  0.3858 -0.3314 -0.6442
   42MOL   C89145253   6.323   6.881   1.602 -0.9514 -1.0571  0.2484
   42MOL   C89245254   6.711   7.161   1.583  0.4825 -0.3666  0.0648
   42MOL   C89345255   6.763   7.243   1.482 -0.6840  0.4155  0.1551
   42MOL   C89445256   6.828   7.128   1.185 -0.0928  0.3573  0.1726
   42MOL   C89545257   6.883   7.046   1.079 -0.5511 -0.1994 -0.2183
   42MOL   C89645258   7.226   6.963   0.944  0.0209  0.0401 -0.8089
   42MOL   C89745259   7.334   6.874   0.971  0.0471 -0.5742 -0.2006
   42MOL   H89845260   7.196   6.592   0.852 -0.6656  0.5365 -0.0638
   42MOL   H89945261   7.015   6.741   0.808  0.8007  0.0076 -0.9649
   42MOL   H90045262   6.880   7.282   0.832  0.4982  0.8718  0.3471
   42MOL   H90145263   6.763   7.417   1.005 -2.4863 -2.4347 -3.8800
   42MOL   H90245264   6.487   7.244   1.284 -2.0649 -0.0265  1.4190
   42MOL   H90345265   6.398   7.119   1.473 -0.2109  0.5527 -0.4303
   42MOL   H90445266   6.617   6.881   1.847  0.1829 -0.6720 -0.4078
   42MOL   H90545267   6.688   7.038   1.835 -0.8711  0.2219  0.4846
   42MOL   H90645268   6.729   6.909   1.715  0.7179 -1.7281  1.6344
   42MOL   H90745269   6.460   7.174   1.843  1.3794 -0.3134  0.1252
   42MOL   H90845270   6.348   7.120   1.728  0.8196  0.3039 -0.9226
   42MOL   H90945271   6.390   7.010   1.864 -2.5233  1.3938 -0.3155
   42MOL   H91045272   6.649   6.799   1.554 -0.2472  0.6119 -0.9606
   42MOL   H91145273   6.534   6.602   1.454  0.7768 -0.9957  2.7483
   42MOL   H91245274   6.151   6.768   1.547  0.3620 -0.7838 -1.0919
   42MOL   H91345275   6.257   6.956   1.644 -2.5829 -0.7797 -2.6996
   42MOL   H91445276   6.773   7.123   1.663  0.6978 -0.1164  0.0184
   42MOL   H91545277   6.861   7.286   1.497  0.0745 -1.1625 -0.2816
   42MOL   H91645278   6.823   7.085   1.283 -1.5338  0.6270  0.2287
   42MOL   H91745279   6.910   6.943   1.097  1.9229  0.7095  1.4588
   42MOL   H91845280   7.250   7.066   0.963  0.8273 -0.4767  1.0966
   42MOL   H91945281   7.431   6.907   1.004  0.8740 -1.1728 -1.9601
   42MOL   C92045282   6.197   6.588   1.315 -0.2106 -0.6173 -0.8775
   42MOL   C92145283   6.065   6.588   1.343 -0.5150 -0.2300  0.0246
   42MOL   C92245284   5.968   6.586   1.238  0.1963  0.6957  0.6251
   42MOL   C92345285   6.011   6.574   1.104  0.2398  0.2685  0.5583
   42MOL   S92445286   5.885   6.533   0.976  0.2534 -0.4247  0.1360
   42MOL   O92545287   5.754   6.585   1.016  0.1307  0.4439 -0.1357
   42MOL   O92645288   5.902   6.387   0.947 -0.7275  0.1282 -0.3755
   42MOL   C92745289   5.938   6.627   0.835 -0.1314  0.4120  0.4307
   42MOL   C92845290   6.032   6.576   0.744  0.0158  0.5174  0.4022
   42MOL   C92945291   6.073   6.652   0.630 -0.2744  0.4558 -0.2019
   42MOL   C93045292   6.023   6.779   0.614 -0.3244  0.0034  0.1223
   42MOL   O93145293   6.072   6.847   0.504  0.1013  0.0477 -0.4687
   42MOL   C93245294   6.196   6.901   0.497  0.2814 -0.4081 -0.2011
   42MOL   C93345295   6.246   6.981   0.604  0.1792  0.9523 -0.1884
   42MOL   C93445296   6.372   7.038   0.592  0.2757  0.1811 -0.0775
   42MOL   C93545297   6.445   7.030   0.469  0.4168 -0.7700  0.2916
   42MOL   C93645298   6.581   7.103   0.460  0.3037 -0.0414  0.3620
   42MOL   C93745299   6.545   7.235   0.387 -0.0150  0.1589  0.0649
   42MOL   C93845300   6.653   7.137   0.596  0.9823 -0.3848 -0.1951
   42MOL   C93945301   6.672   7.011   0.377 -1.3613  0.7265 -0.5609
   42MOL   C94045302   6.712   7.031   0.240 -0.1476  0.6977  0.5686
   42MOL   C94145303   6.785   6.930   0.170  0.1883 -0.5833 -0.1659
   42MOL   C94245304   6.839   6.816   0.234  0.4165 -0.1544 -0.1805
   42MOL   O94345305   6.912   6.721   0.167 -0.1932 -0.0934  0.2963
   42MOL   C94445306   6.807   6.798   0.365  0.7878  0.0567  0.0405
   42MOL   C94545307   6.722   6.894   0.437  1.3628 -0.4210  0.5715
   42MOL   C94645308   6.396   6.950   0.362  0.5502  0.1354 -0.4090
   42MOL   C94745309   6.271   6.885   0.380 -0.4449  0.0732  0.1507
   42MOL   C94845310   5.939   6.835   0.708 -0.3683  0.0982  0.7395
   42MOL   C94945311   5.892   6.762   0.818  0.0033  1.1973 -0.5091
   42MOL   C95045312   6.148   6.594   1.077 -0.1222  0.1223 -0.4121
   42MOL   C95145313   6.242   6.600   1.182  0.2077 -0.6571  0.3058
   42MOL   H95245314   6.028   6.579   1.444 -3.2675  0.5394 -0.8833
   42MOL   H95345315   5.862   6.579   1.254 -0.0878  1.1464 -1.0302
   42MOL   H95445316   6.062   6.472   0.754 -1.7903 -0.1118 -0.3909
   42MOL   H95545317   6.151   6.616   0.564  0.4212  1.4169  0.0903
   42MOL   H95645318   6.194   6.987   0.699  1.4380  0.9413  0.5064
   42MOL   H95745319   6.410   7.078   0.685  0.5910 -3.1400  1.2940
   42MOL   H95845320   6.483   7.301   0.448  1.4528 -1.5489  3.5473
   42MOL   H95945321   6.497   7.217   0.291 -0.1111  0.8383 -0.0179
   42MOL   H96045322   6.634   7.291   0.357  1.2291  0.8463  4.6091
   42MOL   H96145323   6.613   7.218   0.656  1.2008 -2.2206  2.5123
   42MOL   H96245324   6.654   7.056   0.669  1.5123 -0.4190 -0.2348
   42MOL   H96345325   6.757   7.168   0.584  1.1647 -0.7368  0.4290
   42MOL   H96445326   6.686   7.120   0.185 -0.3553 -0.3939 -1.1390
   42MOL   H96545327   6.812   6.947   0.067 -1.2364 -1.8155 -0.7512
   42MOL   H96645328   6.842   6.714   0.424  2.4059 -0.7935 -2.0869
   42MOL   H96745329   6.700   6.872   0.540 -0.4064 -1.1987  0.0382
   42MOL   H96845330   6.450   6.929   0.272  1.5249 -0.0729  0.2236
   42MOL   H96945331   6.234   6.835   0.291 -2.0655  0.1176  0.7691
   42MOL   H97045332   5.915   6.939   0.692  1.4654  0.5649  0.8698
   42MOL   H97145333   5.830   6.808   0.894 -0.5728 -1.1871  0.5015
   42MOL   H97245334   6.189   6.592   0.977  2.7563 -2.1183  0.7502
   42MOL   H97345335   6.346   6.622   1.162  0.0389  1.2919  1.4284
   42MOL   C97445336   7.018   6.769   0.092  0.1686  0.1041  0.0826
   42MOL   C97545337   7.127   6.822   0.163  0.4642 -0.5373 -0.2432
   42MOL   C97645338   7.232   6.886   0.088  0.0782 -0.4472  0.5813
   42MOL   C97745339   7.222   6.898   8.201 -0.7581 -0.3497  0.0670
   42MOL   S97845340   7.341   6.992   8.101 -0.2258 -0.2083 -0.3880
   42MOL   O97945341   7.431   7.055   8.198 -0.9127 -0.0011 -0.8079
   42MOL   O98045342   7.271   7.077   8.004  0.2389  0.1090 -0.4494
   42MOL   C98145343   7.441   6.871   8.018  0.1450  0.9306 -0.5041
   42MOL   C98245344   7.549   6.800   8.091  0.7856 -0.2235 -0.1326
   42MOL   C98345345   7.632   6.717   8.015 -0.1178 -0.4318  0.0430
   42MOL   C98445346   7.621   6.702   7.878 -0.2185 -0.7935  0.1086
   42MOL   O98545347   7.712   6.624   7.812  0.0186 -0.4568  0.0212
   42MOL   C98645348   7.704   6.490   7.831 -0.1506 -0.1466 -0.0967
   42MOL   C98745349   7.581   6.418   7.825  0.4457 -0.1836 -0.5144
   42MOL   C98845350   7.589   6.277   7.839 -0.5233 -0.1677  0.5000
   42MOL   C98945351   7.708   6.204   7.869  0.2288 -0.6107 -0.3384
   42MOL   C99045352   7.709   6.052   7.888  0.5734  0.4576  0.3310
   42MOL   C99145353   7.576   5.986   7.837  0.1053 -0.2627  0.2447
   42MOL   C99245354   7.819   5.980   7.809 -0.6898 -0.0426 -0.1032
   42MOL   C99345355   7.718   6.025   8.041  0.4467  0.1617  0.3603
   42MOL   C99445356   7.612   6.065   8.124 -0.0881  0.1445 -0.5624
   42MOL   C99545357   7.615   6.031   0.007  1.2151  0.2641  0.1297
   42MOL   C99645358   7.722   5.970   0.068  0.1041 -0.1717 -0.3160
   42MOL   O99745359   7.732   5.943   0.205  0.0833 -0.5252  0.6613
   42MOL   C99845360   7.832   5.938   8.244 -0.0741 -0.1497 -0.1269
   42MOL   C99945361   7.826   5.963   8.100  0.3206  0.1639 -0.7565
   42MOL     C145362   7.825   6.284   7.880  0.1444 -0.1630 -0.2919
   42MOL     C245363   7.819   6.422   7.870 -0.6005  0.6566 -0.7442
   42MOL     C345364   7.508   6.765   7.812 -0.7045 -0.6733 -0.9482
   42MOL     C445365   7.424   6.847   7.883  0.0899  0.4061  0.0439
   42MOL     C545366   7.117   6.826   8.133  0.3635  0.1633 -0.1974
   42MOL     C645367   7.012   6.767   8.203  0.0850  0.3108 -0.1599
   42MOL     H745368   7.120   6.846   0.268 -3.8152 -0.2490 -0.5145
   42MOL     H845369   7.312   6.946   0.128 -0.5318  1.3162 -0.7703
   42MOL     H945370   7.561   6.817   8.196 -0.9447  1.0721 -0.1105
   42MOL    H1045371   7.715   6.676   8.072 -2.0805  1.2602  4.3177
   42MOL    H1145372   7.484   6.458   7.799  1.6098  2.3381 -1.1552
   42MOL    H1245373   7.495   6.225   7.842  0.5242 -2.0875  0.4179
   42MOL    H1345374   7.573   5.878   7.845 -1.7393 -0.3768 -1.5944
   42MOL    H1445375   7.552   6.008   7.733 -0.8635  1.7763  0.8703
   42MOL    H1545376   7.488   6.012   7.896 -0.2939  1.0692 -0.9157
   42MOL    H1645377   7.828   6.009   7.704  1.5856  0.2446  0.1516
   42MOL    H1745378   7.920   5.993   7.847 -0.0999 -0.9794 -1.3359
   42MOL    H1845379   7.810   5.872   7.809 -2.2430  0.0738 -1.3249
   42MOL    H1945380   7.524   6.114   8.086 -0.0217  0.7198  0.0135
   42MOL    H2045381   7.531   6.050   0.071  1.7036  2.9334  0.0459
   42MOL    H2145382   7.921   5.893   0.032  0.1321  0.7178  0.3908
   42MOL    H2245383   7.914   5.933   8.046 -0.0364  0.1912 -1.3572
   42MOL    H2345384   7.924   6.241   7.891  0.2179 -0.6963 -2.8450
   42MOL    H2445385   7.918   6.466   7.871 -0.5265  0.4983  1.0269
   42MOL    H2545386   7.508   6.767   7.704  1.7748  2.0912 -0.9362
   42MOL    H2645387   7.359   6.914   7.829  0.4593  2.5902  2.2351
   42MOL    H2745388   7.109   6.832   8.025 -0.8796 -0.0674 -0.1287
   42MOL    H2845389   6.930   6.717   8.153 -1.1269 -0.5640  2.5627
   42MOL    C2945390   7.667   5.838   0.256 -0.4282 -0.0025  0.1110
   42MOL    C3045391   7.732   5.706   0.261  1.2505  0.6786  0.6979
   42MOL    C3145392   7.665   5.601   0.329  0.5609 -0.3714 -0.5194
   42MOL    C3245393   7.535   5.621   0.382 -0.1839 -0.2701 -0.5203
   42MOL    S3345394   7.453   5.483   0.465 -0.0919  0.4287  0.0506
   42MOL    O3445395   7.360   5.541   0.563 -0.6974  0.2314 -0.0138
   42MOL    O3545396   7.544   5.377   0.497 -0.7299 -0.5977  0.4088
   42MOL    C3645397   7.356   5.406   0.333  0.8101 -0.5765  0.0644
   42MOL    C3745398   7.219   5.416   0.319  0.1298  0.2183 -0.2642
   42MOL    C3845399   7.141   5.338   0.225 -0.7498  0.1263 -0.8345
   42MOL    C3945400   7.213   5.243   0.148 -0.4560 -0.5231  0.3333
   42MOL    O4045401   7.151   5.148   0.072  0.1369  0.4050  0.2781
   42MOL    C4145402   7.068   5.056   0.135 -0.3807 -0.5087 -0.6769
   42MOL    C4245403   7.113   4.928   0.164 -0.7286 -0.4354 -0.0357
   42MOL    C4345404   7.024   4.835   0.225  0.5125  0.5061 -0.2894
   42MOL    C4445405   6.887   4.858   0.243 -0.1962  0.2661  0.5776
   42MOL    C4545406   6.789   4.753   0.296 -0.0235  0.0713  0.2053
   42MOL    C4645407   6.677   4.736   0.186  0.5066 -0.7872 -0.6017
   42MOL    C4745408   6.859   4.610   0.323  0.8364  0.1034  0.3044
   42MOL    C4845409   6.735   4.801   0.428  0.2644 -0.2760  0.2163
   42MOL    C4945410   6.827   4.827   0.535 -0.2917  0.0263 -0.2027
   42MOL    C5045411   6.787   4.869   0.667  0.7427  0.2370  0.4311
   42MOL    C5145412   6.650   4.885   0.685 -0.3315  0.9200 -0.0364
   42MOL    O5245413   6.607   4.946   0.797  0.4347 -0.3145 -0.8033
   42MOL    C5345414   6.550   4.841   0.583  0.5802  0.0259 -0.4419
   42MOL    C5445415   6.597   4.802   0.457 -1.0672  0.7841 -0.1489
   42MOL    C5545416   6.845   4.986   0.206  0.1609 -0.5948 -0.4313
   42MOL    C5645417   6.933   5.087   0.163  0.1314  1.1479  0.4564
   42MOL    C5745418   7.354   5.234   0.162  0.2219 -0.3513 -0.2171
   42MOL    C5845419   7.422   5.312   0.252 -0.9395 -0.2104  0.4890
   42MOL    C5945420   7.475   5.742   0.371 -0.4243  0.0604 -0.1322
   42MOL    C6045421   7.534   5.852   0.304  0.6817 -0.0959 -0.0042
   42MOL    H6145422   7.832   5.693   0.222  1.8487  1.4532  1.9449
   42MOL    H6245423   7.702   5.500   0.338 -0.3448 -0.8256 -1.6685
   42MOL    H6345424   7.154   5.482   0.374  0.1970  2.1805 -2.4697
   42MOL    H6445425   7.036   5.356   0.211 -1.6230 -2.2013  2.2722
   42MOL    H6545426   7.213   4.900   0.135 -0.4068 -1.4599  1.9826
   42MOL    H6645427   7.064   4.737   0.244 -1.6523 -0.3540  0.0253
   42MOL    H6745428   6.613   4.824   0.176  2.3095  0.6919  0.4346
   42MOL    H6845429   6.608   4.656   0.214 -2.2562  1.8636  0.4799
   42MOL    H6945430   6.719   4.710   0.090  0.2978 -1.4533 -0.5127
   42MOL    H7045431   6.888   4.560   0.230 -0.0569 -1.2215  0.7304
   42MOL    H7145432   6.946   4.616   0.388  0.9256 -1.3160  0.3413
   42MOL    H7245433   6.783   4.548   0.370 -1.0237  1.3454 -0.9756
   42MOL    H7345434   6.932   4.830   0.508 -0.4999  1.2267 -0.9271
   42MOL    H7445435   6.861   4.890   0.742  0.5324 -0.7915  0.9349
   42MOL    H7545436   6.444   4.849   0.604  0.7798  0.8687  0.2946
   42MOL    H7645437   6.524   4.763   0.387 -0.8767 -0.7064  0.4519
   42MOL    H7745438   6.743   5.019   0.214 -0.3237 -2.1482 -0.2317
   42MOL    H7845439   6.895   5.185   0.141 -0.2819  0.6585 -1.0816
   42MOL    H7945440   7.420   5.158   0.124 -1.1370 -0.8715 -1.6067
   42MOL    H8045441   7.528   5.297   0.264 -0.5031  2.5130  0.4147
   42MOL    H8145442   7.378   5.745   0.418 -0.0432 -1.1042  0.7339
   42MOL    H8245443   7.479   5.943   0.286 -3.9460 -2.2386  2.4804
   42MOL    H8345444   6.677   4.973   0.854 -0.8517  0.1322  0.5850
   43MOL     C145445   5.009   1.459   4.187 -0.0362 -0.5273  0.0347
   43MOL     C245446   5.011   1.564   4.281 -0.1974  0.1791 -0.4583
   43MOL     C345447   4.931   1.560   4.392  0.3590 -0.3200 -0.3073
   43MOL     C445448   4.842   1.444   4.414  0.3956 -0.5430 -0.0402
   43MOL     S545449   4.745   1.443   4.567 -0.3978 -0.0321 -0.4583
   43MOL     O645450   4.837   1.426   4.683 -0.1361  0.4460 -0.2820
   43MOL     O745451   4.640   1.342   4.544 -0.7082 -0.4468  0.0915
   43MOL     C845452   4.670   1.606   4.588  0.5270 -0.2366  0.7458
   43MOL     C945453   4.617   1.669   4.467 -0.6711  0.2807  0.3417
   43MOL    C1045454   4.573   1.806   4.481 -0.2802  0.0275  0.5007
   43MOL    C1145455   4.591   1.873   4.607 -0.2211  0.2065 -0.5229
   43MOL    O1245456   4.553   2.004   4.628  0.2899  0.4966  0.0670
   43MOL    C1345457   4.428   2.046   4.661  0.1311  0.7659 -0.8229
   43MOL    C1445458   4.320   1.955   4.679 -0.2136 -0.3221  0.1989
   43MOL    C1545459   4.185   2.008   4.707  0.1391  0.2700 -0.1703
   43MOL    C1645460   4.168   2.150   4.719 -0.5576 -0.1311 -0.1130
   43MOL    C1745461   4.031   2.206   4.749 -0.2620 -0.6791  0.3171
   43MOL    C1845462   4.035   2.237   4.903  0.4446 -0.4355  0.4058
   43MOL    C1945463   4.005   2.340   4.672  0.3823  0.0271 -0.0367
   43MOL    C2045464   3.915   2.111   4.714  0.0779 -0.1560 -0.7238
   43MOL    C2145465   3.819   2.058   4.805 -0.5876 -0.1692  0.3403
   43MOL    C2245466   3.718   1.971   4.759 -0.0943  0.3091 -0.4502
   43MOL    C2345467   3.700   1.940   4.618  0.1741 -0.2074  0.1170
   43MOL    O2445468   3.606   1.858   4.576 -0.0938  0.3750  0.1492
   43MOL    C2545469   3.797   1.997   4.529 -0.5297 -0.5983  0.9989
   43MOL    C2645470   3.892   2.086   4.576 -0.1717  0.3273  0.0423
   43MOL    C2745471   4.281   2.234   4.704  0.2454  0.1012  0.1144
   43MOL    C2845472   4.413   2.183   4.682  0.2105  0.0871 -0.0182
   43MOL    C2945473   4.647   1.810   4.717 -0.5784 -0.9133 -0.0759
   43MOL    C3045474   4.685   1.672   4.709  0.0426 -0.7186 -0.0141
   43MOL    C3145475   4.855   1.334   4.333 -0.2104  0.3433 -0.3448
   43MOL    C3245476   4.937   1.346   4.220 -0.5356 -1.0026 -0.2080
   43MOL    H3345477   5.074   1.650   4.269  0.3792  0.0592  1.5186
   43MOL    H3445478   4.937   1.645   4.459  1.2624  0.2720 -1.1292
   43MOL    H3545479   4.604   1.622   4.371 -3.5447  1.8730 -0.1132
   43MOL    H3645480   4.511   1.854   4.406 -0.3764  0.0931  0.6237
   43MOL    H3745481   4.329   1.848   4.670  0.4316 -0.2309 -0.3170
   43MOL    H3845482   4.101   1.941   4.716 -0.0866 -0.0125 -3.5690
   43MOL    H3945483   3.934   2.276   4.916  1.0066  0.1963  3.3524
   43MOL    H4045484   4.107   2.315   4.927 -0.8193  1.0008 -0.3921
   43MOL    H4145485   4.056   2.154   4.972  0.0369 -0.0790  0.9651
   43MOL    H4245486   3.902   2.375   4.683 -0.2952 -2.1613  0.8129
   43MOL    H4345487   4.080   2.418   4.688  0.5058 -0.3756  1.4174
   43MOL    H4445488   4.007   2.322   4.565  0.8912 -0.4273  0.0468
   43MOL    H4545489   3.825   2.073   4.912 -0.0321  0.3026  0.2446
   43MOL    H4645490   3.651   1.917   4.824 -1.7716 -0.8411 -3.0700
   43MOL    H4745491   3.783   1.977   4.424  0.2398  1.3540  0.5069
   43MOL    H4845492   3.963   2.129   4.507 -0.3832 -0.0254 -0.3993
   43MOL    H4945493   4.270   2.341   4.703  0.2347  0.1058 -2.4938
   43MOL    H5045494   4.502   2.245   4.673  0.9392 -0.9854 -0.2763
   43MOL    H5145495   4.654   1.865   4.810  0.5151 -0.3078 -0.4977
   43MOL    H5245496   4.732   1.613   4.786 -0.7524 -1.6373 -0.2244
   43MOL    H5345497   4.801   1.245   4.361  0.3048 -0.0549 -0.6122
   43MOL    H5445498   4.952   1.254   4.165  2.2076 -1.0048  0.4721
   43MOL    H5545499   5.064   1.449   4.095  0.6856  1.2062  0.2644
   43MOL    C5645500   3.645   1.729   4.539  0.9510 -0.0346 -0.3823
   43MOL    C5745501   3.765   1.663   4.566 -0.0824  0.4212 -0.4071
   43MOL    C5845502   3.801   1.542   4.510  1.4797  1.0073 -0.2313
   43MOL    C5945503   3.714   1.466   4.427  0.0367 -0.6594  0.4155
   43MOL    S6045504   3.750   1.304   4.375  0.1916 -0.1331 -0.5567
   43MOL    O6145505   3.845   1.321   4.266 -0.5055  0.2215  0.5179
   43MOL    O6245506   3.627   1.225   4.359 -0.1114 -0.2622 -0.5682
   43MOL    C6345507   3.838   1.235   4.511 -0.2745  0.0986 -0.0914
   43MOL    C6445508   3.977   1.239   4.505 -0.1027  0.1730 -0.1276
   43MOL    C6545509   4.047   1.169   4.601 -0.1478  0.6328  0.5483
   43MOL    C6645510   3.978   1.102   4.704 -0.6230 -0.4588  0.0071
   43MOL    O6745511   4.035   1.044   4.808  0.1404 -0.0023  0.0726
   43MOL    C6845512   4.126   0.948   4.778 -0.6712 -0.0283 -0.3940
   43MOL    C6945513   4.261   0.986   4.760  0.1435 -0.6014 -0.1432
   43MOL    C7045514   4.357   0.887   4.739  0.5770 -0.7631  0.2958
   43MOL    C7145515   4.325   0.750   4.750  0.4707  0.1975 -0.9823
   43MOL    C7245516   4.429   0.644   4.710  0.4292  0.2182  0.2085
   43MOL    C7345517   4.386   0.600   4.571  0.2875  1.1221  0.0165
   43MOL    C7445518   4.571   0.692   4.702 -0.4748 -0.1061  0.2356
   43MOL    C7545519   4.447   0.522   4.803  0.4290 -0.4369 -0.0836
   43MOL    C7645520   4.480   0.395   4.751  0.0682 -0.0260  0.2355
   43MOL    C7745521   4.518   0.294   4.843  0.4792  0.0184  0.4338
   43MOL    C7845522   4.514   0.311   4.981  0.3650 -0.3111  0.2368
   43MOL    O7945523   4.548   0.210   5.066  0.3188  0.6923 -0.0902
   43MOL    C8045524   4.479   0.437   5.034  0.1476  0.3358 -0.0533
   43MOL    C8145525   4.442   0.541   4.943 -0.3648 -0.3268  0.1149
   43MOL    C8245526   4.189   0.713   4.769 -0.9453 -0.2247  0.2571
   43MOL    C8345527   4.090   0.814   4.772  0.1897 -0.0476 -0.3287
   43MOL    C8445528   3.841   1.112   4.714  0.4349 -1.1543  0.0439
   43MOL    C8545529   3.769   1.178   4.613  0.5341  0.3896 -0.4742
   43MOL    C8645530   3.591   1.529   4.402  0.6001  0.4387  0.9284
   43MOL    C8745531   3.564   1.660   4.450  0.5265  0.1772  1.0138
   43MOL    H8845532   3.834   1.709   4.635 -2.1981  0.1313  2.0026
   43MOL    H8945533   3.900   1.504   4.532  1.7428  1.8228 -0.0093
   43MOL    H9045534   4.031   1.286   4.424 -2.7165  0.7226 -1.6254
   43MOL    H9145535   4.155   1.171   4.591 -0.3452  0.6744 -1.6297
   43MOL    H9245536   4.275   1.093   4.767  1.1975 -0.6820 -1.0756
   43MOL    H9345537   4.457   0.924   4.721  1.0491 -1.3395  1.7012
   43MOL    H9445538   4.371   0.680   4.497 -1.3235  1.4922  0.7410
   43MOL    H9545539   4.295   0.540   4.571  1.4503 -0.7170 -1.7722
   43MOL    H9645540   4.458   0.531   4.526  0.2755  1.2175 -0.1512
   43MOL    H9745541   4.584   0.782   4.642 -0.5255  0.6634  1.3532
   43MOL    H9845542   4.610   0.715   4.802 -1.3453  2.4418  0.0298
   43MOL    H9945543   4.647   0.627   4.658 -0.3748 -0.9189  1.5749
   43MOL   H10045544   4.488   0.374   4.646  3.0782 -1.3248  0.6615
   43MOL   H10145545   4.524   0.195   4.802  0.9752 -0.3286  1.3396
   43MOL   H10245546   4.483   0.459   5.140 -0.0575  1.1260 -0.2062
   43MOL   H10345547   4.421   0.639   4.984 -1.7506 -1.3663  1.9789
   43MOL   H10445548   4.157   0.610   4.760  0.7774 -0.6764 -1.2027
   43MOL   H10545549   3.990   0.774   4.786  1.4660 -2.3519  2.8160
   43MOL   H10645550   3.787   1.075   4.799  1.3010 -0.2771  0.9894
   43MOL   H10745551   3.662   1.188   4.606  0.5906  1.3258 -0.0175
   43MOL   H10845552   3.531   1.479   4.327 -0.2862 -0.8639  2.4797
   43MOL   H10945553   3.471   1.699   4.412  1.2826  0.9479 -0.0561
   43MOL   C11045554   4.507   0.081   5.034  0.5621  0.3139  0.6424
   43MOL   C11145555   4.376   0.042   5.078  0.1546  0.0912  0.5322
   43MOL   C11245556   4.327   8.168   5.034  0.0537  0.2006 -0.3571
   43MOL   C11345557   4.412   8.082   4.965  0.6330 -0.6672 -0.2085
   43MOL   S11445558   4.359   7.911   4.940 -0.2311  0.3291 -0.0773
   43MOL   O11545559   4.432   7.821   5.029  0.1017  0.3407 -0.2789
   43MOL   O11645560   4.378   7.889   4.796 -0.0668 -0.0108 -0.2181
   43MOL   C11745561   4.175   7.908   4.982 -0.2285 -0.5932  0.5015
   43MOL   C11845562   4.091   7.961   4.887  0.3846  0.5050 -0.3339
   43MOL   C11945563   3.959   7.986   4.920 -0.0862 -0.1507 -0.2160
   43MOL   C12045564   3.906   7.945   5.043  0.2211  0.7821 -0.5828
   43MOL   O12145565   3.773   7.975   5.072 -0.2397 -0.0642 -0.2382
   43MOL   C12245566   3.748   8.107   5.092 -0.0821  0.5019 -0.2086
   43MOL   C12345567   3.669   8.179   5.005 -0.0800  0.1595  0.4944
   43MOL   C12445568   3.623   0.051   5.033  0.4688  0.2165  0.2586
   43MOL   C12545569   3.659   0.120   5.153 -0.6418 -0.3780 -0.2609
   43MOL   C12645570   3.594   0.249   5.209  0.2868 -0.9759 -0.3884
   43MOL   C12745571   3.715   0.345   5.255  0.0184  0.1240 -0.3016
   43MOL   C12845572   3.521   0.324   5.103 -0.4207 -0.5189 -0.4819
   43MOL   C12945573   3.502   0.231   5.332 -0.3513  0.5842 -0.4077
   43MOL   C13045574   3.488   0.104   5.398  0.3528  0.3342  0.1856
   43MOL   C13145575   3.421   0.095   5.518 -0.0717 -0.1756  0.2326
   43MOL   C13245576   3.372   0.214   5.582  0.3323 -0.6528  0.3027
   43MOL   O13345577   3.320   0.203   5.710 -0.3490  0.1230  0.2941
   43MOL   C13445578   3.369   0.337   5.506 -0.2413 -0.3536 -0.4304
   43MOL   C13545579   3.437   0.346   5.387  0.3144 -0.0425  0.3230
   43MOL   C13645580   3.754   0.046   5.235 -0.4878 -0.4365 -0.2250
   43MOL   C13745581   3.798   8.175   5.205  0.2444 -0.2467  0.5211
   43MOL   C13845582   3.982   7.867   5.134 -0.3819  0.5270  0.2438
   43MOL   C13945583   4.121   7.861   5.109  0.4985 -0.2002  0.2367
   43MOL   C14045584   4.546   8.113   4.938  0.2257  0.0792  0.7132
   43MOL   C14145585   4.595   8.243   4.964 -0.4945 -0.2674 -0.6842
   43MOL   H14245586   4.319   0.111   5.138  0.5860  1.9085 -1.1289
   43MOL   H14345587   4.230   8.151   5.077 -0.5683 -0.8275 -2.0873
   43MOL   H14445588   4.127   7.993   4.791  1.9854  0.4886  0.2381
   43MOL   H14545589   3.895   8.051   4.863  0.1626 -0.1338 -0.4732
   43MOL   H14645590   3.632   8.131   4.915 -1.6480  0.5727  0.8967
   43MOL   H14745591   3.556   0.088   4.957 -0.6316 -2.8465 -0.3120
   43MOL   H14845592   3.783   0.347   5.170  3.5020 -0.6973  2.3498
   43MOL   H14945593   3.774   0.312   5.341 -0.5459  4.3770  1.8436
   43MOL   H15045594   3.676   0.444   5.275 -1.1469 -0.5729  0.9515
   43MOL   H15145595   3.482   0.424   5.120 -4.0459 -1.8191 -0.7878
   43MOL   H15245596   3.583   0.345   5.016  1.1954  0.8752  0.9672
   43MOL   H15345597   3.437   0.266   5.066  0.0552  0.7662 -3.7472
   43MOL   H15445598   3.522   0.013   5.352 -0.3380 -0.6377  1.5732
   43MOL   H15545599   3.411   0.014   5.589  0.3253 -0.8294 -0.4494
   43MOL   H15645600   3.313   0.419   5.548 -0.1759 -0.9735  0.9119
   43MOL   H15745601   3.459   0.439   5.337  0.7726 -0.7934 -0.8963
   43MOL   H15845602   3.786   0.100   5.322 -1.2878  1.4019 -1.0491
   43MOL   H15945603   3.860   8.120   5.274  1.9216 -0.3204 -1.0031
   43MOL   H16045604   3.946   7.828   5.228 -0.2504 -0.1752  0.0097
   43MOL   H16145605   4.190   7.811   5.175 -0.2791 -0.2068  1.0520
   43MOL   H16245606   4.605   8.038   4.888  1.9600  0.4048  2.2121
   43MOL   H16345607   4.694   0.023   4.938 -0.7792  1.9302  0.8996
   43MOL   C16445608   3.191   0.145   5.722 -0.2333 -0.3328 -0.1052
   43MOL   C16545609   3.071   0.223   5.718 -1.0009 -0.5112 -0.1878
   43MOL   C16645610   2.945   0.173   5.759 -0.4006 -0.1384  0.0217
   43MOL   C16745611   2.950   0.042   5.816  0.0021 -0.0463  0.2596
   43MOL   S16845612   2.801   8.244   5.910 -0.4631  0.3902 -0.0111
   43MOL   O16945613   2.690   0.089   5.900 -0.0163  0.3261  0.1141
   43MOL   O17045614   2.843   8.215   6.046 -0.3734  0.1861 -0.7196
   43MOL   C17145615   2.743   8.092   5.838  0.5224 -0.4320 -0.6610
   43MOL   C17245616   2.787   7.973   5.904 -0.1462 -0.1699 -0.0484
   43MOL   C17345617   2.750   7.848   5.852 -0.1517  0.2002  0.6317
   43MOL   C17445618   2.673   7.842   5.734  0.2509 -0.2380 -1.0166
   43MOL   O17545619   2.630   7.719   5.682  0.0095  0.4942  0.7282
   43MOL   C17645620   2.677   7.601   5.738  0.6420 -0.2985  0.6851
   43MOL   C17745621   2.805   7.551   5.704  0.8635 -0.2723  0.6014
   43MOL   C17845622   2.864   7.449   5.781  0.4620  0.5860 -0.1070
   43MOL   C17945623   2.770   7.368   5.859  0.1800  0.1568 -0.2628
   43MOL   C18045624   2.821   7.239   5.926  0.5271 -0.2731 -0.0912
   43MOL   C18145625   2.716   7.127   5.890  0.2625  0.1808  0.2760
   43MOL   C18245626   2.961   7.192   5.878 -0.3791  0.1854  0.0503
   43MOL   C18345627   2.834   7.256   6.074  0.0864  0.2004  0.2456
   43MOL   C18445628   2.833   7.377   6.143 -0.4089 -0.6602  0.6703
   43MOL   C18545629   2.852   7.381   6.280  1.4111  0.3341  0.4519
   43MOL   C18645630   2.859   7.269   6.359  0.0219 -0.4968 -0.6492
   43MOL   O18745631   2.872   7.272   6.496 -0.2908  0.4893  0.2089
   43MOL   C18845632   2.852   7.142   6.295 -0.7757  0.0907 -0.1581
   43MOL   C18945633   2.843   7.135   6.155 -0.6174  0.0492 -0.8766
   43MOL   C19045634   2.650   7.424   5.902 -0.2587  0.0716 -0.4088
   43MOL   C19145635   2.602   7.536   5.838  0.6636  0.6405 -0.1930
   43MOL   C19245636   2.639   7.963   5.666  0.3484  0.8441 -1.0406
   43MOL   C19345637   2.678   8.087   5.717  0.3854 -0.4346 -0.6048
   43MOL   C19445638   3.070   8.215   5.827 -0.1247 -0.1612 -0.6890
   43MOL   C19545639   3.185   0.012   5.771 -0.7030  0.4389 -0.5371
   43MOL   H19645640   3.080   0.327   5.692 -0.6279 -0.3993  0.3862
   43MOL   H19745641   2.854   0.229   5.768 -0.5979 -0.5929  0.8831
   43MOL   H19845642   2.834   7.980   6.001  0.0948 -1.5075 -0.0679
   43MOL   H19945643   2.778   7.755   5.900  0.7403  0.2886  0.2958
   43MOL   H20045644   2.856   7.610   5.629 -0.0175 -0.5100 -0.1991
   43MOL   H20145645   2.959   7.406   5.754 -0.2601 -0.4681 -1.0351
   43MOL   H20245646   2.703   7.129   5.782 -1.6767  0.5796  0.4947
   43MOL   H20345647   2.618   7.138   5.937  0.3391 -1.5071  0.8652
   43MOL   H20445648   2.754   7.027   5.911  1.5955  0.3392 -1.3162
   43MOL   H20545649   3.034   7.264   5.914 -0.2088  0.4370 -0.7770
   43MOL   H20645650   2.977   7.093   5.921  0.1584  1.4885  2.9154
   43MOL   H20745651   2.981   7.179   5.771  0.1993  0.1869  0.1565
   43MOL   H20845652   2.828   7.470   6.088 -0.5515 -0.7792  0.4849
   43MOL   H20945653   2.836   7.475   6.331  0.0371  0.3402  0.0408
   43MOL   H21045654   2.859   7.059   6.363  2.0829 -1.1494 -1.8909
   43MOL   H21145655   2.845   7.039   6.105  0.9531 -0.9573  1.0431
   43MOL   H21245656   2.588   7.379   5.977  1.1206 -0.6814  0.3069
   43MOL   H21345657   2.506   7.573   5.871  0.2986 -3.5206  3.7612
   43MOL   H21445658   2.581   7.967   5.575 -0.2911  0.2140 -0.6692
   43MOL   H21545659   2.647   8.175   5.663  2.5695  0.2023 -0.8725
   43MOL   H21645660   3.074   8.120   5.878  1.3564 -0.6207 -1.6395
   43MOL   H21745661   3.272   8.203   5.758  0.6336  2.2721 -0.6112
   43MOL   C21845662   2.997   7.261   6.547  0.6279  0.7621 -0.7945
   43MOL   C21945663   3.108   7.220   6.471 -0.2204  0.1437  0.2808
   43MOL   C22045664   3.240   7.216   6.533  0.3440 -0.5775 -0.1142
   43MOL   C22145665   3.254   7.260   6.666  0.1436 -1.1300 -0.1004
   43MOL   S22245666   3.413   7.234   6.751 -0.2502  0.3461  0.4156
   43MOL   O22345667   3.494   7.142   6.672  0.3305  0.0409  0.4360
   43MOL   O22445668   3.392   7.200   6.892  0.7855  0.5889  0.2074
   43MOL   C22545669   3.501   7.393   6.739  0.1114 -0.2728  0.3136
   43MOL   C22645670   3.637   7.391   6.708 -1.4055  0.3054 -0.0838
   43MOL   C22745671   3.711   7.506   6.692 -0.2332  0.3232  0.1747
   43MOL   C22845672   3.652   7.630   6.706 -0.0169 -0.1464  0.0165
   43MOL   O22945673   3.717   7.751   6.692 -0.5228  0.2186  0.1373
   43MOL   C23045674   3.814   7.783   6.785 -0.0945 -0.3217 -0.2498
   43MOL   C23145675   3.795   7.752   6.921  0.4539 -0.3891  0.3603
   43MOL   C23245676   3.880   7.804   7.021  0.5372 -0.4580 -0.4786
   43MOL   C23345677   3.985   7.889   6.984  0.4316 -0.1079 -0.2681
   43MOL   C23445678   4.058   7.980   7.090  0.3336 -0.1194 -0.7347
   43MOL   C23545679   4.101   8.119   7.023 -0.1025  0.0253  0.2003
   43MOL   C23645680   3.967   8.030   7.206 -0.5363  0.1567  0.2649
   43MOL   C23745681   4.174   7.898   7.151  0.7521 -0.7815  0.3542
   43MOL   C23845682   4.307   7.931   7.129 -0.2687 -0.1336 -0.3165
   43MOL   C23945683   4.411   7.862   7.196 -0.0965 -0.1979 -0.4525
   43MOL   C24045684   4.385   7.758   7.286  0.6215  0.2766  0.9372
   43MOL   O24145685   4.487   7.703   7.351  0.6499 -0.4881 -0.2283
   43MOL   C24245686   4.254   7.710   7.300  0.1864  0.2717  0.3018
   43MOL   C24345687   4.149   7.789   7.237 -0.3080  0.1809  0.1851
   43MOL   C24445688   4.009   7.909   6.852 -0.2599 -0.1719 -0.0431
   43MOL   C24545689   3.928   7.854   6.749  0.1028 -0.3781  0.0831
   43MOL   C24645690   3.513   7.640   6.744  0.1864 -0.2024  1.0736
   43MOL   C24745691   3.437   7.520   6.752 -0.4339 -0.3698  0.2546
   43MOL   C24845692   3.141   7.301   6.740 -0.1496 -0.7257  0.6572
   43MOL   C24945693   3.017   7.307   6.678  0.7291  0.3742 -0.4393
   43MOL   H25045694   3.087   7.182   6.372  0.4066 -0.5232  0.4046
   43MOL   H25145695   3.328   7.174   6.485  2.4522  0.9259  2.3237
   43MOL   H25245696   3.680   7.295   6.682  2.4227  1.9874 -0.3532
   43MOL   H25345697   3.816   7.501   6.666 -0.8023 -1.3205 -1.9423
   43MOL   H25445698   3.712   7.696   6.963  0.9969 -2.3481 -1.1070
   43MOL   H25545699   3.865   7.777   7.125  3.0260  2.5122  0.7466
   43MOL   H25645700   4.018   8.164   6.969 -0.7837 -2.4052 -0.8411
   43MOL   H25745701   4.179   8.108   6.948 -0.0069  1.0664  0.1457
   43MOL   H25845702   4.137   8.195   7.093  1.6350 -0.8607  0.3055
   43MOL   H25945703   3.936   7.948   7.270  0.0076 -0.1493  0.1336
   43MOL   H26045704   4.038   8.089   7.265 -0.3829 -1.5016  1.7586
   43MOL   H26145705   3.874   8.078   7.174 -1.2743 -1.0518  0.5773
   43MOL   H26245706   4.337   8.009   7.061 -1.7138  0.4397 -0.3153
   43MOL   H26345707   4.514   7.893   7.185 -0.1080 -0.0612 -0.1676
   43MOL   H26445708   4.227   7.627   7.364  1.8258 -0.9616 -0.5844
   43MOL   H26545709   4.048   7.754   7.249  0.4309 -2.0203  0.3195
   43MOL   H26645710   4.099   7.960   6.820 -0.5970 -0.0694 -0.8401
   43MOL   H26745711   3.942   7.875   6.644  0.8385 -0.3386  0.1823
   43MOL   H26845712   3.458   7.733   6.739 -1.5603 -1.2825 -0.8148
   43MOL   H26945713   3.332   7.528   6.775 -0.4394  1.0901 -0.2564
   43MOL   H27045714   3.161   7.329   6.842  0.0492  0.4990  0.2919
   43MOL   H27145715   2.934   7.338   6.738  1.4558  0.0891  0.7334
   43MOL   C27245716   4.526   7.761   7.474 -0.7240 -0.5326  1.1091
   43MOL   C27345717   4.660   7.733   7.519 -0.2426  0.1374  0.2810
   43MOL   C27445718   4.701   7.777   7.648  0.5365  0.2083  0.1292
   43MOL   C27545719   4.618   7.865   7.721  0.4460  0.6174 -0.0983
   43MOL   S27645720   4.669   7.923   7.883 -0.1745 -0.0204  0.1850
   43MOL   O27745721   4.774   7.847   7.941 -0.6542  0.0772 -0.0346
   43MOL   O27845722   4.544   7.924   7.953  0.9862  0.1771 -0.4545
   43MOL   C27945723   4.719   8.092   7.858  0.2887  0.5922 -0.1406
   43MOL   C28045724   4.861   8.120   7.871  0.3334 -0.5425 -0.3209
   43MOL   C28145725   4.906   8.251   7.857  0.4050 -0.3395 -0.6944
   43MOL   C28245726   4.809   0.098   7.819 -0.3473  0.7318 -0.2032
   43MOL   O28345727   4.857   0.225   7.785  0.8569 -0.6468 -0.1499
   43MOL   C28445728   4.792   0.337   7.820 -0.6829 -0.4979  0.3585
   43MOL   C28545729   4.787   0.367   7.954  0.5110 -0.9596  0.4320
   43MOL   C28645730   4.725   0.489   8.002 -0.6810  0.8214 -0.5412
   43MOL   C28745731   4.649   0.563   7.913  0.5349  0.4346 -0.4634
   43MOL   C28845732   4.556   0.675   7.959 -1.2382  0.3313 -0.3866
   43MOL   C28945733   4.656   0.781   8.008 -0.0559  0.0721 -0.4815
   43MOL   C29045734   4.464   0.738   7.850  0.2946 -0.0007  0.4702
   43MOL   C29145735   4.465   0.623   8.072 -1.1458  0.5383  0.5102
   43MOL   C29245736   4.476   0.666   8.205  1.1600  0.3546 -0.4518
   43MOL   C29345737   4.378   0.621   0.048 -0.2869  0.0284  0.3341
   43MOL   C29445738   4.292   0.514   0.019  0.3773 -0.1230 -0.2165
   43MOL   O29545739   4.195   0.466   0.107 -0.1964  0.0690 -0.7558
   43MOL   C29645740   4.287   0.460   8.145  0.0891  0.3156 -0.2742
   43MOL   C29745741   4.370   0.515   8.044 -0.3287 -0.1980  0.0116
   43MOL   C29845742   4.657   0.536   7.776  0.1335  0.1464 -0.7084
   43MOL   C29945743   4.731   0.429   7.727 -0.2449  0.5576  0.0958
   43MOL   C30045744   4.667   0.071   7.804  0.3461 -0.3723  0.2042
   43MOL   C30145745   4.629   8.193   7.821 -0.0261  0.1640  0.6466
   43MOL   C30245746   4.496   7.907   7.667 -0.2700 -0.0263  0.1973
   43MOL   C30345747   4.447   7.851   7.545  0.2358  0.4151 -0.6668
   43MOL   H30445748   4.728   7.671   7.463  0.1564  1.5769 -0.8510
   43MOL   H30545749   4.799   7.750   7.683  0.1758 -1.0834  0.1875
   43MOL   H30645750   4.927   8.042   7.906  0.5904  0.9103  2.6008
   43MOL   H30745751   5.013   0.012   7.852  0.1277  2.4462  0.5292
   43MOL   H30845752   4.843   0.302   8.020  0.2428 -1.0959  0.5267
   43MOL   H30945753   4.729   0.510   8.108  0.6287  2.2138 -0.8420
   43MOL   H31045754   4.719   0.752   8.092 -2.1782 -1.4768  0.6376
   43MOL   H31145755   4.603   0.868   8.049 -0.9544 -1.8855  2.6698
   43MOL   H31245756   4.719   0.819   7.928  0.7383  1.8033  0.9132
   43MOL   H31345757   4.402   0.661   7.804  2.8085 -1.1991 -1.0591
   43MOL   H31445758   4.402   0.807   7.906  0.3365 -0.2021  0.7660
   43MOL   H31545759   4.523   0.789   7.774  1.6696 -2.3972 -0.1257
   43MOL   H31645760   4.548   0.744   8.227  1.6378  0.4161 -2.1762
   43MOL   H31745761   4.383   0.674   0.142  1.3210 -3.0436  2.0574
   43MOL   H31845762   4.210   0.385   8.130  1.5089 -1.2493  0.1002
   43MOL   H31945763   4.357   0.473   7.945 -0.5971 -1.0831  0.4175
   43MOL   H32045764   4.616   0.603   7.702  0.5891  2.3817  1.0123
   43MOL   H32145765   4.741   0.408   7.622  0.1436  3.0382 -0.3804
   43MOL   H32245766   4.597   0.150   7.782 -0.0900 -0.4527  1.2403
   43MOL   H32345767   4.523   8.179   7.807  0.4494 -0.6144 -2.4413
   43MOL   H32445768   4.437   7.977   7.723  1.5074  1.2571  0.4959
   43MOL   H32545769   4.357   7.884   7.495  0.0093  0.7390 -0.0435
   43MOL   C32645770   4.158   0.530   0.226 -0.3952  0.6320 -0.2311
   43MOL   C32745771   4.247   0.537   0.334  0.3492 -0.0488 -0.0547
   43MOL   C32845772   4.222   0.611   0.446 -0.0895  0.3899 -0.2432
   43MOL   C32945773   4.109   0.696   0.444 -0.5215 -0.1138  0.7244
   43MOL   S33045774   4.089   0.812   0.587 -0.1461 -0.1062  0.2588
   43MOL   O33145775   4.010   0.928   0.550  0.4386 -0.6134  0.1497
   43MOL   O33245776   4.220   0.829   0.651 -0.0255  0.5071 -0.9815
   43MOL   C33345777   3.992   0.720   0.703  0.1288 -0.6675  0.3971
   43MOL   C33445778   4.000   0.756   0.840 -0.1196 -0.6206 -0.0045
   43MOL   C33545779   3.911   0.701   0.929 -0.5172  0.0534 -0.8077
   43MOL   C33645780   3.825   0.599   0.894 -0.8500 -0.3294  0.6626
   43MOL   O33745781   3.740   0.548   0.994 -0.6032  0.3504  0.3462
   43MOL   C33845782   3.604   0.567   0.970  0.3817  0.6398  0.4319
   43MOL   C33945783   3.523   0.471   0.905 -0.8519 -0.6182  0.3264
   43MOL   C34045784   3.400   0.512   0.853 -0.6644 -0.0670 -0.2018
   43MOL   C34145785   3.342   0.642   0.873  0.1743  0.4625 -0.1594
   43MOL   C34245786   3.211   0.676   0.795  0.1742  0.2573  0.3993
   43MOL   C34345787   3.160   0.816   0.837  0.0133 -0.3936 -0.1893
   43MOL   C34445788   3.248   0.665   0.645 -0.8338  0.5825 -0.1810
   43MOL   C34545789   3.107   0.569   0.820  0.0920  0.4044 -0.0087
   43MOL   C34645790   3.045   0.490   0.716 -0.8291 -0.3839  0.1661
   43MOL   C34745791   2.946   0.391   0.742  1.4101 -0.1534  0.0905
   43MOL   C34845792   2.913   0.367   0.876 -0.0578 -0.4810 -0.1476
   43MOL   O34945793   2.810   0.282   0.908 -0.4866 -0.5844 -0.3090
   43MOL   C35045794   2.978   0.437   0.978 -0.5199 -0.2748 -0.1536
   43MOL   C35145795   3.072   0.535   0.954  0.0918 -0.1344  0.6193
   43MOL   C35245796   3.425   0.733   0.946 -0.0944  0.6871  0.4468
   43MOL   C35345797   3.553   0.697   0.987  0.5525  0.0309  0.5264
   43MOL   C35445798   3.820   0.551   0.762 -0.3839 -0.4793 -0.6949
   43MOL   C35545799   3.900   0.619   0.664 -0.0396 -0.0510  0.1451
   43MOL   C35645800   4.013   0.689   0.340  0.2287  0.7175 -0.5189
   43MOL   C35745801   4.040   0.601   0.234 -0.0524 -0.1823  0.5133
   43MOL   H35845802   4.345   0.493   0.326  0.3544  0.1670 -1.2798
   43MOL   H35945803   4.294   0.619   0.526  0.7922  1.2751 -1.1160
   43MOL   H36045804   4.072   0.831   0.869 -1.5636  1.0288 -0.6509
   43MOL   H36145805   3.931   0.729   1.031  2.7210  1.0496 -1.6483
   43MOL   H36245806   3.565   0.372   0.894  1.6217  0.4344  0.0893
   43MOL   H36345807   3.344   0.438   0.799  0.7079 -0.6266 -0.8790
   43MOL   H36445808   3.219   0.900   0.800  0.1761 -0.6460 -0.5062
   43MOL   H36545809   3.168   0.814   0.946 -1.6771  0.1868 -0.0463
   43MOL   H36645810   3.057   0.839   0.809  0.9927  1.0456 -2.7995
   43MOL   H36745811   3.166   0.683   0.576 -0.0666  2.4911 -0.6093
   43MOL   H36845812   3.308   0.752   0.618 -2.2346  0.9379 -2.2330
   43MOL   H36945813   3.301   0.573   0.622 -0.1209  1.2457 -1.2062
   43MOL   H37045814   3.064   0.509   0.611  2.0410  1.0835  0.9065
   43MOL   H37145815   2.899   0.327   0.669  1.3586 -0.7184  0.6130
   43MOL   H37245816   2.965   0.415   1.083  2.3265 -1.5615 -0.0376
   43MOL   H37345817   3.133   0.579   1.032  2.0492 -1.0667 -0.3648
   43MOL   H37445818   3.396   0.836   0.956 -2.7381  0.2262 -1.9432
   43MOL   H37545819   3.618   0.773   1.026  0.1180  0.2168  0.9034
   43MOL   H37645820   3.749   0.472   0.741  0.1258 -0.5482 -2.2562
   43MOL   H37745821   3.884   0.597   0.559 -0.8138 -0.9454  0.4564
   43MOL   H37845822   3.929   0.756   0.345 -0.3926 -0.0013 -1.3102
   43MOL   H37945823   3.967   0.584   0.156  0.9088  0.3932 -0.5350
   43MOL   C38045824   2.855   0.174   0.978  1.1499 -0.0738 -0.2284
   43MOL   C38145825   2.909   0.066   0.908 -0.3229 -0.1937  0.6635
   43MOL   C38245826   2.964   8.213   0.975 -0.4261 -0.0687 -0.1884
   43MOL   C38345827   2.965   8.221   1.117 -0.1669 -0.6033  0.0598
   43MOL   S38445828   3.060   8.097   1.201  0.0471  0.1737  0.2532
   43MOL   O38545829   2.964   7.987   1.233  0.1946  0.1079 -0.3354
   43MOL   O38645830   3.127   8.152   1.320  0.1657  0.2265 -0.3144
   43MOL   C38745831   3.195   8.036   1.097 -0.4101 -0.1055  0.3672
   43MOL   C38845832   3.165   7.931   1.007 -0.0651  0.2181  0.2342
   43MOL   C38945833   3.263   7.885   0.916  0.0315  0.3613 -0.0182
   43MOL   C39045834   3.390   7.950   0.916  0.5396 -0.7654  0.3935
   43MOL   O39145835   3.493   7.896   0.842  0.0438  0.4749 -1.0482
   43MOL   C39245836   3.523   7.767   0.880 -0.1212  0.3408  0.5860
   43MOL   C39345837   3.520   7.670   0.786 -0.2061 -0.1493 -0.1441
   43MOL   C39445838   3.543   7.535   0.819 -0.0206 -0.1125  0.4119
   43MOL   C39545839   3.586   7.499   0.953  0.5309 -0.9515  0.1018
   43MOL   C39645840   3.626   7.354   0.981 -0.3789 -0.3954  0.0793
   43MOL   C39745841   3.667   7.322   1.129 -0.4268  0.0317 -0.1193
   43MOL   C39845842   3.497   7.279   0.960 -0.0463 -0.0043 -0.1590
   43MOL   C39945843   3.745   7.305   0.887 -0.0619 -0.2706  0.2485
   43MOL   C40045844   3.850   7.398   0.866 -0.4672  0.1902  0.2346
   43MOL   C40145845   3.956   7.362   0.785  0.0864 -0.0771 -0.2230
   43MOL   C40245846   3.973   7.231   0.746 -0.9130 -0.4295 -0.1790
   43MOL   O40345847   4.087   7.197   0.676  0.3084  0.0692 -0.3373
   43MOL   C40445848   3.876   7.136   0.771 -0.1419  0.4754 -0.0770
   43MOL   C40545849   3.758   7.171   0.838 -0.0201  0.2842  0.2397
   43MOL   C40645850   3.593   7.603   1.048  0.2746 -1.0145 -0.1098
   43MOL   C40745851   3.554   7.736   1.014 -0.4355  0.4371 -0.1860
   43MOL   C40845852   3.423   8.047   1.013 -0.2367 -0.1070  0.2971
   43MOL   C40945853   3.323   8.102   1.097 -0.8608  0.8934  0.9310
   43MOL   C41045854   2.915   0.076   1.193 -0.2037 -0.1496 -0.3727
   43MOL   C41145855   2.856   0.177   1.118 -0.3883  0.2531  0.0035
   43MOL   H41245856   2.915   0.075   0.800 -0.4947 -0.1863  0.6552
   43MOL   H41345857   3.008   8.129   0.923 -1.2175  0.0174 -1.0304
   43MOL   H41445858   3.061   7.903   1.015 -0.2623  1.2110  1.3512
   43MOL   H41545859   3.242   7.800   0.852 -1.4226  2.7397 -2.8635
   43MOL   H41645860   3.492   7.693   0.684 -0.2551 -1.5695 -0.4589
   43MOL   H41745861   3.541   7.459   0.742 -3.4152 -1.8586  2.1354
   43MOL   H41845862   3.592   7.369   1.194 -1.4933 -0.7366 -0.7753
   43MOL   H41945863   3.762   7.358   1.167 -0.1207 -1.9026  1.0222
   43MOL   H42045864   3.669   7.215   1.149 -1.5264  0.0769  0.2687
   43MOL   H42145865   3.459   7.299   0.859 -1.5741 -2.1564 -0.0542
   43MOL   H42245866   3.500   7.171   0.972 -1.5417  0.0033  0.4640
   43MOL   H42345867   3.419   7.321   1.024 -0.0189  2.1305 -1.4678
   43MOL   H42445868   3.844   7.498   0.906 -0.7444  0.2775 -0.0250
   43MOL   H42545869   4.027   7.438   0.758 -3.6299  3.4755 -0.4915
   43MOL   H42645870   3.882   7.033   0.739 -0.9672  1.5049 -3.6829
   43MOL   H42745871   3.686   7.092   0.853 -0.0095 -0.0810 -1.5018
   43MOL   H42845872   3.629   7.577   1.146 -0.5704  0.6371  0.6574
   43MOL   H42945873   3.547   7.823   1.078  0.1745  1.3835 -1.3871
   43MOL   H43045874   3.519   8.095   1.001  0.0190 -1.1321 -1.9549
   43MOL   H43145875   3.340   8.188   1.160 -0.7315 -0.5385  2.8909
   43MOL   H43245876   2.923   0.080   1.301  3.2231 -0.4725 -0.5569
   43MOL   H43345877   2.829   0.273   1.160  0.8354  1.2222 -1.3769
   43MOL   C43445878   4.189   7.157   0.753  0.0712 -0.5972 -0.0306
   43MOL   C43545879   4.195   7.037   0.825  0.3867 -0.6978  0.5844
   43MOL   C43645880   4.304   6.999   0.906  0.5067 -0.2938 -0.6458
   43MOL   C43745881   4.415   7.090   0.918 -0.0378 -0.3110 -0.2008
   43MOL   S43845882   4.558   7.065   1.018  0.1461  0.1421  0.3905
   43MOL   O43945883   4.513   7.022   1.150 -0.0255  0.0646 -0.1732
   43MOL   O44045884   4.639   7.190   1.004  0.1844 -0.1057 -0.1345
   43MOL   C44145885   4.642   6.926   0.942 -0.3650  0.1475 -0.3251
   43MOL   C44245886   4.749   6.953   0.854  0.0339  0.1815 -0.3292
   43MOL   C44345887   4.801   6.847   0.777  0.2197  0.2714 -1.0019
   43MOL   C44445888   4.776   6.711   0.809 -0.6714  0.3739 -0.4904
   43MOL   O44545889   4.835   6.615   0.735 -1.1571 -0.4144 -0.1700
   43MOL   C44645890   4.960   6.567   0.775  0.0842 -0.5647 -0.0291
   43MOL   C44745891   5.074   6.645   0.742  0.3743 -0.0516 -0.0841
   43MOL   C44845892   5.195   6.597   0.783  0.6843  0.4863  0.3114
   43MOL   C44945893   5.208   6.473   0.848  0.2212 -0.3461  0.0008
   43MOL   C45045894   5.353   6.436   0.900  0.0155 -0.8369 -1.1658
   43MOL   C45145895   5.464   6.526   0.851  0.3231  0.9089 -0.3096
   43MOL   C45245896   5.344   6.429   1.062 -0.1554 -0.0370 -0.0350
   43MOL   C45345897   5.385   6.291   0.846 -0.2477  0.8644  0.1836
   43MOL   C45445898   5.318   6.237   0.732  0.3829  0.1454  0.0414
   43MOL   C45545899   5.354   6.114   0.681 -0.4328  0.7357 -0.2671
   43MOL   C45645900   5.441   6.031   0.750  0.3122  0.0262  0.7497
   43MOL   O45745901   5.476   5.912   0.692 -0.3221 -0.3159  0.1079
   43MOL   C45845902   5.510   6.078   0.861 -0.6262 -0.0986 -0.0062
   43MOL   C45945903   5.492   6.212   0.905 -0.2415 -0.6185  0.1402
   43MOL   C46045904   5.096   6.390   0.881 -0.0303  0.2454  0.1274
   43MOL   C46145905   4.975   6.443   0.838  0.9166 -0.5060 -1.3595
   43MOL   C46245906   4.683   6.684   0.917 -0.1259 -0.5349  0.6501
   43MOL   C46345907   4.607   6.791   0.974  0.4129  0.5293 -0.0694
   43MOL   C46445908   4.414   7.201   0.831 -0.3464 -0.1077  1.0885
   43MOL   C46545909   4.303   7.236   0.756  0.3714  0.3579  0.4524
   43MOL   H46645910   4.108   6.973   0.829  0.1754 -0.4990 -0.7438
   43MOL   H46745911   4.297   6.914   0.971 -1.4670  3.1207  3.8902
   43MOL   H46845912   4.779   7.053   0.827  0.1669  0.8374  2.0565
   43MOL   H46945913   4.879   6.876   0.707  0.5023  2.8344  0.2856
   43MOL   H47045914   5.071   6.742   0.695  1.4615  1.0210  2.0167
   43MOL   H47145915   5.280   6.661   0.763  1.2745 -1.1532 -2.6799
   43MOL   H47245916   5.455   6.625   0.896 -0.5931 -0.0420  1.6324
   43MOL   H47345917   5.493   6.534   0.746  0.2769  0.2177 -0.3759
   43MOL   H47445918   5.552   6.480   0.896 -1.6365 -1.9503  0.7339
   43MOL   H47545919   5.290   6.510   1.111  0.8365  0.1256  0.8047
   43MOL   H47645920   5.281   6.349   1.102 -0.9006  0.5771  0.0278
   43MOL   H47745921   5.440   6.416   1.111 -0.7221 -1.5829  0.7231
   43MOL   H47845922   5.242   6.291   0.679 -1.4944 -3.3121 -0.9809
   43MOL   H47945923   5.297   6.079   0.597  0.6674 -0.1064 -0.6727
   43MOL   H48045924   5.579   6.012   0.912 -0.7229  0.4312  0.8158
   43MOL   H48145925   5.539   6.264   0.987 -0.6081 -3.4378  2.2009
   43MOL   H48245926   5.110   6.304   0.944 -1.0188  1.0682  1.5080
   43MOL   H48345927   4.878   6.395   0.846  0.5787  0.2380 -0.9292
   43MOL   H48445928   4.663   6.583   0.950 -2.0591 -0.3645  0.0457
   43MOL   H48545929   4.537   6.760   1.049 -1.3756 -1.6138 -2.5400
   43MOL   H48645930   4.503   7.261   0.828 -2.1571  2.6987  1.3515
   43MOL   H48745931   4.316   7.321   0.690  2.9601 -1.2268 -1.1444
   43MOL   C48845932   5.434   5.801   0.758 -0.0762  0.3155 -0.4465
   43MOL   C48945933   5.523   5.739   0.845 -0.1277 -0.0653  0.2801
   43MOL   C49045934   5.492   5.620   0.908  0.3231  0.0961 -0.7025
   43MOL   C49145935   5.372   5.555   0.871  0.3403 -0.3173  0.1479
   43MOL   S49245936   5.353   5.377   0.909  0.0009  0.0075 -0.0186
   43MOL   O49345937   5.423   5.350   1.035 -0.3705  0.2338  0.3872
   43MOL   O49445938   5.378   5.300   0.788 -0.4661 -0.0237  0.2585
   43MOL   C49545939   5.180   5.367   0.939  0.2546  0.0089 -0.2188
   43MOL   C49645940   5.117   5.452   1.027 -0.4786  0.1737 -0.3655
   43MOL   C49745941   4.977   5.443   1.054 -0.8055 -0.2568  0.2847
   43MOL   C49845942   4.897   5.351   0.983 -0.2813 -0.1383 -0.4913
   43MOL   O49945943   4.763   5.348   1.010  0.3590  0.4343  0.5191
   43MOL   C50045944   4.715   5.253   1.103 -0.4896 -0.5348  0.1336
   43MOL   C50145945   4.580   5.217   1.095 -0.2150 -0.6975 -0.6615
   43MOL   C50245946   4.515   5.134   1.192  0.3409  0.1752 -0.8179
   43MOL   C50345947   4.589   5.081   1.304  0.5528  0.3111 -0.6026
   43MOL   C50445948   4.522   4.995   1.412 -0.0156  0.6290 -0.4904
   43MOL   C50545949   4.502   4.856   1.345 -0.6434  0.5763  0.4483
   43MOL   C50645950   4.612   4.985   1.540  0.3836  0.5272 -0.6715
   43MOL   C50745951   4.385   5.056   1.452 -0.4965  0.3604 -0.1444
   43MOL   C50845952   4.374   5.197   1.472  0.4321 -0.2347 -0.0663
   43MOL   C50945953   4.256   5.262   1.514 -0.7875  0.2223  0.0406
   43MOL   C51045954   4.145   5.185   1.537 -0.0247 -0.7627 -0.9052
   43MOL   O51145955   4.030   5.235   1.582 -0.2644 -0.3111 -0.2969
   43MOL   C51245956   4.149   5.048   1.516 -0.3578 -0.1725 -0.0594
   43MOL   C51345957   4.268   4.981   1.476  0.4632  0.2441  0.5997
   43MOL   C51445958   4.722   5.123   1.312 -0.1942 -0.0745 -0.0506
   43MOL   C51545959   4.786   5.211   1.216  0.6948  0.1381  0.7782
   43MOL   C51645960   4.969   5.258   0.903 -0.0850 -0.3853  0.1276
   43MOL   C51745961   5.106   5.269   0.872 -0.1758  0.3913  0.0673
   43MOL   C51845962   5.278   5.625   0.801  0.2192 -0.4960 -0.0667
   43MOL   C51945963   5.305   5.748   0.742 -0.3521  0.5427 -0.0915
   43MOL   H52045964   5.625   5.773   0.857 -0.5729  1.2759  0.3270
   43MOL   H52145965   5.575   5.572   0.958  0.7964  0.3687 -1.2167
   43MOL   H52245966   5.167   5.532   1.080 -1.6508  1.0259 -0.5401
   43MOL   H52345967   4.941   5.518   1.123  0.8108 -0.5441  1.4591
   43MOL   H52445968   4.511   5.261   1.024 -0.3418  1.4032  0.7125
   43MOL   H52545969   4.410   5.107   1.188  0.6316 -1.0069 -0.5657
   43MOL   H52645970   4.451   4.791   1.416 -1.3719  2.3946  1.6216
   43MOL   H52745971   4.596   4.809   1.319 -1.9000 -2.6730  1.6026
   43MOL   H52845972   4.454   4.870   1.248  0.3144  0.8190  0.0100
   43MOL   H52945973   4.697   4.919   1.521 -0.8734 -1.5127  0.6865
   43MOL   H53045974   4.648   5.081   1.578 -1.0493  0.3989  1.0604
   43MOL   H53145975   4.553   4.940   1.620 -1.4760  1.8844 -1.2569
   43MOL   H53245976   4.463   5.257   1.460  0.7362 -0.8205 -0.7907
   43MOL   H53345977   4.250   5.368   1.533  0.6203  0.1973  0.6744
   43MOL   H53445978   4.058   5.000   1.547  1.2413 -2.2773  1.5706
   43MOL   H53545979   4.260   4.873   1.470  0.3664  0.3105 -0.5086
   43MOL   H53645980   4.786   5.105   1.397  0.4798 -0.0550 -0.5451
   43MOL   H53745981   4.884   5.252   1.235 -0.0543  1.5292  1.7492
   43MOL   H53845982   4.932   5.167   0.859  2.9758 -2.6418  2.0121
   43MOL   H53945983   5.155   5.204   0.801  2.0688  1.9447  0.1381
   43MOL   H54045984   5.189   5.571   0.772 -0.0281 -0.3553  0.4228
   43MOL   H54145985   5.230   5.800   0.683  0.3706  0.7448 -0.8418
   43MOL   C54245986   4.019   5.293   1.702 -0.4355  0.5140 -0.3802
   43MOL   C54345987   4.073   5.238   1.821  0.0644  0.0792  0.5244
   43MOL   C54445988   4.051   5.302   1.944 -0.4752  0.1892 -0.2472
   43MOL   C54545989   3.974   5.423   1.948  0.0444  0.1719  0.1954
   43MOL   S54645990   3.909   5.491   2.101  0.0793 -0.1104  0.0740
   43MOL   O54745991   3.923   5.380   2.202 -0.5111  0.6976 -0.3487
   43MOL   O54845992   3.780   5.547   2.064  0.3543 -0.4407 -0.0344
   43MOL   C54945993   4.023   5.612   2.160 -0.4458  0.4009  0.2238
   43MOL   C55045994   3.983   5.742   2.202 -0.2582 -0.1863  0.4273
   43MOL   C55145995   4.076   5.824   2.270 -0.4008 -0.6825 -0.5530
   43MOL   C55245996   4.206   5.781   2.295  1.3820  0.0407  0.0459
   43MOL   O55345997   4.287   5.866   2.372  0.4552 -0.4779 -0.3321
   43MOL   C55445998   4.393   5.928   2.315  0.2130  0.2135  0.8734
   43MOL   C55545999   4.406   5.978   2.183  0.4646  0.6361  0.2957
   43MOL   C55646000   4.533   6.033   2.149  0.1198 -0.1344  0.0141
   43MOL   C55746001   4.644   6.048   2.241  0.4167  0.8262 -0.2957
   43MOL   C55846002   4.778   6.095   2.180 -0.7920  0.0371 -0.6516
   43MOL   C55946003   4.844   5.969   2.119  0.2039 -0.8278  0.2046
   43MOL   C56046004   4.766   6.203   2.066  0.1421 -0.9714  0.8093
   43MOL   C56146005   4.870   6.159   2.293 -0.5924 -0.2646  0.0800
   43MOL   C56246006   4.994   6.106   2.326 -0.7560 -0.4751 -0.2870
   43MOL   C56346007   5.083   6.165   2.421 -0.6446  0.2590  0.5182
   43MOL   C56446008   5.045   6.292   2.482 -0.3900 -0.2355 -0.1482
   43MOL   O56546009   5.127   6.349   2.572 -0.1900  0.3749 -0.6316
   43MOL   C56646010   4.918   6.349   2.449 -0.1492 -0.2462  0.3854
   43MOL   C56746011   4.835   6.281   2.359  0.4267  0.1776 -0.5424
   43MOL   C56846012   4.621   6.000   2.372 -0.3888  0.9425 -0.5934
   43MOL   C56946013   4.496   5.943   2.402 -0.1549 -0.5130 -0.5174
   43MOL   C57046014   4.250   5.657   2.256  0.2782  0.4690 -0.0908
   43MOL   C57146015   4.158   5.575   2.181 -0.1852 -0.0931  0.5149
   43MOL   C57246016   3.924   5.482   1.830 -0.4461  0.3052  0.2609
   43MOL   C57346017   3.959   5.422   1.706  0.4829 -0.6753 -0.1540
   43MOL   H57446018   4.133   5.149   1.813 -0.5955 -0.4071  0.9174
   43MOL   H57546019   4.065   5.246   2.035 -0.1476  0.9411  0.1733
   43MOL   H57646020   3.880   5.773   2.196 -0.2397 -0.3862 -0.9939
   43MOL   H57746021   4.045   5.921   2.307 -0.2849 -0.6364 -0.5776
   43MOL   H57846022   4.323   5.970   2.115  0.2248  0.9660  0.5473
   43MOL   H57946023   4.542   6.071   2.048  0.6002  0.3544  0.2361
   43MOL   H58046024   4.782   5.924   2.040 -0.1054  1.0902 -0.6746
   43MOL   H58146025   4.861   5.883   2.184 -1.6184 -0.2031  1.5633
   43MOL   H58246026   4.935   5.999   2.067  0.2626 -0.4671  0.5178
   43MOL   H58346027   4.863   6.249   2.048 -0.5082 -0.0189 -0.3177
   43MOL   H58446028   4.727   6.154   1.977  2.5232  0.7827 -1.3016
   43MOL   H58546029   4.704   6.291   2.085  0.5425 -0.8752  1.6990
   43MOL   H58646030   5.034   6.021   2.274  4.8039  1.4647  0.4937
   43MOL   H58746031   5.173   6.113   2.451 -1.2557 -0.9552  0.2622
   43MOL   H58846032   4.875   6.438   2.491 -1.2209 -1.5484  2.1476
   43MOL   H58946033   4.732   6.313   2.354  0.7676  1.4525  0.4460
   43MOL   H59046034   4.698   6.006   2.447  0.4508 -1.7728 -1.1867
   43MOL   H59146035   4.472   5.909   2.502  1.3990 -0.4614 -0.1104
   43MOL   H59246036   4.349   5.621   2.279  0.2166  0.6551  0.4681
   43MOL   H59346037   4.192   5.476   2.151 -0.8248 -0.0495 -0.3627
   43MOL   H59446038   3.866   5.572   1.839 -0.8319  0.0514  0.3337
   43MOL   H59546039   3.928   5.476   1.618  1.2514 -0.2329 -0.1640
   43MOL   C59646040   5.109   6.477   2.614 -0.1962 -0.0091  0.3864
   43MOL   C59746041   5.144   6.582   2.528  0.8359  0.1399 -0.0555
   43MOL   C59846042   5.123   6.720   2.561  0.6395  0.0331  0.2037
   43MOL   C59946043   5.052   6.744   2.674  0.5313  0.4687 -0.1600
   43MOL   S60046044   5.003   6.913   2.692 -0.2207  0.1218  0.2011
   43MOL   O60146045   5.086   6.998   2.603  0.5233 -0.2591  0.3652
   43MOL   O60246046   5.006   6.934   2.839  0.4953  0.1861  0.3901
   43MOL   C60346047   4.834   6.927   2.633 -0.1367 -0.1858  0.5883
   43MOL   C60446048   4.726   6.843   2.682  0.6374 -0.5789  0.0526
   43MOL   C60546049   4.596   6.858   2.632 -0.2048  0.3240  0.2810
   43MOL   C60646050   4.569   6.958   2.542 -1.0093  0.2002  0.2191
   43MOL   O60746051   4.439   6.980   2.508  0.3509  0.4084 -0.2075
   43MOL   C60846052   4.384   7.101   2.546 -0.2735 -0.1996 -0.5892
   43MOL   C60946053   4.278   7.156   2.472 -0.0450  0.2850 -0.1263
   43MOL   C61046054   4.219   7.277   2.509  0.3781  0.8761  0.2215
   43MOL   C61146055   4.271   7.351   2.615 -0.1941  0.3383  0.6412
   43MOL   C61246056   4.229   7.498   2.646 -0.6818 -0.3727 -0.5297
   43MOL   C61346057   4.328   7.590   2.591 -0.1277 -0.6811  0.1170
   43MOL   C61446058   4.093   7.536   2.579  0.4425 -0.0798 -0.1507
   43MOL   C61546059   4.211   7.509   2.796  0.3492 -0.5573 -0.2215
   43MOL   C61646060   4.284   7.597   2.880 -0.1145 -0.3118 -0.0055
   43MOL   C61746061   4.263   7.603   3.019  0.5595  0.5486  0.5976
   43MOL   C61846062   4.165   7.521   3.080 -0.1301  0.5505  0.1659
   43MOL   O61946063   4.150   7.525   3.216 -0.6866  0.6905  0.7581
   43MOL   C62046064   4.102   7.429   2.998  0.2596  0.3916  0.7296
   43MOL   C62146065   4.120   7.418   2.860 -0.5425  0.0125 -0.8947
   43MOL   C62246066   4.378   7.303   2.686 -0.3929 -0.6779 -0.4078
   43MOL   C62346067   4.435   7.177   2.655 -0.1337 -0.0009 -0.3919
   43MOL   C62446068   4.678   7.034   2.481  0.1940  0.0557 -0.8019
   43MOL   C62546069   4.804   7.024   2.530 -0.2401  0.3445 -0.3984
   43MOL   C62646070   5.013   6.641   2.763  0.5338 -0.0205 -0.2801
   43MOL   C62746071   5.035   6.505   2.724  0.6579 -0.5178  0.1498
   43MOL   H62846072   5.186   6.561   2.431  3.2960 -1.3979  1.3114
   43MOL   H62946073   5.141   6.789   2.480 -1.7483  2.2372  1.5064
   43MOL   H63046074   4.742   6.775   2.764  0.3629 -0.7269 -0.0205
   43MOL   H63146075   4.507   6.808   2.669  1.1144 -1.0151  1.7090
   43MOL   H63246076   4.237   7.103   2.387 -2.1153  1.0043  0.3788
   43MOL   H63346077   4.142   7.319   2.446 -1.4475 -1.3220  0.8905
   43MOL   H63446078   4.312   7.691   2.630 -1.0508 -1.0902  0.8015
   43MOL   H63546079   4.325   7.595   2.482  1.4568  3.6609  0.1580
   43MOL   H63646080   4.432   7.567   2.616  0.2867 -0.8870 -1.7165
   43MOL   H63746081   4.049   7.628   2.618  0.0620 -0.5563  0.5717
   43MOL   H63846082   4.084   7.545   2.471 -2.9465 -0.7390  0.0165
   43MOL   H63946083   4.014   7.461   2.591 -0.5234  0.9061 -0.2986
   43MOL   H64046084   4.348   7.670   2.833  3.2503 -1.7342  2.1632
   43MOL   H64146085   4.321   7.672   3.079  1.4861 -1.0783  1.6352
   43MOL   H64246086   4.040   7.353   3.042 -1.6113  2.0656  1.0865
   43MOL   H64346087   4.079   7.339   2.798  0.0543  0.1243 -1.4434
   43MOL   H64446088   4.429   7.356   2.765 -0.2126 -1.1997 -0.1739
   43MOL   H64546089   4.518   7.144   2.717  1.0894  0.0470 -1.9803
   43MOL   H64646090   4.665   7.109   2.405  1.8934  1.0255 -0.1435
   43MOL   H64746091   4.883   7.078   2.480  0.7520 -2.5467 -2.0868
   43MOL   H64846092   4.954   6.666   2.850 -1.4562 -1.1539 -1.2832
   43MOL   H64946093   4.999   6.428   2.790  2.5687  1.6623  3.9053
   43MOL   C65046094   4.182   7.641   3.283 -0.1869 -0.1422  0.3700
   43MOL   C65146095   4.113   7.763   3.283  0.6225 -0.1270  0.0521
   43MOL   C65246096   4.172   7.875   3.350 -0.2075 -0.6216  0.0356
   43MOL   C65346097   4.284   7.851   3.439  0.4054 -0.6182  0.8354
   43MOL   S65446098   4.346   7.982   3.543  0.4830  0.0234  0.1809
   43MOL   O65546099   4.448   7.922   3.633  0.1778 -0.1913 -0.4954
   43MOL   O65646100   4.231   8.063   3.593  0.2488 -0.5390  0.3235
   43MOL   C65746101   4.437   8.089   3.429  0.0109 -0.4302 -0.0579
   43MOL   C65846102   4.390   8.212   3.394  0.1877 -0.1048  0.0932
   43MOL   C65946103   4.468   0.037   3.307  0.1045  0.0514  0.0823
   43MOL   C66046104   4.594   8.241   3.264  0.0514  0.4432  0.7489
   43MOL   O66146105   4.671   0.070   3.188 -0.1801 -0.0729  0.2475
   43MOL   C66246106   4.613   0.134   3.075  0.0136 -0.0597 -0.2867
   43MOL   C66346107   4.690   0.246   3.025  0.1972  0.0801  0.0458
   43MOL   C66446108   4.639   0.313   2.911  0.3830 -0.3318  0.5135
   43MOL   C66546109   4.522   0.280   2.837 -0.0583 -0.1016 -0.8485
   43MOL   C66646110   4.476   0.357   2.710 -0.4994 -0.3623 -0.3900
   43MOL   C66746111   4.336   0.409   2.757 -0.6183 -0.5065  0.1602
   43MOL   C66846112   4.562   0.481   2.668  0.0927  0.3041  0.0541
   43MOL   C66946113   4.462   0.265   2.591  0.3376  0.2612 -0.3179
   43MOL   C67046114   4.361   0.287   2.494 -0.0734  0.4708 -0.2148
   43MOL   C67146115   4.336   0.197   2.394 -0.3228  0.1179 -0.8477
   43MOL   C67246116   4.416   0.084   2.382  0.4105 -0.8654 -0.2408
   43MOL   O67346117   4.379   8.241   2.289 -0.4871 -0.2061  0.6928
   43MOL   C67446118   4.525   0.068   2.466 -0.7574  0.1307  0.5061
   43MOL   C67546119   4.548   0.157   2.572 -1.0840 -0.2221  0.2987
   43MOL   C67646120   4.460   0.160   2.885 -0.0603 -0.5239  0.3586
   43MOL   C67746121   4.498   0.090   3.003 -0.1267  0.8011  0.9801
   43MOL   C67846122   4.641   8.118   3.309 -0.1723 -0.5606  0.4330
   43MOL   C67946123   4.561   8.040   3.390 -0.3074 -0.1895 -0.0538
   43MOL   C68046124   4.351   7.732   3.446 -0.2455  0.4345  0.8787
   43MOL   C68146125   4.300   7.628   3.365 -0.7699  0.4538  0.4257
   43MOL   H68246126   4.026   7.785   3.223 -0.0438 -0.8921  0.7376
   43MOL   H68346127   4.129   7.974   3.355  0.9185 -0.0593 -0.9974
   43MOL   H68446128   4.293   8.253   3.418 -0.6928 -0.3232 -2.8248
   43MOL   H68546129   4.428   0.131   3.271 -1.8587 -1.0816 -0.7776
   43MOL   H68646130   4.777   0.285   3.077  1.6806  1.2418 -3.1912
   43MOL   H68746131   4.689   0.402   2.878  1.0204 -0.6498  0.6062
   43MOL   H68846132   4.336   0.472   2.847  0.2976 -0.6774  0.2873
   43MOL   H68946133   4.277   0.322   2.785 -1.7773  0.1503 -0.1723
   43MOL   H69046134   4.261   0.446   2.688  0.8479  2.5085  0.0860
   43MOL   H69146135   4.668   0.461   2.659 -0.1241 -2.5883  2.8164
   43MOL   H69246136   4.522   0.520   2.575 -0.5904 -2.6009 -0.9058
   43MOL   H69346137   4.559   0.563   2.740  2.1915  1.5154 -1.1873
   43MOL   H69446138   4.287   0.364   2.508 -1.0191 -0.5907  0.7870
   43MOL   H69546139   4.251   0.220   2.331 -0.2409  1.9339 -0.3196
   43MOL   H69646140   4.591   8.237   2.446  1.9432  2.3645 -0.2802
   43MOL   H69746141   4.627   0.142   2.645  0.4230  0.7603 -1.1036
   43MOL   H69846142   4.371   0.136   2.829 -0.4129  2.1492 -0.3176
   43MOL   H69946143   4.443   8.253   3.025  1.4133 -0.1571  0.9373
   43MOL   H70046144   4.738   8.083   3.279 -0.2369  0.2172 -0.7057
   43MOL   H70146145   4.586   7.940   3.424  0.8636 -0.0968 -0.6045
   43MOL   H70246146   4.440   7.717   3.505 -0.2191 -1.7776  0.3010
   43MOL   H70346147   4.372   7.547   3.368  1.7643  2.2186 -5.6165
   43MOL   C70446148   4.430   8.113   2.287 -0.1987 -0.4836 -0.2028
   43MOL   C70546149   4.523   8.067   2.189  0.5198 -0.2679  1.1847
   43MOL   C70646150   4.558   7.933   2.183 -0.5952 -0.1390 -0.0183
   43MOL   C70746151   4.519   7.847   2.286 -0.4827 -0.3215 -0.2826
   43MOL   S70846152   4.594   7.690   2.286 -0.0086  0.1187  0.6068
   43MOL   O70946153   4.637   7.674   2.424  0.1987  0.1903  0.7770
   43MOL   O71046154   4.702   7.698   2.185  0.0282 -0.0673  0.2605
   43MOL   C71146155   4.476   7.567   2.220 -0.1251  0.3224  0.6563
   43MOL   C71246156   4.378   7.612   2.126  0.5971 -0.5565 -0.8082
   43MOL   C71346157   4.300   7.512   2.062  0.0305 -0.4858  0.3481
   43MOL   C71446158   4.304   7.372   2.094 -0.4769  0.7109  0.0027
   43MOL   O71546159   4.236   7.283   2.011 -0.1636 -0.3406 -0.3437
   43MOL   C71646160   4.145   7.200   2.071 -0.7163 -0.6163  0.2734
   43MOL   C71746161   4.049   7.241   2.166  0.4982  0.0563  0.6013
   43MOL   C71846162   3.966   7.150   2.229 -0.1719  0.0800  0.4811
   43MOL   C71946163   3.977   7.006   2.207 -1.3396  1.0334  0.1599
   43MOL   C72046164   3.885   6.905   2.275 -0.5627  0.3579  0.5054
   43MOL   C72146165   3.754   6.970   2.328 -0.0694  0.0555 -0.0675
   43MOL   C72246166   3.836   6.795   2.170  0.2232 -0.0970 -0.4702
   43MOL   C72346167   3.949   6.825   2.397 -0.2064 -0.0636 -0.3156
   43MOL   C72446168   3.869   6.741   2.483  0.4913  0.3685  1.1083
   43MOL   C72546169   3.921   6.663   2.587 -0.1975 -0.5756  0.2919
   43MOL   C72646170   4.052   6.673   2.619 -0.2460  0.0731 -0.5982
   43MOL   O72746171   4.085   6.617   2.744 -0.0109  0.4319  0.2424
   43MOL   C72846172   4.141   6.753   2.540  0.3463  0.3630  0.0349
   43MOL   C72946173   4.088   6.829   2.432 -0.3635 -0.4096  0.5425
   43MOL   C73046174   4.069   6.970   2.108 -0.4049 -0.0295 -0.4724
   43MOL   C73146175   4.152   7.065   2.039  0.0493  0.7399  0.1161
   43MOL   C73246176   4.389   7.329   2.200  0.9067 -0.1110  0.0909
   43MOL   C73346177   4.475   7.426   2.252 -0.2357  0.2104 -0.7909
   43MOL   C73446178   4.429   7.892   2.385  0.2853 -0.1305  0.1285
   43MOL   C73546179   4.381   8.021   2.379  0.5021  0.7403 -0.8471
   43MOL   H73646180   4.548   8.151   2.126  0.9295  0.5526  2.4432
   43MOL   H73746181   4.629   7.905   2.106 -2.3003  1.5621 -2.3145
   43MOL   H73846182   4.367   7.708   2.079 -2.4979 -1.1240 -1.3105
   43MOL   H73946183   4.233   7.539   1.982  1.3379 -1.3063 -1.0398
   43MOL   H74046184   4.038   7.346   2.188  0.7902  0.0436  0.8121
   43MOL   H74146185   3.893   7.194   2.296  0.3878  3.0506 -0.8076
   43MOL   H74246186   3.727   7.041   2.249  0.0912 -0.6797 -0.7810
   43MOL   H74346187   3.778   7.024   2.420  1.4707  1.4006 -1.2358
   43MOL   H74446188   3.677   6.895   2.348  1.2491 -1.5558 -0.9686
   43MOL   H74546189   3.795   6.847   2.084  2.7599  0.4042 -1.4326
   43MOL   H74646190   3.917   6.733   2.131 -0.8270 -0.2591 -2.4743
   43MOL   H74746191   3.761   6.725   2.206 -1.2412  0.9894 -1.3701
   43MOL   H74846192   3.763   6.735   2.464  0.6068  0.0720  0.5511
   43MOL   H74946193   3.852   6.621   2.658  0.1032  0.2223  1.0647
   43MOL   H75046194   4.247   6.761   2.558  0.5142 -0.1361 -0.7398
   43MOL   H75146195   4.148   6.901   2.379  0.4265  1.2682  3.5715
   43MOL   H75246196   4.101   6.867   2.103  1.7593  0.6198 -0.9117
   43MOL   H75346197   4.226   7.036   1.966  1.8317 -2.6128  3.1070
   43MOL   H75446198   4.392   7.229   2.242  0.3950  0.3204  1.1738
   43MOL   H75546199   4.550   7.390   2.320 -0.3319  0.5119 -0.5256
   43MOL   H75646200   4.411   7.813   2.456 -0.6270 -0.5388 -0.5494
   43MOL   H75746201   4.309   8.040   2.457  0.4717 -1.3675 -0.3291
   43MOL   C75846202   4.212   6.561   2.756  0.6896 -0.7155 -0.4483
   43MOL   C75946203   4.302   6.638   2.833 -0.0692 -0.4220 -0.2963
   43MOL   C76046204   4.432   6.602   2.844  0.0071 -0.1323  0.5781
   43MOL   C76146205   4.471   6.481   2.777 -0.3656 -0.2853  0.1315
   43MOL   S76246206   4.651   6.441   2.758  0.0137  0.0817 -0.4274
   43MOL   O76346207   4.726   6.518   2.857 -0.3417  0.5251  0.1498
   43MOL   O76446208   4.681   6.463   2.618  0.0514  0.3282 -0.1671
   43MOL   C76546209   4.678   6.274   2.799  0.7478  0.7569 -0.5668
   43MOL   C76646210   4.674   6.230   2.927  0.1937 -0.0095 -0.8086
   43MOL   C76746211   4.694   6.095   2.957 -0.3069 -0.3244  0.0443
   43MOL   C76846212   4.700   6.005   2.853  0.6289  0.4802 -0.1446
   43MOL   O76946213   4.690   5.869   2.884  0.2931  0.4468 -0.2550
   43MOL   C77046214   4.610   5.783   2.806 -0.0978 -0.0554 -0.5362
   43MOL   C77146215   4.643   5.643   2.806  0.1167 -0.6048 -0.6256
   43MOL   C77246216   4.554   5.549   2.752 -0.6898 -0.6411  0.3779
   43MOL   C77346217   4.428   5.588   2.703  0.4821 -0.0213  0.0418
   43MOL   C77446218   4.334   5.486   2.638 -0.3329  0.1585  0.0558
   43MOL   C77546219   4.194   5.540   2.596 -0.0502 -0.3555 -0.0110
   43MOL   C77646220   4.401   5.437   2.507  0.7497 -0.0694  0.5260
   43MOL   C77746221   4.302   5.374   2.730  0.3063  0.0322 -0.3255
   43MOL   C77846222   4.265   5.399   2.863 -0.1415 -0.0088 -0.5732
   43MOL   C77946223   4.215   5.301   2.947  0.4585 -0.1402 -0.2010
   43MOL   C78046224   4.204   5.171   2.906  0.4411 -0.0165  0.6904
   43MOL   O78146225   4.154   5.090   3.002  0.3433 -0.4630 -0.2263
   43MOL   C78246226   4.238   5.140   2.767 -0.2116  0.3427  0.2587
   43MOL   C78346227   4.302   5.237   2.690  0.1307 -0.4871 -0.7419
   43MOL   C78446228   4.392   5.726   2.711  0.0222  0.2904  0.0247
   43MOL   C78546229   4.486   5.824   2.757 -0.0338 -0.7791  0.1800
   43MOL   C78646230   4.689   6.047   2.715  0.3067 -0.3618 -0.7411
   43MOL   C78746231   4.682   6.182   2.691  0.7166  0.5380  0.2597
   43MOL   C78846232   4.377   6.398   2.711 -0.4601 -0.8691 -0.2504
   43MOL   C78946233   4.242   6.445   2.696  0.1875  0.5906 -0.4824
   43MOL   H79046234   4.258   6.731   2.868 -1.7403 -1.2499 -0.1067
   43MOL   H79146235   4.500   6.665   2.898 -0.2351  1.7110 -1.1839
   43MOL   H79246236   4.667   6.300   3.010 -2.9251 -1.7357  0.4539
   43MOL   H79346237   4.696   6.059   3.059 -1.0791  1.5196  0.7372
   43MOL   H79446238   4.734   5.615   2.858  1.8532  3.5853 -1.1592
   43MOL   H79546239   4.573   5.443   2.752  0.2565 -0.4835 -1.2503
   43MOL   H79646240   4.130   5.472   2.541 -0.9976  0.5272 -0.0179
   43MOL   H79746241   4.198   5.636   2.545 -1.2252  0.8320  2.0423
   43MOL   H79846242   4.142   5.571   2.687  0.5800 -0.8208  0.5118
   43MOL   H79946243   4.435   5.521   2.447 -1.4941  1.4038  1.2532
   43MOL   H80046244   4.487   5.374   2.531  0.1187 -1.8095 -1.6698
   43MOL   H80146245   4.340   5.381   2.437  0.8610  0.4059  0.0480
   43MOL   H80246246   4.268   5.500   2.901  1.2190  0.8960 -2.9701
   43MOL   H80346247   4.171   5.333   3.041 -0.3400 -1.6523 -0.0471
   43MOL   H80446248   4.222   5.039   2.734 -1.1309 -0.2346  2.3497
   43MOL   H80546249   4.346   5.209   2.596 -1.9229 -0.9997 -1.5669
   43MOL   H80646250   4.291   5.750   2.683 -0.3931 -1.0171  0.4142
   43MOL   H80746251   4.455   5.927   2.749 -0.9012 -1.1304 -1.0964
   43MOL   H80846252   4.683   5.971   2.638  0.1756 -0.9704 -0.1344
   43MOL   H80946253   4.675   6.210   2.586  2.6631  2.4017  0.5851
   43MOL   H81046254   4.403   6.307   2.658 -1.7749 -2.6630  2.0656
   43MOL   H81146255   4.175   6.397   2.625 -1.0747  1.8449 -0.1594
   43MOL   C81246256   4.164   4.957   2.978  0.2302 -0.2721  0.2220
   43MOL   C81346257   4.291   4.890   2.954  0.3071 -0.2259  0.1612
   43MOL   C81446258   4.284   4.752   2.921  0.5498  0.6858 -0.2962
   43MOL   C81546259   4.157   4.685   2.906 -1.0251  0.4559  0.1351
   43MOL   S81646260   4.165   4.509   2.863  0.2908 -0.0390  0.0393
   43MOL   O81746261   4.291   4.489   2.789  0.5180 -0.0174  0.3501
   43MOL   O81846262   4.031   4.467   2.811 -0.3536  0.0579  0.2922
   43MOL   C81946263   4.178   4.424   3.018 -0.4495  0.0161  0.7745
   43MOL   C82046264   4.077   4.327   3.058  0.2188 -0.1832  0.3109
   43MOL   C82146265   4.094   4.265   3.190 -0.2184  0.5878 -0.3003
   43MOL   C82246266   4.197   4.297   3.283  0.3571 -0.3340  0.6381
   43MOL   O82346267   4.200   4.249   3.409 -0.5656 -0.6511  0.4420
   43MOL   C82446268   4.111   4.157   3.455  0.3111  0.1606  0.5312
   43MOL   C82546269   4.108   4.022   3.417  0.0609 -0.2184  0.2692
   43MOL   C82646270   3.998   3.942   3.462  0.1481  0.7053 -0.0183
   43MOL   C82746271   3.895   3.988   3.545 -0.6263  0.0635  0.0471
   43MOL   C82846272   3.778   3.896   3.592  0.5663  0.4450 -0.3376
   43MOL   C82946273   3.835   3.801   3.689 -0.2665  0.4904  0.0704
   43MOL   C83046274   3.666   3.969   3.676  0.9041  0.2193 -0.4859
   43MOL   C83146275   3.710   3.842   3.465  0.2036 -0.3707  0.6683
   43MOL   C83246276   3.667   3.936   3.371 -0.4203  0.1870  0.4103
   43MOL   C83346277   3.592   3.900   3.256  0.5764  0.8294 -0.1983
   43MOL   C83446278   3.569   3.757   3.239  0.4045  0.4064  0.7403
   43MOL   O83546279   3.498   3.714   3.131 -0.2331 -0.5226 -0.6589
   43MOL   C83646280   3.610   3.666   3.335  0.2758  0.3240  0.0168
   43MOL   C83746281   3.673   3.704   3.450 -0.6477 -0.3152 -0.9903
   43MOL   C83846282   3.909   4.123   3.589 -0.3787 -0.8303  0.0757
   43MOL   C83946283   4.008   4.215   3.538  0.5258  0.3772  0.4644
   43MOL   C84046284   4.287   4.394   3.235 -0.6849  0.0794 -0.7997
   43MOL   C84146285   4.276   4.461   3.112 -0.6732  0.5247  0.0611
   43MOL   C84246286   4.038   4.754   2.916 -0.1508 -0.6102  0.3302
   43MOL   C84346287   4.040   4.890   2.958  0.4906 -0.5783 -0.2687
   43MOL   H84446288   4.383   4.945   2.957  1.4943 -2.1888  0.2658
   43MOL   H84546289   4.375   4.699   2.897 -1.1423 -2.8111  0.7320
   43MOL   H84646290   3.999   4.296   2.990  0.5489 -0.2739 -0.0257
   43MOL   H84746291   4.029   4.182   3.213 -0.0841  1.1074  2.0778
   43MOL   H84846292   4.193   3.990   3.359  1.5194  3.7124  0.1381
   43MOL   H84946293   4.011   3.836   3.449  1.0948  0.6584  1.3352
   43MOL   H85046294   3.752   3.743   3.729  0.3674 -1.5219 -1.4311
   43MOL   H85146295   3.884   3.853   3.772 -3.7438  2.9995  0.6346
   43MOL   H85246296   3.893   3.722   3.641 -2.8845 -0.3248 -1.8772
   43MOL   H85346297   3.703   3.998   3.774 -1.0335  0.4374  0.2036
   43MOL   H85446298   3.619   4.054   3.627  1.5802  0.3051 -0.9870
   43MOL   H85546299   3.582   3.900   3.690 -0.5714  1.6774 -1.9500
   43MOL   H85646300   3.698   4.038   3.387  1.0781 -0.4366  1.7052
   43MOL   H85746301   3.561   3.980   3.190 -0.4110  1.9010  1.5279
   43MOL   H85846302   3.563   3.572   3.312 -3.1780  2.1400 -0.7009
   43MOL   H85946303   3.704   3.633   3.525  0.7382  0.7596 -0.5310
   43MOL   H86046304   3.825   4.157   3.648 -1.6875 -1.8470 -1.1647
   43MOL   H86146305   3.996   4.321   3.551 -3.0858  0.4789 -2.6885
   43MOL   H86246306   4.357   4.440   3.304 -0.8415 -0.2934 -0.3857
   43MOL   H86346307   4.342   4.541   3.081  0.0273 -0.5421 -1.2423
   43MOL   H86446308   3.944   4.702   2.903 -1.5850  1.2085  2.8621
   43MOL   H86546309   3.944   4.939   2.970 -0.8397 -2.8573 -1.3938
   43MOL   C86646310   3.358   3.724   3.129 -0.0897  0.2636  0.2063
   43MOL   C86746311   3.287   3.724   3.009 -0.4222  0.6306  0.3337
   43MOL   C86846312   3.149   3.714   3.007  0.0131  0.6049  0.0879
   43MOL   C86946313   3.080   3.724   3.131  0.2347 -0.5006 -0.6062
   43MOL   S87046314   2.897   3.701   3.133 -0.1331  0.1442  0.4772
   43MOL   O87146315   2.855   3.669   3.270 -0.0614  0.3542 -0.4971
   43MOL   O87246316   2.861   3.611   3.023 -0.1671  0.1120 -0.2225
   43MOL   C87346317   2.822   3.866   3.100  0.3649  0.5221 -0.5142
   43MOL   C87446318   2.901   3.984   3.117  0.0619  0.0728  0.1152
   43MOL   C87546319   2.851   4.108   3.080 -0.2451 -0.1337 -0.4438
   43MOL   C87646320   2.721   4.113   3.026 -0.4023  0.3031 -0.1297
   43MOL   O87746321   2.679   4.229   2.977 -0.0741  0.0336 -0.2057
   43MOL   C87846322   2.671   4.337   3.064  0.8041  0.0542  0.2816
   43MOL   C87946323   2.692   4.462   3.011  0.0417 -0.2530  0.2516
   43MOL   C88046324   2.696   4.578   3.093 -0.3837 -0.0267  0.1692
   43MOL   C88146325   2.667   4.562   3.231  0.1812  0.7118 -0.1308
   43MOL   C88246326   2.677   4.682   3.320 -0.9982 -0.2505  0.1747
   43MOL   C88346327   2.772   4.788   3.264  0.5608  0.1905 -0.2145
   43MOL   C88446328   2.531   4.741   3.329 -0.8425  0.5163  0.9929
   43MOL   C88546329   2.739   4.655   3.461 -0.6788 -0.1639  0.6656
   43MOL   C88646330   2.684   4.705   3.583  0.2235  0.0949  0.2899
   43MOL   C88746331   2.742   4.677   3.708 -0.0091  0.4598 -0.7719
   43MOL   C88846332   2.858   4.602   3.711  0.2729 -0.0384 -0.2494
   43MOL   O88946333   2.916   4.566   3.831  1.2512 -0.2086  0.1913
   43MOL   C89046334   2.915   4.550   3.597 -0.2131 -0.3164 -0.3588
   43MOL   C89146335   2.859   4.581   3.470  0.2285  0.2606 -0.9024
   43MOL   C89246336   2.629   4.432   3.284 -0.8388  0.2929 -0.3363
   43MOL   C89346337   2.628   4.323   3.197  0.3939  0.0398 -0.1239
   43MOL   C89446338   2.633   3.997   3.018  0.0940 -0.0480 -0.3507
   43MOL   C89546339   2.684   3.876   3.068  0.9560  0.3116 -0.1882
   43MOL   C89646340   3.147   3.736   3.250 -0.1482 -0.3600  0.2643
   43MOL   C89746341   3.285   3.726   3.249 -0.1049  0.7158 -0.3202
   43MOL   H89846342   3.355   3.708   2.927  1.2843  2.2583  1.3810
   43MOL   H89946343   3.098   3.696   2.914 -1.4417  1.3833  0.7112
   43MOL   H90046344   3.003   3.975   3.151 -0.9289  0.4968  3.4045
   43MOL   H90146345   2.903   4.202   3.087  0.3304 -0.4482 -0.4845
   43MOL   H90246346   2.713   4.483   2.907  0.0334 -1.5256 -0.0166
   43MOL   H90346347   2.716   4.672   3.045  0.5691 -1.7203 -2.8739
   43MOL   H90446348   2.736   4.840   3.175 -1.6005 -1.2280 -0.2185
   43MOL   H90546349   2.878   4.762   3.267  0.1484 -1.3502  2.6116
   43MOL   H90646350   2.762   4.866   3.340 -0.5531 -1.2840  1.1879
   43MOL   H90746351   2.539   4.846   3.356  0.3985  0.6991 -0.0477
   43MOL   H90846352   2.476   4.736   3.235  1.0760 -0.6695 -0.1051
   43MOL   H90946353   2.466   4.686   3.397 -2.1386  0.5241 -0.2196
   43MOL   H91046354   2.595   4.764   3.576 -0.1587 -0.4250  0.7506
   43MOL   H91146355   2.692   4.703   3.800  2.8049 -1.0861  1.3084
   43MOL   H91246356   3.016   4.512   3.605 -0.5555 -0.7797  2.1163
   43MOL   H91346357   2.905   4.543   3.381 -1.2303 -0.8811 -1.1833
   43MOL   H91446358   2.607   4.414   3.388  0.5547  0.7084  0.0397
   43MOL   H91546359   2.601   4.225   3.233  0.8085  1.0940  3.1789
   43MOL   H91646360   2.540   4.013   2.965 -0.0875  0.3467  0.0843
   43MOL   H91746361   2.618   3.792   3.054  2.5594 -0.9693 -0.2805
   43MOL   H91846362   3.092   3.721   3.341 -0.1591 -2.2430 -0.0413
   43MOL   H91946363   3.336   3.724   3.344  0.8751 -0.4123 -0.8624
   43MOL   C92046364   2.981   4.665   3.902 -1.6510 -0.0845 -0.2116
   43MOL   C92146365   3.044   4.621   4.020 -0.0851 -0.4266 -0.2241
   43MOL   C92246366   3.098   4.712   4.115 -0.0539  0.0546 -0.0490
   43MOL   C92346367   3.098   4.843   4.085  0.0706  0.3104 -0.6295
   43MOL   S92446368   3.171   4.961   4.198 -0.0645  0.3373 -0.0301
   43MOL   O92546369   3.103   5.090   4.198  0.6199  0.8504 -0.1968
   43MOL   O92646370   3.316   4.963   4.169  0.3265 -0.0479 -0.8390
   43MOL   C92746371   3.140   4.885   4.353 -0.1077  0.6867  0.0571
   43MOL   C92846372   3.016   4.907   4.421 -0.2242  0.0430  0.4493
   43MOL   C92946373   2.993   4.833   4.541  0.3539 -0.4578  0.4487
   43MOL   C93046374   3.086   4.738   4.579 -0.0821  0.8223 -0.1495
   43MOL   O93146375   3.068   4.687   4.707  0.4912  0.1459 -0.3620
   43MOL   C93246376   3.172   4.692   4.799  0.4788 -0.1075  0.4783
   43MOL   C93346377   3.243   4.809   4.817 -0.0280 -0.5971  0.0969
   43MOL   C93446378   3.349   4.822   4.903 -0.1211  0.0913 -0.8473
   43MOL   C93546379   3.389   4.716   4.988 -0.4602  0.1750 -0.0464
   43MOL   C93646380   3.515   4.728   5.077  0.7802 -0.2915 -0.1593
   43MOL   C93746381   3.502   4.864   5.146 -0.5638 -0.9571 -0.1646
   43MOL   C93846382   3.513   4.615   5.181  0.3263 -0.2660 -0.3574
   43MOL   C93946383   3.642   4.736   4.998 -0.9671  0.3540  0.9469
   43MOL   C94046384   3.645   4.701   4.862  0.8811 -0.0695  0.0808
   43MOL   C94146385   3.769   4.680   4.790  0.0686 -0.4337 -0.1029
   43MOL   C94246386   3.889   4.720   4.846  0.2655 -0.0135  0.9038
   43MOL   O94346387   4.000   4.726   4.768  0.6218  0.3102 -0.0466
   43MOL   C94446388   3.889   4.749   4.980  0.1466 -0.5893  0.0482
   43MOL   C94546389   3.770   4.764   5.056 -0.0739 -0.0070  0.1049
   43MOL   C94646390   3.313   4.596   4.977  0.2571 -0.0808 -0.2975
   43MOL   C94746391   3.205   4.581   4.881 -0.1494  1.0049 -0.0968
   43MOL   C94846392   3.211   4.710   4.511 -0.0490 -0.5099  1.4021
   43MOL   C94946393   3.238   4.790   4.403 -0.1631 -0.6197  0.4405
   43MOL   C95046394   3.031   4.890   3.974 -0.2426 -0.0383 -0.1047
   43MOL   C95146395   2.982   4.805   3.876  0.3335 -0.4597  0.0317
   43MOL   H95246396   3.047   4.515   4.040  2.5976 -0.5830 -1.2965
   43MOL   H95346397   3.159   4.675   4.196  0.1591  1.7242  0.5665
   43MOL   H95446398   2.951   4.975   4.368 -1.7687 -3.2725 -2.1285
   43MOL   H95546399   2.908   4.850   4.605  0.9315  1.2065  0.8032
   43MOL   H95646400   3.220   4.897   4.759  1.3912 -0.4902 -0.3228
   43MOL   H95746401   3.402   4.917   4.904  1.6743 -0.8314  3.6648
   43MOL   H95846402   3.412   4.867   5.208 -0.4831  1.3847 -0.1146
   43MOL   H95946403   3.508   4.953   5.084  2.1296 -0.4482  0.7627
   43MOL   H96046404   3.587   4.882   5.212 -0.5359 -0.3096 -0.3789
   43MOL   H96146405   3.509   4.517   5.134  0.0782  1.0204 -3.1379
   43MOL   H96246406   3.604   4.618   5.241  0.0166  1.7837  0.0551
   43MOL   H96346407   3.421   4.631   5.237  0.1585  1.6117 -1.1256
   43MOL   H96446408   3.559   4.673   4.804  2.6152 -1.3387 -1.9315
   43MOL   H96546409   3.774   4.648   4.687  1.0250  0.2422 -0.2680
   43MOL   H96646410   3.985   4.777   5.022  1.0646 -2.8953 -0.4441
   43MOL   H96746411   3.783   4.791   5.159 -0.8273 -0.6990  0.3892
   43MOL   H96846412   3.328   4.507   5.037  1.0383 -0.4745 -1.0681
   43MOL   H96946413   3.153   4.487   4.877 -1.6554  1.7152  1.6986
   43MOL   H97046414   3.287   4.645   4.549  2.2781  1.5530  0.4046
   43MOL   H97146415   3.330   4.771   4.350  0.2090  0.0329  0.8496
   43MOL   H97246416   3.033   4.996   3.955  1.5078 -0.0440 -0.0442
   43MOL   H97346417   2.937   4.849   3.788 -0.4996  2.0255  1.6277
   43MOL   C97446418   4.010   4.824   4.674  0.7051 -0.4935 -0.8425
   43MOL   C97546419   4.001   4.960   4.706 -0.1078  0.6801 -0.0697
   43MOL   C97646420   4.010   5.049   4.600  0.0094 -0.5189  1.0580
   43MOL   C97746421   4.041   5.005   4.463 -0.3765 -0.4874  0.3131
   43MOL   S97846422   4.080   5.127   4.332  0.1611 -0.0929  0.0606
   43MOL   O97946423   3.952   5.178   4.273 -0.6639  0.0098 -0.7298
   43MOL   O98046424   4.175   5.062   4.242  0.2376  0.1032 -0.2381
   43MOL   C98146425   4.173   5.261   4.414  0.6289  0.4838  0.1185
   43MOL   C98246426   4.109   5.367   4.469 -0.1769  0.1358  0.1609
   43MOL   C98346427   4.183   5.467   4.538 -0.5235  0.6249  0.5114
   43MOL   C98446428   4.324   5.451   4.562 -0.4982  0.6524  0.6332
   43MOL   O98546429   4.381   5.551   4.629 -0.4708  0.3405 -0.2673
   43MOL   C98646430   4.501   5.586   4.577 -0.6085  0.9837  0.4291
   43MOL   C98746431   4.616   5.549   4.647  0.1840  0.5110  0.1611
   43MOL   C98846432   4.745   5.589   4.602 -0.3071 -0.1697 -0.2256
   43MOL   C98946433   4.756   5.660   4.478  0.0478  0.8376  0.2390
   43MOL   C99046434   4.900   5.710   4.440  0.2356 -0.5462  0.5555
   43MOL   C99146435   4.993   5.596   4.431  0.5635  0.1240 -0.1835
   43MOL   C99246436   4.894   5.769   4.302  0.3200  0.2310 -0.0794
   43MOL   C99346437   4.960   5.816   4.535  0.4198 -0.5710  0.0131
   43MOL   C99446438   4.876   5.876   4.633  0.2876 -0.4858 -0.8683
   43MOL   C99546439   4.919   5.976   4.712 -0.0692  0.2206 -0.1722
   43MOL   C99646440   5.047   6.025   4.688 -0.3946 -0.8919 -0.1133
   43MOL   O99746441   5.095   6.124   4.759  0.3882 -0.3370 -0.2138
   43MOL   C99846442   5.139   5.958   4.606  0.2439  0.1261  0.0095
   43MOL   C99946443   5.094   5.856   4.525  0.6240 -0.5523 -0.1322
   43MOL     C146444   4.639   5.693   4.405  0.2663 -0.5919  0.7828
   43MOL     C246445   4.510   5.656   4.453  0.0344 -0.2817 -0.2636
   43MOL     C346446   4.387   5.331   4.512 -0.1283 -1.0776 -0.1702
   43MOL     C446447   4.312   5.240   4.435  0.1588  0.5478  0.1336
   43MOL     C546448   4.051   4.867   4.436 -0.1330  0.1125  0.4538
   43MOL     C646449   4.024   4.781   4.542 -0.1087  0.2197  0.1198
   43MOL     H746450   3.967   4.988   4.804 -1.0858  2.9684 -1.0211
   43MOL     H846451   3.992   5.152   4.625 -1.8307 -1.0609  2.0798
   43MOL     H946452   4.007   5.375   4.435  0.1829 -1.9525 -1.5562
   43MOL    H1046453   4.140   5.561   4.570 -0.4046  1.0441 -0.5520
   43MOL    H1146454   4.592   5.508   4.745  1.1072 -1.7821 -0.5251
   43MOL    H1246455   4.824   5.559   4.670 -1.1507 -0.2677  0.7208
   43MOL    H1346456   4.942   5.525   4.365 -2.1750 -0.1173  2.1201
   43MOL    H1446457   5.000   5.550   4.530  0.3568  1.3063  0.3789
   43MOL    H1546458   5.092   5.616   4.389  1.3920  2.5356  2.7854
   43MOL    H1646459   4.874   5.708   4.215 -3.0206  0.7697  0.2364
   43MOL    H1746460   4.841   5.864   4.299  0.4109  0.2414 -1.5946
   43MOL    H1846461   4.997   5.798   4.281 -0.0731  0.0810 -2.3254
   43MOL    H1946462   4.778   5.834   4.651  1.3074 -2.1786  0.9687
   43MOL    H2046463   4.855   6.018   4.789 -0.6846  0.4991 -0.8253
   43MOL    H2146464   5.237   6.002   4.592  0.5592  0.5815  3.2870
   43MOL    H2246465   5.159   5.804   4.456  0.5899 -0.5864 -0.1383
   43MOL    H2346466   4.658   5.740   4.310  2.3762  1.8317  2.3374
   43MOL    H2446467   4.421   5.687   4.401 -0.1342  0.8332  0.6649
   43MOL    H2546468   4.494   5.322   4.519 -0.0254  0.8066  1.0374
   43MOL    H2646469   4.361   5.151   4.398  2.8225  2.8317 -2.0745
   43MOL    H2746470   4.065   4.820   4.340  0.6490 -1.4053  1.3046
   43MOL    H2846471   4.024   4.675   4.522 -1.8156 -0.1544  1.9715
   43MOL    C2946472   5.088   6.253   4.706 -0.0806 -0.2328 -0.6484
   43MOL    C3046473   4.976   6.295   4.629  0.1508 -0.2598 -0.1024
   43MOL    C3146474   4.980   6.425   4.574  0.2594 -0.0332 -0.0866
   43MOL    C3246475   5.096   6.504   4.585  0.0053 -0.3007 -0.4437
   43MOL    S3346476   5.095   6.660   4.509 -0.3435  0.1015 -0.1931
   43MOL    O3446477   4.998   6.664   4.406  0.2991  0.5511 -0.4214
   43MOL    O3546478   5.237   6.688   4.480  1.3098  0.4086 -0.1070
   43MOL    C3646479   5.034   6.774   4.631  0.6386 -0.2684 -0.7572
   43MOL    C3746480   4.939   6.752   4.739 -0.1347  0.2594  0.2175
   43MOL    C3846481   4.905   6.857   4.827 -0.1655 -0.7393  0.2762
   43MOL    C3946482   4.975   6.980   4.816 -0.5595  0.2574  0.7141
   43MOL    O4046483   4.955   7.084   4.906  0.7463  0.0964  0.6691
   43MOL    C4146484   4.897   7.197   4.858  0.3920  0.1139  0.3577
   43MOL    C4246485   4.801   7.210   4.751 -0.5131  0.1207 -0.4328
   43MOL    C4346486   4.718   7.321   4.734  0.7251  0.2798 -0.0192
   43MOL    C4446487   4.752   7.438   4.814 -0.2670 -0.0122  0.2217
   43MOL    C4546488   4.695   7.574   4.775  0.1627 -0.4243 -0.2176
   43MOL    C4646489   4.538   7.567   4.784 -0.3265  0.5480 -0.6525
   43MOL    C4746490   4.736   7.694   4.868 -0.1690  0.3295  0.2209
   43MOL    C4846491   4.753   7.597   4.639  0.4326  0.5624 -0.3416
   43MOL    C4946492   4.894   7.617   4.627  0.2726  0.9106 -0.6615
   43MOL    C5046493   4.943   7.621   4.497  0.3077 -0.0024 -0.3045
   43MOL    C5146494   4.868   7.599   4.385  0.2381  0.0515  0.4824
   43MOL    O5246495   4.928   7.593   4.256 -0.7076 -0.3443 -1.1889
   43MOL    C5346496   4.726   7.589   4.397  0.7827  0.2552 -0.2820
   43MOL    C5446497   4.670   7.590   4.522  0.2615 -0.0684  0.4031
   43MOL    C5546498   4.852   7.434   4.905 -0.6916  0.3003 -0.0057
   43MOL    C5646499   4.925   7.313   4.937  1.1854  0.6943 -0.0230
   43MOL    C5746500   5.070   6.997   4.716 -0.1636  0.0718  0.8521
   43MOL    C5846501   5.102   6.898   4.623 -0.3132  0.4711  0.1258
   43MOL    C5946502   5.210   6.458   4.654 -0.2349  0.1273  0.0181
   43MOL    C6046503   5.204   6.330   4.718  0.5701  0.1425 -0.0981
   43MOL    H6146504   4.889   6.235   4.607 -0.3216  1.3689 -2.8266
   43MOL    H6246505   4.904   6.461   4.506  1.1308 -2.6120 -2.5095
   43MOL    H6346506   4.888   6.657   4.744  0.5223 -0.1015  0.1191
   43MOL    H6446507   4.824   6.853   4.898  0.7240  2.3286  1.5446
   43MOL    H6546508   4.783   7.124   4.688 -1.2455 -0.8114  1.0202
   43MOL    H6646509   4.639   7.327   4.660 -1.6278 -1.3339  2.2578
   43MOL    H6746510   4.502   7.486   4.721 -1.6728 -0.0413  0.8445
   43MOL    H6846511   4.493   7.650   4.728 -0.8653  0.6458 -0.0791
   43MOL    H6946512   4.497   7.563   4.885 -0.0126  2.0528 -0.4493
   43MOL    H7046513   4.841   7.718   4.877  0.5371 -1.1949 -3.1448
   43MOL    H7146514   4.690   7.785   4.829  1.1635  0.3799 -1.2651
   43MOL    H7246515   4.695   7.673   4.967  0.7129 -2.0220  0.1189
   43MOL    H7346516   4.959   7.619   4.714  0.3331  1.2055 -0.7141
   43MOL    H7446517   5.050   7.636   4.488  0.8417 -3.1089  0.2614
   43MOL    H7546518   4.659   7.591   4.313  3.0682 -0.6261 -2.1895
   43MOL    H7646519   4.563   7.587   4.536  0.6864 -0.4346  3.9211
   43MOL    H7746520   4.886   7.521   4.960 -0.1795  0.6273 -0.8308
   43MOL    H7846521   5.007   7.315   5.008  0.8060  3.6676  0.4262
   43MOL    H7946522   5.136   7.082   4.707  1.9901 -1.4820  1.3766
   43MOL    H8046523   5.185   6.903   4.554 -1.2965  0.9743 -1.0445
   43MOL    H8146524   5.298   6.521   4.648  0.1126 -0.4465 -0.9902
   43MOL    H8246525   5.295   6.306   4.770  2.7162 -0.3505 -3.8859
   43MOL    H8346526   4.866   7.570   4.189  1.0414 -0.7340 -2.6897
   44MOL     C146527   6.561   6.694   4.363  0.1615 -0.5096  0.3533
   44MOL     C246528   6.699   6.704   4.372  0.1488  0.1996 -0.3894
   44MOL     C346529   6.762   6.832   4.404 -0.5786  0.1753  0.0904
   44MOL     C446530   6.688   6.954   4.393 -0.3981  0.2371  0.0725
   44MOL     S546531   6.785   7.105   4.410  0.3471  0.1560  0.1572
   44MOL     O646532   6.908   7.099   4.328  0.0615 -0.1445 -0.4038
   44MOL     O746533   6.774   7.126   4.552 -0.1847  0.4372 -0.2064
   44MOL     C846534   6.686   7.233   4.333  0.1538 -0.1180  0.3771
   44MOL     C946535   6.726   7.286   4.212 -0.5490  0.0535  0.2810
   44MOL    C1046536   6.651   7.392   4.151  0.0752  0.3454 -0.3767
   44MOL    C1146537   6.535   7.445   4.214  0.9915 -0.7437 -0.1310
   44MOL    O1246538   6.468   7.555   4.170  1.0006  0.3970  0.7373
   44MOL    C1346539   6.543   7.655   4.128 -0.3274  0.0943  0.3183
   44MOL    C1446540   6.623   7.725   4.221  0.2491 -0.2213 -0.1317
   44MOL    C1546541   6.704   7.828   4.171  0.0365  0.6290 -0.5735
   44MOL    C1646542   6.711   7.856   4.037 -0.7940 -0.8675  0.4654
   44MOL    C1746543   6.828   7.950   3.991  0.3614  0.4310 -0.1504
   44MOL    C1846544   6.821   7.976   3.839 -0.1778 -0.3684  0.0774
   44MOL    C1946545   6.791   8.090   4.049 -0.0875  0.2652  0.1451
   44MOL    C2046546   6.968   7.904   4.041  0.4872  0.5062  0.0848
   44MOL    C2146547   7.031   7.804   3.971 -0.5747 -0.1037 -0.5294
   44MOL    C2246548   7.163   7.762   4.003  0.3160  0.0322  0.1863
   44MOL    C2346549   7.232   7.828   4.107 -0.1997  0.7947 -0.0121
   44MOL    O2446550   7.355   7.794   4.152 -0.2493  0.0664 -0.3522
   44MOL    C2546551   7.166   7.925   4.183 -0.3464  0.2729  0.0604
   44MOL    C2646552   7.033   7.961   4.149 -0.7604 -0.3134 -0.0656
   44MOL    C2746553   6.633   7.782   3.944  0.2232  0.4539 -0.4599
   44MOL    C2846554   6.545   7.684   3.994 -0.2193 -0.6097 -0.5255
   44MOL    C2946555   6.489   7.386   4.336  0.3499 -0.2583  0.3923
   44MOL    C3046556   6.565   7.280   4.393  0.2267 -0.4857 -0.1827
   44MOL    C3146557   6.548   6.942   4.370  0.2166  0.6624  0.6682
   44MOL    C3246558   6.483   6.812   4.356  0.0024 -0.7460  0.5400
   44MOL    H3346559   6.755   6.611   4.376 -0.6759 -0.2939 -0.3625
   44MOL    H3446560   6.868   6.838   4.421 -0.8777  0.2916  2.0986
   44MOL    H3546561   6.815   7.256   4.158 -2.1237 -0.3575 -2.1298
   44MOL    H3646562   6.696   7.438   4.064  0.0871  0.1421 -0.4778
   44MOL    H3746563   6.626   7.700   4.326  1.7264  0.4373 -0.0026
   44MOL    H3846564   6.777   7.876   4.235  1.8133 -0.0896 -1.9930
   44MOL    H3946565   6.816   7.881   3.785 -1.0777 -1.6183  2.2636
   44MOL    H4046566   6.901   8.040   3.803  0.6975 -1.0712  0.7504
   44MOL    H4146567   6.729   8.032   3.823  0.1081  0.0715 -0.0411
   44MOL    H4246568   6.706   8.137   3.999  0.2792  0.9700  0.1803
   44MOL    H4346569   6.771   8.093   4.156 -1.4672  1.0868 -0.1140
   44MOL    H4446570   6.878   8.154   4.033  0.0811  0.1411  0.5578
   44MOL    H4546571   6.985   7.756   3.886 -0.0223  0.7156 -1.3048
   44MOL    H4646572   7.203   7.677   3.950  0.5656  0.1607  0.1640
   44MOL    H4746573   7.221   7.982   4.255  0.7382  2.1031 -2.1626
   44MOL    H4846574   6.991   8.040   4.211 -1.5583 -1.8926  1.4648
   44MOL    H4946575   6.642   7.796   3.837 -1.6759  0.5750 -0.6299
   44MOL    H5046576   6.492   7.627   3.919  1.6939 -1.0268 -1.5890
   44MOL    H5146577   6.394   7.406   4.383  0.2680  0.2232  0.0233
   44MOL    H5246578   6.535   7.229   4.484  1.3400 -0.1723  0.3752
   44MOL    H5346579   6.484   7.028   4.362 -1.0938 -0.4307 -1.1283
   44MOL    H5446580   6.375   6.810   4.355  0.0286 -1.7136 -1.7685
   44MOL    H5546581   6.513   6.599   4.344 -3.0910  1.2457 -0.5995
   44MOL    C5646582   7.459   7.867   4.096  0.1743 -0.1591 -0.2892
   44MOL    C5746583   7.473   7.884   3.957 -0.0624 -0.2945 -0.3697
   44MOL    C5846584   7.575   7.959   3.897 -0.4776 -0.0638  0.9640
   44MOL    C5946585   7.677   8.008   3.979  0.1449 -0.4596 -0.0919
   44MOL    S6046586   7.821   8.080   3.891  0.3461  0.2301  0.4407
   44MOL    O6146587   7.875   8.193   3.973  0.2065 -0.1773 -0.3784
   44MOL    O6246588   7.787   8.098   3.747 -0.2473  0.6258 -0.7249
   44MOL    C6346589   7.941   7.943   3.893  0.2027  0.4391 -0.0842
   44MOL    C6446590   8.075   7.966   3.922 -0.3548 -0.1442 -0.1154
   44MOL    C6546591   8.171   7.864   3.925  0.2060  0.4110 -0.2013
   44MOL    C6646592   8.129   7.731   3.903  0.3584  0.0371  0.3972
   44MOL    O6746593   8.232   7.633   3.909  0.1261  0.1958 -0.3460
   44MOL    C6846594   8.243   7.557   4.017 -0.4983 -0.4120 -0.1702
   44MOL    C6946595   0.061   7.605   4.128 -0.1193 -0.3601 -0.1970
   44MOL    C7046596   0.075   7.524   4.239 -0.7500 -0.2450  0.4122
   44MOL    C7146597   0.018   7.397   4.244 -0.3966  0.2403 -0.2500
   44MOL    C7246598   0.026   7.297   4.367 -0.3748  0.1332  0.2717
   44MOL    C7346599   0.088   7.373   4.485 -0.6209 -0.1282  0.6073
   44MOL    C7446600   8.137   7.260   4.415 -0.3120  0.6367  0.0616
   44MOL    C7546601   0.117   7.176   4.331  0.4888 -0.3144 -0.1933
   44MOL    C7646602   0.145   7.085   4.434 -0.1284  0.6195 -0.2088
   44MOL    C7746603   0.237   6.980   4.417 -0.0139 -0.1645 -0.3246
   44MOL    C7846604   0.298   6.962   4.294  0.5871 -0.8413 -0.8408
   44MOL    O7946605   0.380   6.850   4.272 -0.2453 -0.2725  0.0946
   44MOL    C8046606   0.278   7.053   4.187 -0.2072 -0.3344 -0.2356
   44MOL    C8146607   0.184   7.155   4.206 -0.4802 -0.6130 -0.4023
   44MOL    C8246608   8.189   7.351   4.136 -0.1320  0.6201  0.2242
   44MOL    C8346609   8.180   7.434   4.018  0.5317 -0.0046  0.4118
   44MOL    C8446610   7.992   7.706   3.869  0.2886  0.2861 -0.2413
   44MOL    C8546611   7.896   7.807   3.878  0.0823  1.0372 -0.2982
   44MOL    C8646612   7.667   7.994   4.124  0.0237 -0.2957  0.8508
   44MOL    C8746613   7.554   7.933   4.177 -0.0756 -0.3470 -0.8743
   44MOL    H8846614   7.398   7.829   3.901 -2.5491  0.4964  2.0841
   44MOL    H8946615   7.580   7.959   3.789 -0.5845 -2.4856  0.9383
   44MOL    H9046616   8.110   8.066   3.943  1.4553 -1.1058  1.5831
   44MOL    H9146617   0.021   7.890   3.938  0.2215 -0.1792  0.8630
   44MOL    H9246618   0.109   7.702   4.126  0.2127 -0.4243  2.3405
   44MOL    H9346619   0.117   7.563   4.330 -4.5802 -0.7242  2.4968
   44MOL    H9446620   0.085   7.313   4.576 -0.3478 -0.6290  0.2928
   44MOL    H9546621   0.049   7.473   4.502  0.4997  0.7973 -1.9755
   44MOL    H9646622   0.192   7.391   4.457 -0.9156  3.0300  1.3063
   44MOL    H9746623   8.074   7.221   4.335 -0.6347 -2.0734  1.5755
   44MOL    H9846624   8.138   7.179   4.487  0.7317 -0.9194 -1.6553
   44MOL    H9946625   8.083   7.340   4.465 -0.3181  0.5095  0.2552
   44MOL   H10046626   0.095   7.094   4.530 -2.8251  0.4056 -1.5623
   44MOL   H10146627   0.258   6.911   4.497  1.6295  1.2357  0.5084
   44MOL   H10246628   0.335   7.053   4.095 -0.6105 -0.9448 -0.4885
   44MOL   H10346629   0.171   7.225   4.124  1.2753  2.9694  2.2570
   44MOL   H10446630   8.134   7.258   4.135 -2.3409  1.8892  0.8003
   44MOL   H10546631   8.124   7.406   3.930  1.0060 -0.2766  0.1938
   44MOL   H10646632   7.958   7.604   3.858  2.5792 -0.4253 -1.0986
   44MOL   H10746633   7.792   7.780   3.866 -0.0441  0.3623  2.0371
   44MOL   H10846634   7.745   8.030   4.189 -0.8182  2.5059  0.3726
   44MOL   H10946635   7.531   7.930   4.282  0.7927 -1.0700 -0.6990
   44MOL   C11046636   0.477   6.835   4.371  0.1097  0.7166 -0.6500
   44MOL   C11146637   0.492   6.707   4.436 -0.5505 -0.1976 -0.1608
   44MOL   C11246638   0.611   6.687   4.514 -0.3160 -0.6972  0.3898
   44MOL   C11346639   0.694   6.792   4.540 -0.2250 -0.0553 -0.5086
   44MOL   S11446640   0.836   6.777   4.653 -0.0459 -0.2796 -0.3816
   44MOL   O11546641   0.950   6.837   4.588  0.0715  0.3403  0.0278
   44MOL   O11646642   0.842   6.642   4.715  0.0907 -0.4507 -0.7653
   44MOL   C11746643   0.777   6.896   4.780  0.5806 -0.2720 -0.2171
   44MOL   C11846644   0.666   6.862   4.862  0.6622 -0.2214 -0.0135
   44MOL   C11946645   0.626   6.952   4.961  0.2090  0.3002  0.1958
   44MOL   C12046646   0.680   7.080   4.974  0.1407 -0.5979  0.4851
   44MOL   O12146647   0.635   7.171   5.070 -0.0203  0.0934  0.1192
   44MOL   C12246648   0.512   7.154   5.136  0.3296 -0.4119  0.9462
   44MOL   C12346649   0.393   7.162   5.065  0.1694  0.0618  0.2699
   44MOL   C12446650   0.265   7.151   5.120  0.0372 -0.8498 -0.1946
   44MOL   C12546651   0.257   7.121   5.259  0.0991  0.2617  0.9190
   44MOL   C12646652   0.121   7.080   5.324  0.9785 -0.9322  0.0772
   44MOL   C12746653   0.109   7.170   5.454 -1.0358  0.1251  0.2568
   44MOL   C12846654   8.252   7.116   5.226  0.3086  0.2108 -0.6835
   44MOL   C12946655   0.116   6.935   5.359 -0.3226 -0.7582 -0.2094
   44MOL   C13046656   0.209   6.841   5.316 -0.4264  0.8202 -0.4756
   44MOL   C13146657   0.184   6.704   5.345  0.1129  0.3724 -0.5565
   44MOL   C13246658   0.065   6.658   5.403 -0.3096  0.1447 -0.0203
   44MOL   O13346659   0.033   6.528   5.417  0.0768 -0.3849  0.1477
   44MOL   C13446660   8.224   6.754   5.442  0.5907 -0.1374 -0.2880
   44MOL   C13546661   0.002   6.889   5.431  0.2590  0.0709 -0.7185
   44MOL   C13646662   0.376   7.108   5.332 -0.2672 -0.6556  0.5701
   44MOL   C13746663   0.503   7.133   5.273 -0.1971  0.1278  0.2021
   44MOL   C13846664   0.788   7.109   4.896 -0.1165 -0.2131 -0.2673
   44MOL   C13946665   0.846   7.015   4.801 -0.3943  0.1765 -0.1811
   44MOL   C14046666   0.678   6.923   4.487  0.1825  0.2856  0.4988
   44MOL   C14146667   0.575   6.936   4.392  1.1362  0.0593 -0.3170
   44MOL   H14246668   0.422   6.628   4.417  0.2480 -1.4122  1.7575
   44MOL   H14346669   0.631   6.594   4.566  0.5013  0.6081  2.4911
   44MOL   H14446670   0.613   6.769   4.847 -0.0406  0.0362  0.7926
   44MOL   H14546671   0.538   6.926   5.018 -1.1239  0.9213 -1.5358
   44MOL   H14646672   0.392   7.175   4.958 -0.0758 -3.1536 -0.1647
   44MOL   H14746673   0.176   7.168   5.061  1.9196 -0.2516 -2.9094
   44MOL   H14846674   0.186   7.145   5.526  1.5614 -0.1516 -2.5098
   44MOL   H14946675   0.008   7.153   5.492 -0.6972  0.4424  1.2989
   44MOL   H15046676   0.106   7.277   5.432 -1.2301  0.2807  1.0498
   44MOL   H15146677   8.245   7.054   5.136 -2.7698 -0.6156  0.0813
   44MOL   H15246678   8.153   7.108   5.269  0.7999 -0.1063  0.3974
   44MOL   H15346679   0.004   7.222   5.200  1.3020  0.7633  1.7117
   44MOL   H15446680   0.295   6.875   5.261  1.1754 -0.8255  0.9609
   44MOL   H15546681   0.253   6.626   5.317  0.1083 -1.1487  3.4540
   44MOL   H15646682   8.136   6.707   5.482  1.3235 -0.0983  1.4144
   44MOL   H15746683   8.180   6.963   5.454  1.3060  1.9968 -3.1555
   44MOL   H15846684   0.377   7.087   5.437  1.0047  2.1174  1.1569
   44MOL   H15946685   0.598   7.133   5.323 -0.3917  0.1398  0.5756
   44MOL   H16046686   0.832   7.208   4.900 -1.0247  0.1595  0.7130
   44MOL   H16146687   0.920   7.047   4.730  0.3828  0.1706  0.6157
   44MOL   H16246688   0.743   6.999   4.528  2.4708 -2.1268  1.5009
   44MOL   H16346689   0.561   7.026   4.334 -0.0654  0.2161  0.1989
   44MOL   C16446690   0.034   6.443   5.311  0.4708 -0.5019  0.6177
   44MOL   C16546691   0.132   6.347   5.303 -0.7050 -0.0781  0.3702
   44MOL   C16646692   0.125   6.248   5.201 -0.3308 -0.1656 -0.5352
   44MOL   C16746693   0.019   6.245   5.109 -1.0979  0.0147 -0.1024
   44MOL   S16846694   0.021   6.121   4.982  0.1550 -0.0762 -0.4873
   44MOL   O16946695   0.162   6.096   4.938  0.1683 -0.7185 -0.0867
   44MOL   O17046696   8.171   6.166   4.888  0.2631 -0.2100  0.3574
   44MOL   C17146697   8.218   5.969   5.058  0.1536 -0.6251 -0.1513
   44MOL   C17246698   0.011   5.845   5.014 -0.0574  0.1073 -0.5913
   44MOL   C17346699   8.210   5.726   5.071  0.2984 -0.8278  0.1273
   44MOL   C17446700   8.130   5.735   5.186  0.4467 -0.5106 -0.3307
   44MOL   O17546701   8.073   5.623   5.239 -0.6545  0.2240 -0.0450
   44MOL   C17646702   8.152   5.557   5.332  0.7728 -0.0946  0.3906
   44MOL   C17746703   8.173   5.620   5.456  0.2794  0.4131 -0.2627
   44MOL   C17846704   0.010   5.552   5.545 -0.2112  0.0837  0.6198
   44MOL   C17946705   0.050   5.421   5.520  0.0660 -0.9047 -0.8495
   44MOL   C18046706   0.130   5.336   5.622  0.0352 -0.3952  0.0378
   44MOL   C18146707   0.278   5.340   5.582 -0.1051 -0.5292  0.1850
   44MOL   C18246708   0.119   5.400   5.769  0.0775  0.4739 -0.4025
   44MOL   C18346709   0.078   5.187   5.621 -0.6186  0.1716 -0.0109
   44MOL   C18446710   8.199   5.159   5.575  0.1562  0.0312 -0.1335
   44MOL   C18546711   8.149   5.023   5.570  0.1039 -0.7068  0.2066
   44MOL   C18646712   8.237   4.920   5.605  0.5272 -0.0122 -0.8663
   44MOL   O18746713   8.191   4.786   5.609  0.7461  0.4371  0.3953
   44MOL   C18846714   0.105   4.948   5.658 -0.5608  0.0205 -0.3789
   44MOL   C18946715   0.159   5.078   5.662  0.6622 -0.2909 -0.1605
   44MOL   C19046716   0.031   5.369   5.392  0.8921  0.2017  0.3854
   44MOL   C19146717   8.203   5.434   5.302 -0.6191 -0.9199  0.6478
   44MOL   C19246718   8.095   5.862   5.234  0.1764 -0.1034  0.0708
   44MOL   C19346719   8.132   5.980   5.173 -0.6286 -0.3121  0.4843
   44MOL   C19446720   8.174   6.347   5.117 -0.0944  0.0275 -0.1137
   44MOL   C19546721   8.186   6.447   5.215 -0.6544 -0.0168  0.7847
   44MOL   H19646722   0.209   6.341   5.379 -2.3246 -0.5652  2.0180
   44MOL   H19746723   0.202   6.172   5.204 -0.9756 -0.8541 -1.3015
   44MOL   H19846724   0.066   5.841   4.921 -1.6153  1.0886 -1.5678
   44MOL   H19946725   8.244   5.635   5.025  1.8775  0.9046 -2.3142
   44MOL   H20046726   8.135   5.718   5.479  1.1953  0.3926  1.3700
   44MOL   H20146727   0.028   5.616   5.630 -3.5044  2.4257 -0.3285
   44MOL   H20246728   0.332   5.289   5.662  1.0943  0.5097  0.0447
   44MOL   H20346729   0.315   5.440   5.602 -1.6167  0.2115 -0.6896
   44MOL   H20446730   0.296   5.302   5.482 -1.9739  0.9652 -0.7445
   44MOL   H20546731   0.161   5.500   5.772  1.9619 -0.3301  1.7084
   44MOL   H20646732   0.016   5.380   5.800  0.8068 -3.2538 -0.1810
   44MOL   H20746733   0.172   5.336   5.840  0.8265 -1.5939 -2.7231
   44MOL   H20846734   8.131   5.234   5.539 -0.5681 -0.6528 -0.1886
   44MOL   H20946735   8.044   5.009   5.552  0.5047 -2.0160 -1.2368
   44MOL   H21046736   0.171   4.869   5.690  2.2146  2.3310 -0.1040
   44MOL   H21146737   0.259   5.099   5.697  0.7468 -0.8841 -0.0431
   44MOL   H21246738   0.069   5.270   5.375 -0.2655 -0.3535  0.9973
   44MOL   H21346739   8.192   5.395   5.202  0.9788  0.3639 -0.0472
   44MOL   H21446740   8.021   5.882   5.311  0.0857 -2.8418  0.7345
   44MOL   H21546741   8.092   6.075   5.204  0.0580 -0.0059  0.4425
   44MOL   H21646742   8.095   6.351   5.044 -1.8800 -0.6841  1.7416
   44MOL   H21746743   8.099   6.510   5.221 -0.6773 -0.0617  0.9090
   44MOL   C21846744   8.107   4.745   5.511 -0.6542  0.1731 -0.2932
   44MOL   C21946745   7.974   4.702   5.539 -0.0807 -0.6587 -0.8014
   44MOL   C22046746   7.894   4.651   5.435 -0.2754  0.0216  0.1887
   44MOL   C22146747   7.938   4.647   5.304  0.3982  0.4325 -0.2613
   44MOL   S22246748   7.830   4.601   5.174  0.3572 -0.5156 -0.2628
   44MOL   O22346749   7.772   4.468   5.198 -0.0140 -0.6728 -0.0678
   44MOL   O22446750   7.901   4.633   5.050 -0.3918 -0.3156 -0.5379
   44MOL   C22546751   7.706   4.721   5.188 -0.2264 -0.1439  0.1372
   44MOL   C22646752   7.584   4.694   5.246  0.8644 -0.6310  0.1415
   44MOL   C22746753   7.486   4.797   5.264 -0.4709  0.0442 -0.0596
   44MOL   C22846754   7.526   4.929   5.236 -0.2970 -0.1938 -0.5348
   44MOL   O22946755   7.438   5.033   5.266 -0.0796  0.2679  0.0662
   44MOL   C23046756   7.338   5.054   5.174  0.4679 -0.3826  0.0097
   44MOL   C23146757   7.210   4.985   5.178 -0.4401  0.2383  0.2188
   44MOL   C23246758   7.114   5.005   5.076 -0.6972 -0.5341  0.0128
   44MOL   C23346759   7.144   5.089   4.966 -0.2486 -0.0976  0.2424
   44MOL   C23446760   7.048   5.115   4.848  0.3141  0.1915 -0.8130
   44MOL   C23546761   6.908   5.049   4.877 -1.2155 -0.2896 -0.3070
   44MOL   C23646762   7.021   5.265   4.842  0.4941 -0.0953 -0.2933
   44MOL   C23746763   7.112   5.057   4.718 -0.5187  0.2377 -0.4502
   44MOL   C23846764   7.139   5.138   4.607  0.3379 -0.2795  0.1714
   44MOL   C23946765   7.191   5.085   4.486  0.2362  0.0271 -0.3500
   44MOL   C24046766   7.231   4.950   4.486  0.4540 -0.4094  0.5571
   44MOL   O24146767   7.294   4.889   4.379  0.1378 -0.0737 -0.4956
   44MOL   C24246768   7.205   4.869   4.595  0.1317  0.2340 -0.3306
   44MOL   C24346769   7.143   4.920   4.710 -0.1640 -0.1572 -0.5164
   44MOL   C24446770   7.268   5.156   4.961  0.5351  0.1414  0.7610
   44MOL   C24546771   7.359   5.135   5.062 -0.0704  0.2386  0.2632
   44MOL   C24646772   7.661   4.963   5.189 -0.7474 -0.4501  0.6352
   44MOL   C24746773   7.746   4.854   5.162  0.7579  0.5726  0.2440
   44MOL   C24846774   8.068   4.694   5.277  0.3290  0.0253 -0.6401
   44MOL   C24946775   8.151   4.740   5.379  0.1957  0.6777 -0.3449
   44MOL   H25046776   7.931   4.711   5.638  1.0764  0.4803 -0.3867
   44MOL   H25146777   7.800   4.608   5.465 -0.8541  0.2307 -1.3037
   44MOL   H25246778   7.560   4.592   5.274 -0.0916  0.4130  3.4676
   44MOL   H25346779   7.392   4.774   5.310  0.5927 -1.2379  1.5187
   44MOL   H25446780   7.188   4.907   5.249  0.4986 -0.3421 -0.1159
   44MOL   H25546781   7.024   4.946   5.081 -2.2233  1.8792  2.4092
   44MOL   H25646782   6.859   5.078   4.785  2.0955  0.3194 -1.9723
   44MOL   H25746783   6.869   5.083   4.973  0.7591 -1.5807  0.9924
   44MOL   H25846784   6.915   4.940   4.883  0.6193 -0.2105 -0.6764
   44MOL   H25946785   6.947   5.294   4.767 -0.7408 -0.5789  0.7333
   44MOL   H26046786   6.977   5.293   4.938  0.4489  0.4843 -0.4826
   44MOL   H26146787   7.107   5.330   4.830 -0.2844  1.1318  0.6510
   44MOL   H26246788   7.111   5.242   4.600 -1.2800 -0.7025  0.2194
   44MOL   H26346789   7.196   5.146   4.397 -3.0621  0.1816 -0.4690
   44MOL   H26446790   7.225   4.763   4.600 -0.4268  0.1414  0.0721
   44MOL   H26546791   7.150   4.865   4.802 -0.8295 -0.1857 -0.4818
   44MOL   H26646792   7.299   5.228   4.887 -0.5174  1.2221  1.3465
   44MOL   H26746793   7.456   5.181   5.051 -0.1671  0.5624  0.7471
   44MOL   H26846794   7.697   5.064   5.172 -0.8425 -0.5538 -0.2035
   44MOL   H26946795   7.840   4.879   5.115  0.0593 -0.4596 -1.7644
   44MOL   H27046796   8.103   4.694   5.174 -0.1849  2.1590 -0.8329
   44MOL   H27146797   8.250   4.767   5.347 -0.2859 -0.3233 -2.7715
   44MOL   C27246798   7.226   4.785   4.313  0.5781 -0.1918 -0.2630
   44MOL   C27346799   7.108   4.816   4.241 -0.0428 -1.0820 -0.3351
   44MOL   C27446800   7.034   4.726   4.166  0.3946  0.2547 -0.0102
   44MOL   C27546801   7.081   4.590   4.170 -0.4692 -0.3079 -0.5900
   44MOL   S27646802   6.978   4.472   4.089  0.2363 -0.4292 -0.0460
   44MOL   O27746803   7.060   4.352   4.080 -0.1922  0.4005 -0.3412
   44MOL   O27846804   6.926   4.538   3.970 -0.1787 -0.3018 -0.3375
   44MOL   C27946805   6.846   4.448   4.207 -0.3694  0.1320  0.6078
   44MOL   C28046806   6.838   4.328   4.275 -0.4752 -0.0515 -0.2553
   44MOL   C28146807   6.744   4.306   4.372  0.2462 -0.2975 -0.4337
   44MOL   C28246808   6.647   4.408   4.396  0.2986 -0.5556 -0.1995
   44MOL   O28346809   6.567   4.394   4.508  0.0318 -0.3715  0.0639
   44MOL   C28446810   6.543   4.497   4.602 -1.0009 -0.3990 -0.6310
   44MOL   C28546811   6.653   4.573   4.652  0.4482  0.0580  0.3352
   44MOL   C28646812   6.633   4.674   4.745 -0.3618  0.3212  0.9068
   44MOL   C28746813   6.512   4.687   4.816 -0.0238 -0.2679  0.4205
   44MOL   C28846814   6.498   4.790   4.923 -0.0174  0.1670 -0.0494
   44MOL   C28946815   6.635   4.790   5.011  0.0562 -0.4151 -0.2618
   44MOL   C29046816   6.489   4.931   4.868 -0.0015  0.3759  0.4029
   44MOL   C29146817   6.378   4.754   5.019 -0.3321  0.2552 -0.0041
   44MOL   C29246818   6.394   4.651   5.114 -0.0228  0.5465 -0.2777
   44MOL   C29346819   6.284   4.611   5.195 -0.5269  0.5743  1.1374
   44MOL   C29446820   6.171   4.690   5.190  0.7901 -0.1712 -0.4216
   44MOL   O29546821   6.070   4.651   5.272  0.0845  1.1094 -0.5532
   44MOL   C29646822   6.154   4.801   5.109 -0.2739 -0.2798  0.7348
   44MOL   C29746823   6.254   4.829   5.011  0.1713 -0.0607 -0.3602
   44MOL   C29846824   6.402   4.610   4.773 -0.2203 -0.5660 -0.4528
   44MOL   C29946825   6.422   4.514   4.676  0.2084 -0.1863  0.5256
   44MOL   C30046826   6.647   4.523   4.315  0.5183 -0.1492 -0.2001
   44MOL   C30146827   6.749   4.548   4.226 -0.3328 -0.1877  0.4083
   44MOL   C30246828   7.185   4.555   4.253  0.0079 -0.3407 -0.4127
   44MOL   C30346829   7.268   4.649   4.310 -0.1169 -0.2365  0.7198
   44MOL   H30446830   7.070   4.917   4.236  3.1600  0.1709 -0.6914
   44MOL   H30546831   6.946   4.756   4.110  0.7689  1.1289 -0.1324
   44MOL   H30646832   6.914   4.254   4.255 -0.9325  0.1759 -3.0260
   44MOL   H30746833   6.745   4.211   4.423 -0.9664  0.2635  0.6811
   44MOL   H30846834   6.752   4.572   4.609  0.1661  1.5158 -0.4189
   44MOL   H30946835   6.709   4.747   4.768 -1.0583  1.0850  0.8200
   44MOL   H31046836   6.625   4.848   5.103  0.4022 -0.1766 -0.3749
   44MOL   H31146837   6.716   4.833   4.953 -1.0906  0.4434 -1.2444
   44MOL   H31246838   6.665   4.689   5.042  2.2820  0.7085  1.3967
   44MOL   H31346839   6.406   4.930   4.798  0.7702  0.3671 -0.5285
   44MOL   H31446840   6.472   4.993   4.956  2.5176  0.8527  0.6002
   44MOL   H31546841   6.580   4.959   4.816  0.9397 -0.7609  1.3953
   44MOL   H31646842   6.486   4.595   5.114 -0.7851 -0.7266 -1.2103
   44MOL   H31746843   6.281   4.514   5.242 -1.0616 -0.9956 -1.9786
   44MOL   H31846844   6.072   4.870   5.118 -0.1279  0.3306 -2.1904
   44MOL   H31946845   6.251   4.919   4.951  0.9101 -1.0385 -1.9249
   44MOL   H32046846   6.305   4.632   4.816  0.7802  1.0484  1.0561
   44MOL   H32146847   6.345   4.444   4.647 -0.2569  1.1692 -1.6455
   44MOL   H32246848   6.579   4.603   4.342 -3.2211 -3.1037 -0.4786
   44MOL   H32346849   6.747   4.642   4.173  0.5135  0.4584  1.4992
   44MOL   H32446850   7.208   4.449   4.257 -1.6308 -0.6404  1.9729
   44MOL   H32546851   7.352   4.615   4.370 -1.2266  0.1448  2.5344
   44MOL   C32646852   6.084   4.667   5.405  0.3540  0.5508  1.0340
   44MOL   C32746853   6.089   4.556   5.490  0.2356 -0.1491  0.3314
   44MOL   C32846854   6.093   4.562   5.627 -0.2135  0.2260  0.0963
   44MOL   C32946855   6.088   4.692   5.692  0.2375  0.9719  0.1413
   44MOL   S33046856   6.084   4.688   5.873  0.1648 -0.1866  0.3146
   44MOL   O33146857   6.162   4.574   5.920  0.4639 -0.0223  0.2316
   44MOL   O33246858   5.949   4.697   5.922 -0.0685  0.0918  0.4427
   44MOL   C33346859   6.170   4.838   5.908 -0.3898 -0.2639  0.2309
   44MOL   C33446860   6.312   4.845   5.910  0.3172  0.1222  0.2941
   44MOL   C33546861   6.360   4.975   5.923  0.4272 -0.2278  0.8282
   44MOL   C33646862   6.278   5.086   5.935  0.5153  0.2292 -0.0376
   44MOL   O33746863   6.325   5.214   5.943 -0.1236 -0.1199  0.1767
   44MOL   C33846864   6.308   5.292   6.057 -0.2794  0.8758 -0.6399
   44MOL   C33946865   6.276   5.245   6.190 -0.5309 -0.7164  0.2000
   44MOL   C34046866   6.283   5.331   6.300 -0.3335 -0.0090 -0.5019
   44MOL   C34146867   6.314   5.469   6.279  0.1436 -0.2082  0.0551
   44MOL   C34246868   6.312   5.565   6.394 -0.3389 -0.3386  0.0246
   44MOL   C34346869   6.251   5.504   6.524  0.7030 -0.3326  0.1044
   44MOL   C34446870   6.461   5.611   6.422 -0.4568 -0.1710  0.1102
   44MOL   C34546871   6.221   5.689   6.353 -0.2171 -0.1691  0.3101
   44MOL   C34646872   6.116   5.679   6.261  0.2371 -0.0613 -0.0535
   44MOL   C34746873   6.033   5.787   6.235 -0.0024 -0.0701  0.5148
   44MOL   C34846874   6.061   5.916   6.282 -0.1262 -0.2250  0.3011
   44MOL   O34946875   5.972   6.022   6.263  0.2916  0.7047  0.2228
   44MOL   C35046876   6.176   5.933   6.370  0.4042  0.1920  0.1153
   44MOL   C35146877   6.253   5.821   6.406 -0.0533  0.6083 -1.2574
   44MOL   C35246878   6.362   5.510   6.156 -0.6535 -0.0879 -0.1180
   44MOL   C35346879   6.358   5.420   6.049 -0.5039 -0.6843 -0.2287
   44MOL   C35446880   6.136   5.073   5.952 -0.2479  0.1378 -0.3605
   44MOL   C35546881   6.085   4.945   5.924  0.4430  0.0604  0.7437
   44MOL   C35646882   6.092   4.811   5.609 -0.6787 -0.4348 -0.2131
   44MOL   C35746883   6.082   4.791   5.464 -0.0602 -0.1882  0.3973
   44MOL   H35846884   6.091   4.454   5.456  1.4052 -0.3891  1.0730
   44MOL   H35946885   6.098   4.471   5.686  0.7289  0.5624  0.5343
   44MOL   H36046886   6.372   4.756   5.893  2.2004  1.3080  0.6138
   44MOL   H36146887   6.467   4.983   5.909  0.2335 -0.8389 -1.1205
   44MOL   H36246888   6.242   5.143   6.197  0.8168 -1.3889 -2.3512
   44MOL   H36346889   6.249   5.298   6.397 -2.1808  1.4298 -0.6337
   44MOL   H36446890   6.273   5.582   6.598 -3.0071  3.7400 -2.7963
   44MOL   H36546891   6.310   5.420   6.561 -0.8459 -1.0675  0.9484
   44MOL   H36646892   6.146   5.483   6.506  0.4627  0.9036 -0.0311
   44MOL   H36746893   6.503   5.676   6.345  2.2422  0.3696  1.9768
   44MOL   H36846894   6.459   5.667   6.515  3.0972  0.7342 -0.2662
   44MOL   H36946895   6.529   5.526   6.425  1.3502  1.2385 -0.0318
   44MOL   H37046896   6.093   5.581   6.222 -0.0771 -0.4774  1.1396
   44MOL   H37146897   5.945   5.773   6.174  0.7062  0.2760 -0.6036
   44MOL   H37246898   6.188   6.029   6.418 -1.3444  1.1832 -1.3780
   44MOL   H37346899   6.326   5.838   6.483 -0.5976 -0.1197 -0.5707
   44MOL   H37446900   6.389   5.613   6.141 -1.7646  0.3992  1.1129
   44MOL   H37546901   6.384   5.459   5.952  5.7755 -4.1714 -0.2147
   44MOL   H37646902   6.071   5.157   5.971  0.7381  1.0137 -0.8277
   44MOL   H37746903   5.979   4.930   5.942  0.3904 -0.4089  0.0676
   44MOL   H37846904   6.087   4.913   5.642  0.3262 -0.8354  1.2128
   44MOL   H37946905   6.078   4.872   5.393  3.4000 -0.6360 -0.3779
   44MOL   C38046906   5.859   6.022   6.336  0.4383  0.5203 -0.1308
   44MOL   C38146907   5.749   5.950   6.283  0.2569 -0.1602  0.5567
   44MOL   C38246908   5.620   5.951   6.348 -0.1476 -0.8070 -0.4249
   44MOL   C38346909   5.612   6.036   6.464 -0.3483  0.2564 -0.6716
   44MOL   S38446910   5.465   6.024   6.566  0.0354  0.0710 -0.1849
   44MOL   O38546911   5.349   6.001   6.477  0.3803  0.3424  0.1419
   44MOL   O38646912   5.463   6.137   6.661 -0.0738 -0.0160 -0.1313
   44MOL   C38746913   5.481   5.872   6.659 -0.3845 -0.3673  0.0384
   44MOL   C38846914   5.503   5.755   6.583 -0.0483 -0.2524 -0.4375
   44MOL   C38946915   5.508   5.630   6.643  0.1958 -0.2730 -0.1157
   44MOL   C39046916   5.501   5.614   6.782  0.4146 -0.4673 -0.3943
   44MOL   O39146917   5.513   5.492   6.843 -0.2230 -0.1114 -0.4551
   44MOL   C39246918   5.426   5.381   6.823 -0.2215 -0.2913 -0.0801
   44MOL   C39346919   5.290   5.404   6.810 -0.3809  0.4895  0.2807
   44MOL   C39446920   5.201   5.297   6.796  0.2124  0.2302 -0.5647
   44MOL   C39546921   5.241   5.168   6.765 -0.9200 -0.9250  0.4219
   44MOL   C39646922   5.152   5.059   6.711  0.1249 -0.0719 -0.4279
   44MOL   C39746923   5.151   4.945   6.816  0.3437 -0.4031  0.1848
   44MOL   C39846924   5.004   5.090   6.691  0.7113 -0.3724 -0.3260
   44MOL   C39946925   5.208   5.012   6.574  0.2105 -0.4539  0.1169
   44MOL   C40046926   5.222   5.106   6.468 -0.0254 -0.3313  0.0813
   44MOL   C40146927   5.262   5.072   6.337  0.4165  0.0839 -0.2218
   44MOL   C40246928   5.305   4.938   6.318 -0.0119  0.2697  0.1448
   44MOL   O40346929   5.374   4.910   6.201 -0.1957  0.2625  0.3728
   44MOL   C40446930   5.298   4.844   6.420 -0.0733 -0.1779  0.3616
   44MOL   C40546931   5.245   4.880   6.545  0.0734 -0.6277 -0.1695
   44MOL   C40646932   5.382   5.148   6.769  0.0303 -0.5913  0.0971
   44MOL   C40746933   5.472   5.250   6.808 -0.6768 -0.4604 -1.0459
   44MOL   C40846934   5.482   5.726   6.860  0.1797 -0.1774  1.1891
   44MOL   C40946935   5.461   5.853   6.797 -0.8049 -0.3297  0.7295
   44MOL   C41046936   5.730   6.099   6.518  0.4166  0.6822  0.5588
   44MOL   C41146937   5.849   6.096   6.453 -0.3225  0.3975 -0.5431
   44MOL   H41246938   5.754   5.893   6.192  1.2247 -1.5745  1.4796
   44MOL   H41346939   5.545   5.891   6.301  3.0233 -2.5288 -3.5036
   44MOL   H41446940   5.498   5.763   6.475 -0.9455 -0.0719 -0.3856
   44MOL   H41546941   5.524   5.548   6.574  1.4208 -0.8393  0.8267
   44MOL   H41646942   5.252   5.504   6.824 -0.1172  0.9414 -2.0192
   44MOL   H41746943   5.096   5.321   6.792  0.2414  0.2752 -1.0119
   44MOL   H41846944   5.088   4.858   6.797 -0.3905  0.6882 -2.5250
   44MOL   H41946945   5.120   4.987   6.912 -0.2786 -1.4053  0.4262
   44MOL   H42046946   5.256   4.926   6.840  1.3315  3.1165 -1.0758
   44MOL   H42146947   4.949   5.001   6.660 -1.4656  0.4623  1.0181
   44MOL   H42246948   4.959   5.121   6.786 -1.0006 -2.3256 -0.4483
   44MOL   H42346949   4.983   5.167   6.617 -0.1808 -0.0059  0.2990
   44MOL   H42446950   5.201   5.211   6.485  1.8646  0.2858 -1.1042
   44MOL   H42546951   5.269   5.149   6.262 -0.4789  1.3939  1.0136
   44MOL   H42646952   5.329   4.745   6.392 -1.0787 -0.7975  1.3926
   44MOL   H42746953   5.247   4.791   6.607  1.1113  0.8869  2.0245
   44MOL   H42846954   5.422   5.050   6.751  2.2419  0.1778  0.6755
   44MOL   H42946955   5.579   5.234   6.818 -0.6145  0.8127  0.6078
   44MOL   H43046956   5.470   5.717   6.967  0.2295 -0.2211  1.1914
   44MOL   H43146957   5.455   5.948   6.848  1.2311 -0.1469  0.6723
   44MOL   H43246958   5.718   6.166   6.603 -0.9198 -0.0827  0.9882
   44MOL   H43346959   5.936   6.145   6.493 -0.5904  1.1469 -0.8608
   44MOL   C43446960   5.507   4.944   6.207  0.1074  0.1192  0.0355
   44MOL   C43546961   5.546   5.071   6.157 -0.6759  0.0183  0.8748
   44MOL   C43646962   5.675   5.114   6.179  0.3808 -0.2958 -0.1916
   44MOL   C43746963   5.771   5.029   6.241  0.3354  0.4552 -0.2866
   44MOL   S43846964   5.934   5.091   6.265 -0.2247  0.1021  0.1518
   44MOL   O43946965   5.958   5.208   6.179 -0.5605  0.1487  0.1200
   44MOL   O44046966   6.031   4.980   6.246 -0.1737 -0.0047 -0.2666
   44MOL   C44146967   5.940   5.147   6.435 -0.0378  0.3360  0.2521
   44MOL   C44246968   5.825   5.214   6.488  0.5068  1.1982  0.5314
   44MOL   C44346969   5.827   5.252   6.626 -0.0529  0.7466 -0.2697
   44MOL   C44446970   5.946   5.237   6.703 -0.2087 -0.3837  0.3038
   44MOL   O44546971   5.950   5.272   6.839 -0.0427 -0.1120  0.1588
   44MOL   C44646972   5.965   5.406   6.860 -0.0059 -0.1689 -0.0759
   44MOL   C44746973   5.854   5.481   6.902 -0.0946  0.1159  0.2909
   44MOL   C44846974   5.865   5.616   6.929 -0.5847 -0.8663 -0.0524
   44MOL   C44946975   5.985   5.689   6.896  0.0220  0.3358 -0.6311
   44MOL   C45046976   5.997   5.847   6.909 -0.3974  0.4733  0.5927
   44MOL   C45146977   6.091   5.910   6.803  0.4104 -0.0749  0.5917
   44MOL   C45246978   5.862   5.909   6.873  0.5511 -0.0147  0.0353
   44MOL   C45346979   6.037   5.890   7.053 -0.2719  0.1881 -0.6656
   44MOL   C45446980   6.090   6.020   7.082 -0.1122 -0.2740 -1.0837
   44MOL   C45546981   6.111   6.064   7.214  0.2589 -1.2951  0.4630
   44MOL   C45646982   6.098   5.971   7.319  0.1135 -0.6597 -0.8196
   44MOL   O45746983   6.134   6.006   7.446  0.1419  0.7843 -0.4917
   44MOL   C45846984   6.044   5.844   7.296  0.0269  0.2053 -0.2460
   44MOL   C45946985   6.014   5.805   7.166 -0.0653 -0.2328 -0.2806
   44MOL   C46046986   6.092   5.608   6.846 -0.6569  0.3897  0.1488
   44MOL   C46146987   6.087   5.468   6.833  0.1319  0.0319 -0.9413
   44MOL   C46246988   6.058   5.174   6.646  0.2520  0.2018  1.1195
   44MOL   C46346989   6.051   5.123   6.514 -0.4462 -0.2595 -0.8661
   44MOL   C46446990   5.731   4.904   6.299  0.3313  0.0027  0.1578
   44MOL   C46546991   5.594   4.870   6.284  0.1877  0.6665  0.3669
   44MOL   H46646992   5.475   5.132   6.104 -1.9226  0.1249  2.6144
   44MOL   H46746993   5.714   5.207   6.139 -2.0209  1.7135  2.0134
   44MOL   H46846994   5.742   5.235   6.422  0.6438  1.5114  0.4557
   44MOL   H46946995   5.742   5.300   6.671  0.5491  1.9701 -0.4174
   44MOL   H47046996   5.764   5.428   6.930 -0.7920  1.1632  0.0462
   44MOL   H47146997   5.774   5.657   6.969 -0.0616 -0.0152  0.2867
   44MOL   H47246998   6.089   6.019   6.794 -0.7198 -0.1626 -0.3213
   44MOL   H47346999   6.076   5.867   6.704 -1.0113  0.0527  0.7347
   44MOL   H47447000   6.193   5.897   6.838  0.4058 -0.6605  0.3871
   44MOL   H47547001   5.775   5.877   6.931  0.5278 -1.6566 -0.8618
   44MOL   H47647002   5.870   6.017   6.876  0.9896 -0.0483  0.1408
   44MOL   H47747003   5.831   5.881   6.772  1.7917  1.8379 -0.8806
   44MOL   H47847004   6.105   6.082   6.995  1.5031  0.1562 -0.5231
   44MOL   H47947005   6.141   6.167   7.226  0.1324 -1.3255  1.0244
   44MOL   H48047006   6.026   5.779   7.381  1.7729  0.6744  0.5021
   44MOL   H48147007   5.967   5.708   7.163 -1.4547  0.4385 -0.9756
   44MOL   H48247008   6.180   5.655   6.805  0.3593 -0.1006  1.7639
   44MOL   H48347009   6.171   5.413   6.791  0.5608 -0.2139  0.2257
   44MOL   H48447010   6.144   5.141   6.703 -0.4910 -2.1461  0.9533
   44MOL   H48547011   6.132   5.064   6.473  2.8729  3.1868  0.4735
   44MOL   H48647012   5.806   4.842   6.346 -2.5356 -3.9090 -0.2151
   44MOL   H48747013   5.566   4.778   6.333  0.3350  0.8608  0.8242
   44MOL   C48847014   6.048   6.085   7.511 -0.0745  0.4343 -0.0102
   44MOL   C48947015   5.919   6.039   7.542 -0.4739  0.5462 -0.2286
   44MOL   C49047016   5.823   6.129   7.604 -0.1639  0.4971  0.4164
   44MOL   C49147017   5.858   6.263   7.633  0.1738  0.0342  0.3347
   44MOL   S49247018   5.732   6.385   7.687 -0.1046  0.3071 -0.3362
   44MOL   O49347019   5.684   6.461   7.570 -0.3528  0.3379 -0.5235
   44MOL   O49447020   5.776   6.453   7.808  0.3450 -0.4879 -0.2422
   44MOL   C49547021   5.600   6.274   7.742 -0.4426 -0.0839 -0.0032
   44MOL   C49647022   5.598   6.229   7.876  0.0401  0.0613  0.3819
   44MOL   C49747023   5.486   6.160   7.915  0.3054  0.6808  0.4277
   44MOL   C49847024   5.396   6.102   7.822  0.2604 -0.0411 -0.5275
   44MOL   O49947025   5.295   6.018   7.860  0.2244  0.0563  0.6039
   44MOL   C50047026   5.320   5.904   7.927 -0.0422  0.4421 -0.6304
   44MOL   C50147027   5.352   5.784   7.859 -0.0650  0.0930 -0.6824
   44MOL   C50247028   5.365   5.666   7.937  0.2510  0.1945 -0.6612
   44MOL   C50347029   5.332   5.669   8.074  0.4247 -0.1876  0.2531
   44MOL   C50447030   5.332   5.542   8.165 -0.2541 -0.2349  0.5690
   44MOL   C50547031   5.409   5.567   0.035 -0.6278  0.3454  0.5873
   44MOL   C50647032   5.181   5.512   8.195  0.4154 -0.2585  0.1581
   44MOL   C50747033   5.392   5.426   8.087 -0.1465  0.1122 -0.4288
   44MOL   C50847034   5.532   5.426   8.062  0.6058  0.0350  0.6068
   44MOL   C50947035   5.592   5.335   7.973 -0.8008 -0.6566 -0.5463
   44MOL   C51047036   5.519   5.244   7.905  0.1266 -0.1327  0.0136
   44MOL   O51147037   5.569   5.160   7.811 -0.0818  0.1946  0.0635
   44MOL   C51247038   5.378   5.231   7.939 -0.3921  0.3666 -0.5147
   44MOL   C51347039   5.317   5.319   8.036 -0.2139 -0.1240 -0.2277
   44MOL   C51447040   5.297   5.794   8.135  0.4386  0.1107 -0.8695
   44MOL   C51547041   5.285   5.910   8.059 -0.0151  0.2298  0.1050
   44MOL   C51647042   5.396   6.152   7.690 -0.4716  0.4411 -0.0335
   44MOL   C51747043   5.505   6.238   7.646 -0.0718  1.2987 -0.3990
   44MOL   C51847044   5.993   6.306   7.604  0.3431 -0.1852 -0.5288
   44MOL   C51947045   6.088   6.216   7.545  0.5704 -0.7689  0.5993
   44MOL   H52047046   5.891   5.942   7.502  1.5590 -0.0843 -0.1630
   44MOL   H52147047   5.720   6.097   7.601  0.0230 -0.1524  0.8592
   44MOL   H52247048   5.673   6.263   7.945 -0.1967  0.2454  0.5473
   44MOL   H52347049   5.463   6.154   8.020  0.4367  0.9817  0.4727
   44MOL   H52447050   5.365   5.773   7.753 -0.9069 -0.3265 -0.7454
   44MOL   H52547051   5.384   5.570   7.893  1.1261  0.8220 -1.6622
   44MOL   H52647052   5.359   5.642   0.096 -0.3528  0.9598  0.0591
   44MOL   H52747053   5.512   5.600   0.030  0.8244 -3.5348  2.4312
   44MOL   H52847054   5.401   5.480   0.101  0.9608 -0.1464  0.1445
   44MOL   H52947055   5.131   5.580   0.011  0.5978 -0.4290  0.4555
   44MOL   H53047056   5.109   5.498   8.114  1.5838  2.3613 -1.4017
   44MOL   H53147057   5.175   5.414   8.240 -0.3165 -0.1005  0.4157
   44MOL   H53247058   5.587   5.507   8.107  0.9821  0.0926  0.0603
   44MOL   H53347059   5.696   5.343   7.948 -1.3828  0.1089 -2.8408
   44MOL   H53447060   5.314   5.152   7.904 -0.4456  0.3062 -0.2781
   44MOL   H53547061   5.211   5.304   8.046 -0.2230 -1.9675 -2.5796
   44MOL   H53647062   5.266   5.794   8.238  1.9048  0.2560 -0.4159
   44MOL   H53747063   5.247   5.998   8.108  0.0461  0.9128 -1.0506
   44MOL   H53847064   5.315   6.116   7.629  1.0934 -1.6108 -0.9676
   44MOL   H53947065   5.519   6.259   7.541 -0.7783  0.1020 -0.7431
   44MOL   H54047066   6.017   6.410   7.615 -3.1117  0.4840  1.5513
   44MOL   H54147067   6.187   6.251   7.521 -0.4624  2.6896  1.1672
   44MOL   C54247068   5.610   5.201   7.686 -0.3402  0.0322 -0.4271
   44MOL   C54347069   5.544   5.313   7.623 -0.3823 -0.2642 -0.1282
   44MOL   C54447070   5.597   5.363   7.501  0.1043  0.4201 -0.2965
   44MOL   C54547071   5.711   5.308   7.440  0.4559 -0.1751 -1.0342
   44MOL   S54647072   5.761   5.368   7.269 -0.1492 -0.2356  0.2882
   44MOL   O54747073   5.881   5.456   7.279  0.0434  0.7484 -0.4364
   44MOL   O54847074   5.643   5.439   7.212 -0.4660  0.0207 -0.4797
   44MOL   C54947075   5.809   5.222   7.174  1.0735 -0.2460 -0.6791
   44MOL   C55047076   5.705   5.144   7.119  0.1150 -0.0703 -0.0485
   44MOL   C55147077   5.736   5.045   7.023 -0.2595  0.7084  0.0225
   44MOL   C55247078   5.875   5.010   7.006  0.2113  0.7802 -0.5662
   44MOL   O55347079   5.917   4.914   6.917 -0.5996 -0.0149  0.4241
   44MOL   C55447080   5.827   4.820   6.876  0.0170  0.2782  0.4435
   44MOL   C55547081   5.799   4.712   6.957  0.1491 -0.1905 -0.5264
   44MOL   C55647082   5.728   4.603   6.900  0.0418 -0.0435  0.0499
   44MOL   C55747083   5.667   4.604   6.769 -0.1220 -0.2612  0.6423
   44MOL   C55847084   5.569   4.494   6.721  0.4761  1.0945 -0.2972
   44MOL   C55947085   5.607   4.351   6.770  0.0445 -0.6648 -0.0184
   44MOL   C56047086   5.431   4.531   6.783 -0.0877 -0.1783  0.2118
   44MOL   C56147087   5.550   4.486   6.566  0.2943 -0.3979  0.0717
   44MOL   C56247088   5.432   4.515   6.490 -0.5362  0.1345 -0.1716
   44MOL   C56347089   5.421   4.495   6.353 -0.5985  0.3252  0.0099
   44MOL   C56447090   5.543   4.466   6.278  0.6331 -0.3298 -0.1502
   44MOL   O56547091   5.539   4.443   6.139  0.4827  0.1563 -0.3341
   44MOL   C56647092   5.668   4.458   6.346  0.0078  0.4541 -0.5201
   44MOL   C56747093   5.666   4.459   6.488 -0.7301 -0.1617  0.3594
   44MOL   C56847094   5.693   4.721   6.693  0.1556 -0.5285  0.6576
   44MOL   C56947095   5.774   4.826   6.742 -0.1019 -0.1684  0.6889
   44MOL   C57047096   5.975   5.088   7.065 -0.4520  0.5302 -0.5804
   44MOL   C57147097   5.941   5.201   7.140 -0.5134 -0.0941 -0.5346
   44MOL   C57247098   5.784   5.209   7.511  0.1839 -0.1324  0.6983
   44MOL   C57347099   5.728   5.153   7.626 -0.2223  0.5274 -0.8053
   44MOL   H57447100   5.460   5.362   7.669 -0.6860 -1.7892  0.9813
   44MOL   H57547101   5.531   5.425   7.443 -1.4455  0.4654  1.4581
   44MOL   H57647102   5.606   5.187   7.130  0.8264  1.6498 -0.2490
   44MOL   H57747103   5.657   4.996   6.968  1.0537 -0.3737 -0.9427
   44MOL   H57847104   5.827   4.722   7.061  0.6639  0.4418 -0.7183
   44MOL   H57947105   5.702   4.520   6.963  2.5526 -1.1240 -0.2777
   44MOL   H58047106   5.566   4.341   6.871 -4.1623  0.5851 -1.4869
   44MOL   H58147107   5.715   4.339   6.760 -0.0906 -3.3536  1.2212
   44MOL   H58247108   5.550   4.275   6.716 -1.1390 -0.7994  1.4038
   44MOL   H58347109   5.425   4.533   6.892 -0.2970 -0.5409  0.2110
   44MOL   H58447110   5.398   4.624   6.738 -0.1142 -0.4939 -0.4208
   44MOL   H58547111   5.357   4.458   6.749 -0.9271  1.6150 -1.8766
   44MOL   H58647112   5.337   4.533   6.538 -1.7010  1.0864 -2.7690
   44MOL   H58747113   5.326   4.485   6.303  0.2887 -1.2437 -1.4234
   44MOL   H58847114   5.760   4.426   6.297  1.1886  0.2956  1.7354
   44MOL   H58947115   5.762   4.457   6.537 -2.1406 -1.6446  3.2412
   44MOL   H59047116   5.644   4.728   6.597 -1.4920  2.1915  1.6451
   44MOL   H59147117   5.800   4.916   6.688  0.6940 -0.0942  1.1849
   44MOL   H59247118   6.080   5.071   7.047 -0.6710 -1.8580  0.3175
   44MOL   H59347119   6.018   5.264   7.183  0.4951 -1.6601  0.0084
   44MOL   H59447120   5.872   5.165   7.466 -1.3282 -1.4975 -1.0627
   44MOL   H59547121   5.782   5.073   7.674 -0.9008  0.3603 -0.3152
   44MOL   C59647122   5.482   4.540   6.064  0.4832 -0.3565  1.4185
   44MOL   C59747123   5.338   4.535   6.037 -0.3115  0.5395 -0.3440
   44MOL   C59847124   5.274   4.632   5.955  0.0496  0.9227  0.4188
   44MOL   C59947125   5.357   4.734   5.906  0.3252 -0.1575  0.8666
   44MOL   S60047126   5.287   4.858   5.794 -0.3110  0.0728 -0.1637
   44MOL   O60147127   5.270   4.798   5.663  0.1807 -0.1070  0.2344
   44MOL   O60247128   5.369   4.977   5.815  0.7100  0.4935 -0.4411
   44MOL   C60347129   5.129   4.894   5.859  0.1090  0.0191 -0.6088
   44MOL   C60447130   5.121   4.967   5.979 -0.0322  0.1887  0.2306
   44MOL   C60547131   4.998   4.993   6.026  0.5256  0.1910  0.0160
   44MOL   C60647132   4.882   4.940   5.971 -0.5595  0.3709 -0.8659
   44MOL   O60747133   4.761   4.965   6.034 -0.0220  0.5582  0.4468
   44MOL   C60847134   4.743   4.935   6.169 -0.3653  0.5552 -0.5897
   44MOL   C60947135   4.699   5.035   6.256  0.0850 -0.5567 -0.5525
   44MOL   C61047136   4.664   4.995   6.388 -0.2211  0.5597  0.6202
   44MOL   C61147137   4.679   4.861   6.435 -0.4063  0.3461 -0.4202
   44MOL   C61247138   4.612   4.817   6.569 -0.0572 -0.7617 -0.0323
   44MOL   C61347139   4.624   4.665   6.588 -0.6057 -0.6657 -0.2777
   44MOL   C61447140   4.667   4.894   6.677 -0.6401  0.1967 -0.5776
   44MOL   C61547141   4.464   4.852   6.544  0.2740 -0.2108 -0.0827
   44MOL   C61647142   4.403   4.820   6.421  0.3272  0.8840 -0.4064
   44MOL   C61747143   4.270   4.846   6.401 -0.0926 -0.1909  0.1926
   44MOL   C61847144   4.195   4.918   6.497 -0.0349 -0.0275  0.2788
   44MOL   O61947145   4.062   4.941   6.479 -0.0981 -0.1628  0.0892
   44MOL   C62047146   4.252   4.945   6.619  0.2569  0.1247  0.8380
   44MOL   C62147147   4.387   4.919   6.641  0.1098  0.4753 -0.1590
   44MOL   C62247148   4.754   4.773   6.352  0.5812 -0.5690  0.0923
   44MOL   C62347149   4.773   4.811   6.217 -0.0324 -0.6016 -0.0629
   44MOL   C62447150   4.887   4.870   5.851 -0.0337  1.0417  0.6532
   44MOL   C62547151   5.016   4.852   5.791  0.1179 -0.3542 -0.1246
   44MOL   C62647152   5.498   4.736   5.913  0.8336 -0.5879 -0.6939
   44MOL   C62747153   5.557   4.644   6.003  0.2172  0.1047  0.0869
   44MOL   H62847154   5.283   4.456   6.086  2.1744 -1.0105  0.0585
   44MOL   H62947155   5.170   4.621   5.927  0.4273 -2.0052 -0.0833
   44MOL   H63047156   5.206   4.998   6.039 -1.9177  1.7713  2.1654
   44MOL   H63147157   4.976   5.043   6.119  0.1067 -1.0273  0.5813
   44MOL   H63247158   4.680   5.136   6.223  0.7217 -0.1303  0.3712
   44MOL   H63347159   4.624   5.074   6.450 -0.2659 -0.7163  2.2601
   44MOL   H63447160   4.563   4.655   6.678 -2.8809 -0.1047 -1.7310
   44MOL   H63547161   4.728   4.641   6.611 -0.3041  0.1900 -0.7526
   44MOL   H63647162   4.594   4.614   6.497  0.3167  0.4076 -1.2030
   44MOL   H63747163   4.653   5.001   6.662  2.5682  0.8405  0.5305
   44MOL   H63847164   4.626   4.861   6.773 -2.1008 -0.7359 -1.5165
   44MOL   H63947165   4.773   4.872   6.688 -0.6258  0.0049 -1.1316
   44MOL   H64047166   4.456   4.766   6.344 -1.4252  0.2897 -1.2199
   44MOL   H64147167   4.223   4.809   6.310  0.4303 -4.7111  1.6594
   44MOL   H64247168   4.192   5.001   6.690 -1.7620  0.7252 -1.2611
   44MOL   H64347169   4.424   4.954   6.736  2.1626  1.9854 -1.4592
   44MOL   H64447170   4.785   4.677   6.392 -0.0719 -1.4556 -1.4657
   44MOL   H64547171   4.829   4.741   6.156 -0.5774  1.1190 -2.5902
   44MOL   H64647172   4.796   4.840   5.802 -0.8904  1.9016  1.6684
   44MOL   H64747173   5.034   4.804   5.696  1.9940  2.6696 -1.3785
   44MOL   H64847174   5.550   4.820   5.871 -1.4898  1.4593  0.3863
   44MOL   H64947175   5.665   4.643   6.014  0.2964 -0.1101 -0.6828
   44MOL   C65047176   4.009   4.959   6.353 -0.3878  0.2224 -0.1800
   44MOL   C65147177   4.041   5.074   6.276  0.2084  0.2150  0.5494
   44MOL   C65247178   4.001   5.085   6.140  0.3069  0.6633 -0.1773
   44MOL   C65347179   3.929   4.973   6.087 -0.2243  0.1867  0.2673
   44MOL   S65447180   3.854   4.974   5.930 -0.4591  0.0613  0.1585
   44MOL   O65547181   3.881   4.839   5.871  0.5531  0.5403 -0.4778
   44MOL   O65647182   3.907   5.091   5.862 -0.4921 -1.2336 -0.2657
   44MOL   C65747183   3.676   4.996   5.954  0.2097 -0.5695  0.2737
   44MOL   C65847184   3.602   5.085   5.870 -0.6395  0.7875  0.8778
   44MOL   C65947185   3.467   5.103   5.887 -0.0763  0.4378  0.1722
   44MOL   C66047186   3.394   5.037   5.989 -0.6289 -0.0475  0.5476
   44MOL   O66147187   3.260   5.065   6.016 -0.3613  0.0387  0.3564
   44MOL   C66247188   3.170   4.986   5.949 -0.4868 -0.4681  0.1689
   44MOL   C66347189   3.133   5.019   5.818 -0.4664  0.5530  0.2237
   44MOL   C66447190   3.034   4.940   5.751 -0.1026 -0.1487  0.6773
   44MOL   C66547191   2.972   4.831   5.815 -0.4013 -0.5004  0.5032
   44MOL   C66647192   2.872   4.749   5.749  0.3554 -0.3578  0.7650
   44MOL   C66747193   2.745   4.834   5.730  0.3484 -0.0940 -0.4106
   44MOL   C66847194   2.907   4.713   5.605 -0.7007 -0.1887 -0.8168
   44MOL   C66947195   2.839   4.614   5.820 -0.0692  0.2237 -0.6687
   44MOL   C67047196   2.943   4.512   5.832  0.2203 -0.9693  0.2010
   44MOL   C67147197   2.919   4.391   5.896 -0.0267  0.0621  0.3471
   44MOL   C67247198   2.794   4.362   5.951 -0.8764  0.7253 -0.1471
   44MOL   O67347199   2.770   4.242   6.015 -0.0805 -0.0532  0.4378
   44MOL   C67447200   2.691   4.456   5.932 -0.0914  0.0110 -0.0384
   44MOL   C67547201   2.710   4.585   5.874  0.2798 -0.6263  0.4308
   44MOL   C67647202   3.001   4.802   5.952  0.0643  0.3814  1.0340
   44MOL   C67747203   3.101   4.878   6.015  0.6208  0.4083  0.4221
   44MOL   C67847204   3.469   4.950   6.072  0.4718 -0.5187  0.0357
   44MOL   C67947205   3.607   4.935   6.065  0.4598  0.9755  0.5970
   44MOL   C68047206   3.897   4.860   6.169 -0.2759  0.7420  0.1737
   44MOL   C68147207   3.937   4.857   6.298  0.0817  0.3921 -0.6274
   44MOL   H68247208   4.107   5.148   6.316  1.1799 -1.5977  2.3910
   44MOL   H68347209   4.035   5.170   6.082 -1.7468  1.8547  0.3240
   44MOL   H68447210   3.657   5.139   5.795 -0.5256 -2.7178 -1.6923
   44MOL   H68547211   3.417   5.171   5.821  0.1502 -0.2304 -0.6980
   44MOL   H68647212   3.191   5.093   5.765 -0.4413 -0.1890 -0.7874
   44MOL   H68747213   3.008   4.974   5.652 -0.6097 -2.6101 -0.0534
   44MOL   H68847214   2.692   4.872   5.818  0.7061 -1.7375  0.5422
   44MOL   H68947215   2.667   4.780   5.676  1.2099 -3.2667  1.4011
   44MOL   H69047216   2.760   4.921   5.666  3.6126  0.9023  1.5878
   44MOL   H69147217   2.992   4.646   5.616 -0.5241 -0.0500 -1.3228
   44MOL   H69247218   2.827   4.648   5.568  0.0450 -0.5977 -1.7378
   44MOL   H69347219   2.916   4.786   5.525 -1.7341  1.3144  0.4256
   44MOL   H69447220   3.028   4.522   5.766 -2.3415  1.0669 -2.9527
   44MOL   H69547221   3.002   4.323   5.910  0.5740  0.6091 -0.5061
   44MOL   H69647222   2.591   4.435   5.968  0.9745 -3.4381  1.1365
   44MOL   H69747223   2.638   4.665   5.875 -0.9727 -1.7437  1.4230
   44MOL   H69847224   2.951   4.725   6.009 -0.5464  0.0784  0.0981
   44MOL   H69947225   3.132   4.876   6.119 -0.8459  0.5990  0.8732
   44MOL   H70047226   3.416   4.882   6.138  0.0290 -0.5561 -0.3583
   44MOL   H70147227   3.641   4.860   6.134 -0.3133  0.2160  0.1630
   44MOL   H70247228   3.847   4.771   6.134  2.2029 -0.7461  0.3200
   44MOL   H70347229   3.915   4.771   6.360 -0.6541 -0.2525 -1.7780
   44MOL   C70447230   2.800   4.235   6.150 -0.4979 -0.3408 -0.2570
   44MOL   C70547231   2.923   4.269   6.209 -0.4138  0.4300  0.7115
   44MOL   C70647232   2.947   4.249   6.345  0.3652  0.1309  0.1282
   44MOL   C70747233   2.839   4.207   6.432 -0.1204  0.6247  0.5528
   44MOL   S70847234   2.863   4.193   6.608 -0.1459 -0.0045 -0.2109
   44MOL   O70947235   2.961   4.090   6.630  0.7510  0.4048 -0.0545
   44MOL   O71047236   2.738   4.183   6.684 -0.0485  0.3142 -0.6510
   44MOL   C71147237   2.941   4.351   6.658 -0.3078  0.8682  0.1601
   44MOL   C71247238   2.863   4.463   6.687  0.9490 -0.4422  0.2479
   44MOL   C71347239   2.925   4.575   6.745 -0.1330  0.2971 -0.1930
   44MOL   C71447240   3.062   4.573   6.774 -0.5616 -0.7030  0.6390
   44MOL   O71547241   3.117   4.688   6.821  0.2736  0.2462 -0.4164
   44MOL   C71647242   3.235   4.728   6.763  0.2704 -0.2226  0.7055
   44MOL   C71747243   3.360   4.706   6.822  0.6328  0.3082  0.4497
   44MOL   C71847244   3.474   4.749   6.751 -0.5405  0.0826  0.6616
   44MOL   C71947245   3.467   4.808   6.622 -0.6130  0.1899 -0.2505
   44MOL   C72047246   3.591   4.858   6.552  0.1568 -0.2904  0.3345
   44MOL   C72147247   3.567   4.886   6.406 -0.0767  0.1695  0.4415
   44MOL   C72247248   3.632   4.989   6.615 -0.3757 -0.3477  0.0533
   44MOL   C72347249   3.704   4.749   6.563  0.1225 -0.2211  0.2907
   44MOL   C72447250   3.831   4.775   6.613 -0.2621 -0.4669 -0.4128
   44MOL   C72547251   3.932   4.673   6.628 -0.1298 -0.1145  0.0812
   44MOL   C72647252   3.901   4.540   6.594 -0.0230  0.1401 -0.0661
   44MOL   O72747253   3.992   4.438   6.615  0.5719  0.2842 -0.6381
   44MOL   C72847254   3.785   4.517   6.524  0.3218 -0.7570 -0.3145
   44MOL   C72947255   3.679   4.617   6.521  0.2459  0.3576 -0.2061
   44MOL   C73047256   3.338   4.819   6.567 -0.7047  0.5763 -0.6214
   44MOL   C73147257   3.221   4.787   6.635 -0.1556  0.0826 -0.4829
   44MOL   C73247258   3.140   4.465   6.741 -0.1334  0.2574 -0.0338
   44MOL   C73347259   3.077   4.352   6.689 -0.7153  0.0023  0.4101
   44MOL   C73447260   2.712   4.180   6.378  0.4089  0.0949 -0.5931
   44MOL   C73547261   2.697   4.184   6.232 -0.4305 -0.7173 -0.3187
   44MOL   H73647262   2.995   4.309   6.139 -0.3883 -1.0093 -0.0908
   44MOL   H73747263   3.045   4.274   6.384 -0.3461  1.9113  0.8110
   44MOL   H73847264   2.756   4.469   6.675  0.8148  0.5999  1.8392
   44MOL   H73947265   2.866   4.662   6.772 -1.0931  0.1687 -1.7993
   44MOL   H74047266   3.376   4.662   6.920  2.5479  0.2730  0.1512
   44MOL   H74147267   3.575   4.742   6.789 -0.5610 -0.3361  0.6390
   44MOL   H74247268   3.661   4.909   6.354  0.6742 -0.1426  1.6334
   44MOL   H74347269   3.498   4.970   6.399 -1.1077 -0.6577  0.6441
   44MOL   H74447270   3.523   4.798   6.360  0.3880 -0.5636  1.3723
   44MOL   H74547271   3.715   5.040   6.566 -0.8871 -0.2071 -0.6583
   44MOL   H74647272   3.549   5.056   6.638  0.3466  0.5008  0.2232
   44MOL   H74747273   3.667   4.958   6.714  1.5970 -0.6311 -0.7084
   44MOL   H74847274   3.856   4.876   6.645  0.8464 -0.4886 -1.1845
   44MOL   H74947275   4.024   4.704   6.675  0.2768 -1.5653  0.2368
   44MOL   H75047276   3.753   4.427   6.474  0.9737  0.2172 -2.5125
   44MOL   H75147277   3.591   4.584   6.468  0.1019 -0.4803  0.5566
   44MOL   H75247278   3.328   4.860   6.468 -1.2092  0.9762 -0.4074
   44MOL   H75347279   3.119   4.803   6.602 -1.1353  0.4113  2.5289
   44MOL   H75447280   3.246   4.468   6.761 -0.4156  1.9723  1.3402
   44MOL   H75547281   3.144   4.273   6.656  1.5836  2.3990 -0.7966
   44MOL   H75647282   2.642   4.132   6.446  1.7049 -0.2784  0.5104
   44MOL   H75747283   2.601   4.161   6.188 -1.1119 -0.1493  0.8442
   44MOL   C75847284   4.007   4.390   6.743 -0.7215  0.1555  0.6287
   44MOL   C75947285   4.109   4.304   6.773  0.2342 -0.2750 -0.3093
   44MOL   C76047286   4.110   4.234   6.896 -0.6768 -0.1088 -0.8649
   44MOL   C76147287   4.011   4.265   6.993  0.1047  0.4830 -0.1246
   44MOL   S76247288   4.008   4.161   7.139  0.1976 -0.5163  0.2101
   44MOL   O76347289   3.885   4.181   7.210 -0.4626  0.3741  0.4137
   44MOL   O76447290   4.131   4.169   7.219 -0.1540 -0.2793  0.2998
   44MOL   C76547291   3.991   4.001   7.077 -0.0994 -0.4391 -0.1316
   44MOL   C76647292   4.103   3.912   7.094  0.2992  0.5110 -0.5478
   44MOL   C76747293   4.098   3.781   7.036  0.2514  0.3845 -0.6338
   44MOL   C76847294   3.983   3.736   6.975 -0.1406 -0.1766  0.0232
   44MOL   O76947295   3.969   3.610   6.919  0.0145 -0.3236  0.9817
   44MOL   C77047296   4.020   3.495   6.978 -0.3021 -0.1954 -0.6503
   44MOL   C77147297   4.058   3.392   6.894  0.0234 -0.3410  0.2815
   44MOL   C77247298   4.122   3.276   6.944  0.2237 -0.1219 -0.4011
   44MOL   C77347299   4.141   3.259   7.082 -0.5145  0.0344  0.2095
   44MOL   C77447300   4.194   3.129   7.131 -0.6238 -0.4239  0.6008
   44MOL   C77547301   4.352   3.138   7.089 -0.5839 -0.4329 -0.2665
   44MOL   C77647302   4.183   3.113   7.282  0.3900  0.1537 -0.2006
   44MOL   C77747303   4.121   3.013   7.058  0.3028 -0.1521 -0.0991
   44MOL   C77847304   3.978   3.007   7.067  0.9209  0.0084 -0.0174
   44MOL   C77947305   3.903   2.894   7.020 -0.2935 -0.8128 -0.0982
   44MOL   C78047306   3.972   2.790   6.951 -0.8301 -0.4173  0.0761
   44MOL   O78147307   3.911   2.690   6.888  0.6083  0.3808  0.6729
   44MOL   C78247308   4.111   2.806   6.928  0.1574  0.4237  0.4965
   44MOL   C78347309   4.184   2.911   6.980 -0.1832 -0.0175  0.3696
   44MOL   C78447310   4.094   3.362   7.165  0.8357 -0.1658  0.2758
   44MOL   C78547311   4.037   3.479   7.114 -0.6620  0.5608 -0.1199
   44MOL   C78647312   3.872   3.830   6.961  0.4397  0.0357  0.1829
   44MOL   C78747313   3.873   3.963   7.015  0.4332 -0.3176 -0.0751
   44MOL   C78847314   3.906   4.346   6.961  0.4001 -0.4091  0.6859
   44MOL   C78947315   3.907   4.413   6.839  0.4708 -0.5676  0.0065
   44MOL   H79047316   4.172   4.267   6.694 -0.2163 -0.8633 -0.4021
   44MOL   H79147317   4.184   4.156   6.906 -1.3782 -0.6645  0.1012
   44MOL   H79247318   4.189   3.953   7.145 -0.2994 -0.1157  1.0148
   44MOL   H79347319   4.184   3.716   7.042 -0.6311 -0.6031  1.7781
   44MOL   H79447320   4.048   3.409   6.788  3.5797  0.0896 -0.0695
   44MOL   H79547321   4.152   3.202   6.872 -0.8211  0.9068 -1.9090
   44MOL   H79647322   4.369   3.151   6.982  1.4345 -0.1092  0.0818
   44MOL   H79747323   4.420   3.059   7.119 -0.0618  0.0279 -0.2251
   44MOL   H79847324   4.397   3.220   7.144 -1.8646 -1.0942  1.8233
   44MOL   H79947325   4.081   3.130   7.316  1.1204 -0.3513  2.3474
   44MOL   H80047326   4.213   3.023   7.336  0.5200  0.9295  1.0464
   44MOL   H80147327   4.246   3.183   7.336  0.7665 -1.3868  1.3969
   44MOL   H80247328   3.920   3.082   7.119 -2.0468  0.6702 -4.0887
   44MOL   H80347329   3.796   2.891   7.035  0.0803 -0.4048  3.2289
   44MOL   H80447330   4.163   2.736   6.865  0.3721  2.0979 -1.2272
   44MOL   H80547331   4.287   2.926   6.955 -0.8117 -0.9717 -2.9275
   44MOL   H80647332   4.108   3.355   7.272  0.5519 -0.4953  0.2891
   44MOL   H80747333   4.000   3.554   7.181 -2.4138 -1.7638  1.6148
   44MOL   H80847334   3.783   3.802   6.907 -1.1505  1.8019  1.8370
   44MOL   H80947335   3.793   4.034   7.000  0.7593  0.6856  2.5668
   44MOL   H81047336   3.821   4.351   7.028 -0.0571 -1.2786  0.1912
   44MOL   H81147337   3.823   4.480   6.825  0.4681 -0.8021 -1.0856
   44MOL   C81247338   3.773   2.678   6.868  0.8801  0.0665 -0.0937
   44MOL   C81347339   3.713   2.774   6.788 -0.0925  0.6889 -0.2783
   44MOL   C81447340   3.574   2.755   6.759  0.1917 -0.1201  0.4164
   44MOL   C81547341   3.505   2.638   6.787 -0.1270 -0.6022 -0.2155
   44MOL   S81647342   3.335   2.621   6.744 -0.1222  0.4962  0.2112
   44MOL   O81747343   3.304   2.485   6.709  0.8767  0.4730 -0.2635
   44MOL   O81847344   3.328   2.723   6.642  0.5643  0.0580 -0.2153
   44MOL   C81947345   3.223   2.664   6.881 -0.2375  0.2109 -0.2155
   44MOL   C82047346   3.142   2.566   6.934 -0.7312  0.3332 -0.4025
   44MOL   C82147347   3.056   2.593   7.042  0.0213  1.0515 -0.3097
   44MOL   C82247348   3.041   2.726   7.085 -0.0131 -0.1899 -0.3435
   44MOL   O82347349   2.947   2.745   7.182  0.2156  0.9871  0.0710
   44MOL   C82447350   2.946   2.867   7.250  0.7687 -0.1312  0.1380
   44MOL   C82547351   2.970   2.866   7.392  0.2576 -0.5895 -0.0401
   44MOL   C82647352   2.977   2.986   7.464 -0.0878 -0.0286 -0.3494
   44MOL   C82747353   2.955   3.111   7.396 -0.5958 -0.0468  0.8206
   44MOL   C82847354   2.964   3.245   7.478  0.5778  0.5281  0.3719
   44MOL   C82947355   3.110   3.255   7.527 -0.0108  0.7864 -0.7291
   44MOL   C83047356   2.945   3.367   7.389 -1.1847 -0.5349 -0.0802
   44MOL   C83147357   2.850   3.247   7.582 -0.6232 -0.2673 -0.5331
   44MOL   C83247358   2.858   3.305   7.709  0.3014 -0.5503  0.3148
   44MOL   C83347359   2.752   3.300   7.806  0.2530 -0.1765  0.8061
   44MOL   C83447360   2.628   3.249   7.761 -0.3704  0.2383 -0.1615
   44MOL   O83547361   2.519   3.255   7.848 -0.5719  0.3382 -0.0537
   44MOL   C83647362   2.620   3.184   7.642  0.2291  0.0990  0.2026
   44MOL   C83747363   2.725   3.185   7.558 -0.4964  0.4773  0.1588
   44MOL   C83847364   2.927   3.105   7.255 -0.2120 -0.1170  0.1970
   44MOL   C83947365   2.916   2.986   7.184  0.7040  0.9155 -0.8237
   44MOL   C84047366   3.125   2.822   7.023  0.5106 -0.2125 -0.2660
   44MOL   C84147367   3.213   2.796   6.925 -0.5302  0.5798 -0.8885
   44MOL   C84247368   3.574   2.537   6.853  0.2129 -0.2436  0.1409
   44MOL   C84347369   3.708   2.559   6.899  0.2265 -0.6732  0.7136
   44MOL   H84447370   3.757   2.867   6.756  1.0094  0.5055  0.6638
   44MOL   H84547371   3.526   2.831   6.700  0.1503  0.9783  1.8243
   44MOL   H84647372   3.149   2.466   6.893  0.9459  0.7243 -1.1086
   44MOL   H84747373   2.997   2.512   7.081 -0.3801  0.9852 -1.0363
   44MOL   H84847374   3.002   2.773   7.436  0.6545 -0.7576 -0.6650
   44MOL   H84947375   3.011   2.985   7.566  1.5768  0.9865 -0.8659
   44MOL   H85047376   3.120   3.346   7.585  0.3689 -0.4472  1.1978
   44MOL   H85147377   3.184   3.262   7.448  3.0360  0.4792  1.9697
   44MOL   H85247378   3.147   3.170   7.586 -1.0968  0.3150 -0.7196
   44MOL   H85347379   3.004   3.382   7.299  0.7208  2.0608  1.5391
   44MOL   H85447380   2.840   3.380   7.364 -1.5258 -0.3205  1.4191
   44MOL   H85547381   2.975   3.450   7.453  0.5089  0.4209 -2.0449
   44MOL   H85647382   2.950   3.353   7.738  0.5230 -0.1335 -1.0397
   44MOL   H85747383   2.765   3.346   7.903  1.4201  0.5209  0.3339
   44MOL   H85847384   2.531   3.136   7.603 -2.4840 -0.2952  6.2945
   44MOL   H85947385   2.725   3.145   7.458 -0.4985  1.5435 -0.2772
   44MOL   H86047386   2.903   3.198   7.205 -1.9023  0.1523  1.4627
   44MOL   H86147387   2.895   2.991   7.079 -0.0195  3.3879 -0.5836
   44MOL   H86247388   3.119   2.926   7.054  0.4139 -0.3767  0.2665
   44MOL   H86347389   3.278   2.878   6.899  2.3624 -1.6748 -1.0420
   44MOL   H86447390   3.521   2.445   6.870 -0.1165  0.0144  0.5292
   44MOL   H86547391   3.761   2.476   6.944  2.4025  0.5621  0.5349
   44MOL   C86647392   2.447   3.145   7.892 -0.0866 -0.4356  0.3206
   44MOL   C86747393   2.501   3.017   7.893 -0.1994  0.6036  0.4535
   44MOL   C86847394   2.436   2.913   7.962 -0.2752  0.6624 -0.0831
   44MOL   C86947395   2.307   2.925   8.008 -0.2866  0.0950 -0.0602
   44MOL   S87047396   2.220   2.789   8.084 -0.2554 -0.1741  0.2039
   44MOL   O87147397   2.126   2.742   7.984  0.0842  0.8684 -0.0479
   44MOL   O87247398   2.161   2.849   8.206 -0.2868  0.0281 -0.5145
   44MOL   C87347399   2.329   2.653   8.121 -0.1550 -0.7418  0.6248
   44MOL   C87447400   2.331   2.606   8.251  0.2583  0.6292 -0.7212
   44MOL   C87547401   2.420   2.504   0.032  0.2803 -0.5589  0.2127
   44MOL   C87647402   2.491   2.442   8.182 -0.4188  0.3266 -0.5794
   44MOL   O87747403   2.581   2.341   8.205 -0.1570  0.4697  0.9345
   44MOL   C87847404   2.527   2.216   8.215 -0.3215  0.9253  0.2783
   44MOL   C87947405   2.493   2.166   0.089  0.8725 -0.1584  0.5748
   44MOL   C88047406   2.440   2.037   0.099  0.3119 -0.3105  0.2973
   44MOL   C88147407   2.432   1.956   8.230 -0.2185  0.2026 -0.4132
   44MOL   C88247408   2.367   1.817   8.246 -0.0159 -0.1194 -0.2807
   44MOL   C88347409   2.353   1.745   8.107 -0.1937 -0.7701 -0.4328
   44MOL   C88447410   2.462   1.731   0.078 -0.4181 -0.0113 -0.1644
   44MOL   C88547411   2.224   1.828   0.050  0.1333  0.2037  0.5921
   44MOL   C88647412   2.141   1.932   0.006  0.3964  0.6973 -0.3463
   44MOL   C88747413   2.010   1.946   0.065  0.1230 -0.1381  0.7199
   44MOL   C88847414   1.963   1.853   0.165  0.3919 -0.0290 -0.3144
   44MOL   O88947415   1.834   1.857   0.208 -0.7734 -0.1520 -0.2379
   44MOL   C89047416   2.049   1.750   0.202  0.1813  0.7058  0.3147
   44MOL   C89147417   2.177   1.734   0.145 -0.3580  0.6146  0.2534
   44MOL   C89247418   2.472   2.009   8.108 -0.3589  0.0675  0.4736
   44MOL   C89347419   2.506   2.138   8.095 -0.4291  0.1878  0.3896
   44MOL   C89447420   2.483   2.484   8.049 -0.6226 -0.2696  1.0162
   44MOL   C89547421   2.393   2.589   8.012  0.2411  0.7421  0.8620
   44MOL   C89647422   2.241   3.050   7.990  0.0325  0.0998  0.0675
   44MOL   C89747423   2.315   3.159   7.938 -0.0004 -0.0192  0.4638
   44MOL   H89847424   2.602   2.990   7.863 -0.3407  1.1324 -0.5499
   44MOL   H89947425   2.483   2.818   7.943 -0.7760  0.5730 -0.8992
   44MOL   H90047426   2.263   2.645   0.072 -0.0383 -0.7581 -0.2454
   44MOL   H90147427   2.431   2.479   0.137  0.5530 -0.8538  0.1138
   44MOL   H90247428   2.510   2.217   0.183 -1.6237  2.8806 -0.5315
   44MOL   H90347429   2.427   1.989   0.194 -0.6349 -2.4963 -0.9027
   44MOL   H90447430   2.309   1.649   8.133  2.8509 -2.4722 -1.3230
   44MOL   H90547431   2.451   1.733   8.060 -0.7872 -2.8465 -1.2231
   44MOL   H90647432   2.284   1.806   8.048  0.4604  0.3970 -0.0093
   44MOL   H90747433   2.564   1.722   0.044 -0.2060  0.9400  0.2017
   44MOL   H90847434   2.470   1.780   0.175 -0.1600  2.2015 -1.2787
   44MOL   H90947435   2.425   1.630   0.097 -1.6242  0.8991  2.7778
   44MOL   H91047436   2.184   2.006   8.195 -1.0160  3.0190  1.2955
   44MOL   H91147437   1.953   2.034   0.038 -1.0385 -1.0463  0.1409
   44MOL   H91247438   2.011   1.674   0.269  2.9379 -1.6177 -0.6408
   44MOL   H91347439   2.234   1.646   0.171 -0.8437  0.1943 -0.1181
   44MOL   H91447440   2.475   1.955   8.014  2.4896 -0.0421  0.6017
   44MOL   H91547441   2.543   2.181   8.003  0.3750  2.2212  1.6409
   44MOL   H91647442   2.544   2.434   7.975 -0.9545  1.1368 -0.2207
   44MOL   H91747443   2.374   2.629   7.914  1.4329  1.6358  0.9887
   44MOL   H91847444   2.139   3.050   8.026  0.0728 -3.3744  0.3408
   44MOL   H91947445   2.271   3.257   7.949  1.2265  0.3659  2.1250
   44MOL   C92047446   1.796   1.942   0.303 -0.3673  0.0673  0.2009
   44MOL   C92147447   1.879   2.044   0.359 -0.2577  0.4343 -0.1417
   44MOL   C92247448   1.830   2.131   0.455  0.0306  0.6776 -0.7742
   44MOL   C92347449   1.702   2.119   0.498  0.4332  0.3677  0.0979
   44MOL   S92447450   1.628   2.222   0.629 -0.4193  0.1185 -0.5429
   44MOL   O92547451   1.598   2.126   0.734  0.5149  0.4477 -0.1994
   44MOL   O92647452   1.517   2.300   0.576  0.2014 -0.8460 -0.1209
   44MOL   C92747453   1.745   2.335   0.693 -1.5021 -0.1661 -0.2961
   44MOL   C92847454   1.864   2.282   0.754  0.9229 -0.1492  1.0759
   44MOL   C92947455   1.952   2.369   0.813 -0.2282 -0.2077  0.2747
   44MOL   C93047456   1.927   2.511   0.806  0.5997 -0.1629  0.1873
   44MOL   O93147457   2.017   2.601   0.847 -0.2274 -0.8381  0.3671
   44MOL   C93247458   2.038   2.620   0.975  0.2199 -0.3608 -0.5316
   44MOL   C93347459   1.931   2.641   1.070  0.2206  0.6717  0.3487
   44MOL   C93447460   1.945   2.649   1.205  0.4214 -0.1719 -0.6349
   44MOL   C93547461   2.079   2.652   1.264 -0.1016 -0.6508  0.2364
   44MOL   C93647462   2.099   2.670   1.414  0.2302 -0.2534  0.1741
   44MOL   C93747463   1.997   2.572   1.486 -0.0164  0.0900 -0.0701
   44MOL   C93847464   2.247   2.618   1.453  0.4090  0.2457  0.0941
   44MOL   C93947465   2.082   2.818   1.464 -0.1435  0.2343 -1.1695
   44MOL   C94047466   2.176   2.913   1.431 -0.0812  0.8032 -0.0246
   44MOL   C94147467   2.157   3.043   1.455  0.0951  0.3965 -0.1971
   44MOL   C94247468   2.040   3.095   1.516  0.2400  0.1995 -0.0945
   44MOL   O94347469   2.011   3.232   1.537  0.3458 -0.5735  0.3794
   44MOL   C94447470   1.938   3.001   1.544  0.1920 -0.0894  0.3450
   44MOL   C94547471   1.963   2.863   1.529  0.5911  0.6662  0.2594
   44MOL   C94647472   2.184   2.650   1.167  0.3131  0.4708 -0.3366
   44MOL   C94747473   2.168   2.633   1.030 -0.2305  0.2132 -0.1255
   44MOL   C94847474   1.808   2.562   0.743  0.1178 -0.5175  0.4185
   44MOL   C94947475   1.719   2.471   0.689  0.3420  0.4844 -0.1553
   44MOL   C95047476   1.619   2.011   0.456 -0.4143 -0.6191  0.7753
   44MOL   C95147477   1.673   1.927   0.361  0.1309  0.1917  0.3031
   44MOL   H95247478   1.979   2.070   0.327 -0.4247  0.9287 -0.2631
   44MOL   H95347479   1.897   2.205   0.496  2.2476 -0.0656 -2.8969
   44MOL   H95447480   1.878   2.177   0.769  2.2017 -0.3255 -1.0415
   44MOL   H95547481   2.036   2.330   0.869 -1.3816 -0.6937  1.6821
   44MOL   H95647482   1.832   2.636   1.027 -0.0199  1.1917  0.8323
   44MOL   H95747483   1.859   2.667   1.267  0.1396 -1.1550 -0.7377
   44MOL   H95847484   2.016   2.553   1.592 -1.9698 -1.9889 -0.0503
   44MOL   H95947485   1.994   2.467   1.456  0.2798 -0.1973  0.8788
   44MOL   H96047486   1.896   2.610   1.469  0.0561  0.1496 -0.3619
   44MOL   H96147487   2.333   2.672   1.414  1.0861 -0.1327  1.0477
   44MOL   H96247488   2.274   2.610   1.558  1.2831  0.6172 -0.0975
   44MOL   H96347489   2.261   2.515   1.418 -0.7458  0.0582  0.1639
   44MOL   H96447490   2.273   2.886   1.390 -0.2843 -0.8535  0.5362
   44MOL   H96547491   2.237   3.111   1.430  1.8940 -0.6774  2.3752
   44MOL   H96647492   1.847   3.030   1.594  0.4897  0.8094  0.3691
   44MOL   H96747493   1.882   2.795   1.550 -1.8233  2.7881 -1.8355
   44MOL   H96847494   2.288   2.669   1.190  1.3603 -2.0749 -2.6520
   44MOL   H96947495   2.257   2.632   0.968 -0.8967  1.6098 -1.1455
   44MOL   H97047496   1.798   2.668   0.728  2.9690 -0.4207 -1.3492
   44MOL   H97147497   1.630   2.505   0.638 -0.5845 -0.0445  1.1040
   44MOL   H97247498   1.520   2.005   0.499 -0.0581  0.4806  1.7874
   44MOL   H97347499   1.606   1.849   0.325  0.1188  0.2004  0.3064
   44MOL   C97447500   2.078   3.327   1.468  0.0161 -0.2349  0.6834
   44MOL   C97547501   2.095   3.320   1.326  0.0241  0.1419 -0.1483
   44MOL   C97647502   2.159   3.428   1.254  0.3657 -0.0167 -0.1605
   44MOL   C97747503   2.194   3.549   1.325  0.4031  0.2621 -0.4912
   44MOL   S97847504   2.267   3.696   1.249 -0.2337  0.2666  0.1277
   44MOL   O97947505   2.402   3.706   1.303 -0.0033  0.0524  0.2542
   44MOL   O98047506   2.169   3.806   1.261  0.2513  0.6734  0.3085
   44MOL   C98147507   2.276   3.654   1.079  0.7850 -0.6296 -0.3803
   44MOL   C98247508   2.174   3.686   0.985 -0.2167  0.5693  0.7469
   44MOL   C98347509   2.191   3.658   0.852  0.0988  0.0757  0.1919
   44MOL   C98447510   2.310   3.604   0.799  0.0088 -0.2425 -0.0631
   44MOL   O98547511   2.331   3.567   0.667  0.7883 -0.8474 -0.6766
   44MOL   C98647512   2.270   3.454   0.623  0.0636 -0.2238 -0.1688
   44MOL   C98747513   2.129   3.446   0.614 -0.8243 -0.5353  0.0268
   44MOL   C98847514   2.072   3.331   0.570  0.2355  0.1059  0.4239
   44MOL   C98947515   2.134   3.204   0.555 -0.8487  0.8666 -0.3687
   44MOL   C99047516   2.057   3.077   0.510  0.2049  0.0296  0.3193
   44MOL   C99147517   1.929   3.052   0.590 -0.2361 -0.4683  0.0161
   44MOL   C99247518   2.030   3.117   0.367  0.8769  0.1777 -0.5874
   44MOL   C99347519   2.137   2.945   0.518  0.0062  0.6327 -0.4933
   44MOL   C99447520   2.161   2.886   0.647 -0.0441 -0.3519 -0.5606
   44MOL   C99547521   2.227   2.763   0.658 -0.4687 -0.0100  0.7906
   44MOL   C99647522   2.271   2.692   0.541  0.4645 -0.1444 -0.1022
   44MOL   O99747523   2.350   2.582   0.548 -0.3613 -0.3927  0.4500
   44MOL   C99847524   2.242   2.751   0.419  0.2104  1.2352 -0.2372
   44MOL   C99947525   2.181   2.876   0.403  0.3213  0.0712  0.0895
   44MOL     C147526   2.278   3.213   0.565 -0.0733 -0.1792 -0.5119
   44MOL     C247527   2.348   3.331   0.605  0.1625 -0.0148 -0.4790
   44MOL     C347528   2.410   3.567   0.895 -0.2580  0.3705  0.3606
   44MOL     C447529   2.390   3.584   1.029 -0.7047 -0.0433 -0.2675
   44MOL     C547530   2.173   3.559   1.466  1.0063 -0.2704  0.3659
   44MOL     C647531   2.110   3.447   1.529  0.8081  0.4472  0.0233
   44MOL     H747532   2.066   3.232   1.271  2.1621 -0.9627  0.4498
   44MOL     H847533   2.158   3.424   1.146 -0.3136 -0.5423 -0.1389
   44MOL     H947534   2.078   3.725   1.015 -0.9988  1.2786 -2.5265
   44MOL    H1047535   2.112   3.690   0.785 -1.8176 -0.7368  1.9854
   44MOL    H1147536   2.074   3.538   0.624 -0.5743 -0.6811  3.2546
   44MOL    H1247537   1.965   3.334   0.558  0.4336 -0.7842 -1.7652
   44MOL    H1347538   1.883   2.956   0.564 -0.8023 -0.2629  0.2607
   44MOL    H1447539   1.859   3.133   0.570 -2.5880 -1.9850  1.8352
   44MOL    H1547540   1.958   3.051   0.695  3.4092 -0.6485 -0.9066
   44MOL    H1647541   2.112   3.135   0.298  0.9101  1.9006 -0.1123
   44MOL    H1747542   1.973   3.035   0.322  1.1919 -0.3909  0.0300
   44MOL    H1847543   1.972   3.209   0.369  0.4355 -0.0257 -2.9316
   44MOL    H1947544   2.129   2.930   0.740  3.0675  0.7329  0.0786
   44MOL    H2047545   2.241   2.720   0.756 -0.4300  0.7185  1.1010
   44MOL    H2147546   2.269   2.702   0.327 -1.8241  0.5167 -0.4780
   44MOL    H2247547   2.158   2.917   0.306  1.6083  1.2566  0.2801
   44MOL    H2347548   2.346   3.130   0.549 -1.4270 -1.6608  1.2580
   44MOL    H2447549   2.456   3.324   0.606  0.1814  0.2572 -0.5446
   44MOL    H2547550   2.506   3.530   0.865 -1.3680  0.3925 -3.5218
   44MOL    H2647551   2.456   3.544   1.105  0.2515  0.6547 -0.7133
   44MOL    H2747552   2.201   3.645   1.524  0.1313  1.3345 -1.5177
   44MOL    H2847553   2.085   3.454   1.634  0.0127 -2.9964  0.1240
   44MOL    C2947554   2.389   2.524   0.664 -0.0141 -0.3877 -0.1234
   44MOL    C3047555   2.307   2.432   0.734 -0.0186 -0.0045  0.0168
   44MOL    C3147556   2.337   2.382   0.861  0.1731 -0.0461  0.1693
   44MOL    C3247557   2.462   2.407   0.912  0.0401  0.3213  0.4739
   44MOL    S3347558   2.490   2.362   1.086  0.1589 -0.0832 -0.2967
   44MOL    O3447559   2.370   2.405   1.156  0.2691 -0.7902  0.0850
   44MOL    O3547560   2.620   2.421   1.125 -0.0563  0.0037 -0.1340
   44MOL    C3647561   2.510   2.183   1.101  0.5512  0.3892  0.3345
   44MOL    C3747562   2.388   2.113   1.113  0.0923  0.3684  0.0071
   44MOL    C3847563   2.393   1.972   1.146 -0.2797 -0.0931  0.1175
   44MOL    C3947564   2.523   1.908   1.162 -0.0326 -0.0755  0.2577
   44MOL    O4047565   2.521   1.775   1.197 -0.3412  0.7447  0.5721
   44MOL    C4147566   2.544   1.746   1.326 -0.3356  1.3114 -0.2804
   44MOL    C4247567   2.656   1.667   1.354  0.7459 -0.0495  0.1580
   44MOL    C4347568   2.687   1.647   1.492 -0.0945 -0.3758 -0.3714
   44MOL    C4447569   2.611   1.699   1.600 -0.1981  0.6435 -0.3239
   44MOL    C4547570   2.663   1.680   1.738 -0.9924 -1.1944 -0.1792
   44MOL    C4647571   2.762   1.804   1.762  0.3482  0.2387  0.4457
   44MOL    C4747572   2.554   1.703   1.841  0.5918 -0.3206  0.3275
   44MOL    C4847573   2.719   1.545   1.770 -1.1678  0.4235  0.5802
   44MOL    C4947574   2.648   1.426   1.734  0.4839 -0.2719  0.8820
   44MOL    C5047575   2.680   1.301   1.789 -0.1269  0.1456 -0.2269
   44MOL    C5147576   2.794   1.292   1.873  0.0965  0.1284 -0.0663
   44MOL    O5247577   2.833   1.167   1.909  0.3364 -0.1704  0.3371
   44MOL    C5347578   2.863   1.411   1.915  0.0057  0.2651 -0.6405
   44MOL    C5447579   2.826   1.536   1.859  0.5165 -0.2945 -0.0770
   44MOL    C5547580   2.487   1.764   1.569  0.0143  0.7448 -0.0973
   44MOL    C5647581   2.453   1.786   1.429  0.0152  0.0923 -0.6530
   44MOL    C5747582   2.641   1.986   1.147 -0.2403 -0.1286  0.0974
   44MOL    C5847583   2.635   2.126   1.123 -0.4892  0.1123  0.8978
   44MOL    C5947584   2.555   2.485   0.839  0.3774  0.4457  0.3303
   44MOL    C6047585   2.523   2.540   0.710 -0.7905 -0.6259  0.4813
   44MOL    H6147586   2.205   2.431   0.700 -0.1344  1.7037  0.2472
   44MOL    H6247587   2.256   2.333   0.912 -0.2056  0.7422  0.3253
   44MOL    H6347588   2.297   2.167   1.092 -0.9133 -1.3125 -0.0964
   44MOL    H6447589   2.307   1.909   1.165  1.0313 -1.9625 -0.1190
   44MOL    H6547590   2.720   1.633   1.275  1.5249  0.8928  0.3767
   44MOL    H6647591   2.773   1.589   1.522 -0.8568 -2.5048 -2.1963
   44MOL    H6747592   2.723   1.900   1.728  0.1807 -0.6377 -1.8703
   44MOL    H6847593   2.849   1.788   1.699 -0.5911 -1.2667 -0.4958
   44MOL    H6947594   2.807   1.819   1.861 -2.0134  0.9639  1.4429
   44MOL    H7047595   2.475   1.631   1.820 -0.3537  0.5029  1.0180
   44MOL    H7147596   2.583   1.678   1.942  1.1314  0.0109  0.2572
   44MOL    H7247597   2.505   1.801   1.837  1.7793  0.2429 -0.7297
   44MOL    H7347598   2.557   1.446   1.679  0.6847  1.3709  1.1155
   44MOL    H7447599   2.610   1.220   1.772  0.7397 -0.4504 -0.9636
   44MOL    H7547600   2.950   1.394   1.976 -1.9212 -2.1541  1.5586
   44MOL    H7647601   2.871   1.631   1.882  0.9774 -0.7658  0.9963
   44MOL    H7747602   2.425   1.811   1.644  2.0585  2.1837  0.7387
   44MOL    H7847603   2.373   1.852   1.399  0.7126  2.3952  2.2978
   44MOL    H7947604   2.738   1.940   1.159  0.7690  1.5870 -1.2802
   44MOL    H8047605   2.720   2.191   1.134 -1.1267  0.9445  0.9778
   44MOL    H8147606   2.655   2.506   0.873  0.1296  1.6562  0.3326
   44MOL    H8247607   2.595   2.594   0.651 -1.1683  1.3476  1.7897
   44MOL    H8347608   2.912   1.148   1.957 -0.9732  0.2670  2.7239
   45MOL     C147609   2.739   0.927   0.891  0.0274  2.0539 -0.3914
   45MOL     C247610   2.726   0.831   0.791 -0.4431 -0.2703 -0.1036
   45MOL     C347611   2.796   0.853   0.667 -0.0489  0.6088  0.5203
   45MOL     C447612   2.885   0.955   0.656 -0.2508 -0.0684  0.2769
   45MOL     S547613   2.969   0.991   0.501 -0.1573  0.0737 -0.1608
   45MOL     O647614   2.900   0.925   0.387  0.0166  0.4881  0.2076
   45MOL     O747615   3.117   0.975   0.520 -0.0478 -0.0948 -0.3068
   45MOL     C847616   2.948   1.161   0.472 -0.4975  0.1007  0.5197
   45MOL     C947617   2.822   1.219   0.504  0.1063  0.8975  0.5352
   45MOL    C1047618   2.810   1.357   0.483  0.2100  0.5912  0.0651
   45MOL    C1147619   2.916   1.434   0.432  0.3207 -0.2351 -0.0849
   45MOL    O1247620   2.895   1.571   0.423  0.6065  0.0329  0.0847
   45MOL    C1347621   2.919   1.623   0.295 -0.1572 -0.3868 -0.4788
   45MOL    C1447622   2.957   1.758   0.291 -0.1174  0.3073 -0.3367
   45MOL    C1547623   2.969   1.820   0.160  0.5682 -0.4461 -0.0507
   45MOL    C1647624   2.942   1.746   0.042  0.1262 -0.5244 -0.4289
   45MOL    C1747625   2.946   1.822   8.158  0.1863 -0.1467 -0.3734
   45MOL    C1847626   2.893   1.738   8.037 -0.4597  0.3656 -0.4402
   45MOL    C1947627   2.863   1.956   8.172  0.6240 -0.5689 -0.6163
   45MOL    C2047628   3.096   1.843   8.127  0.3132  0.2455 -0.3617
   45MOL    C2147629   3.173   1.724   8.142  0.3656  1.0240  0.6582
   45MOL    C2247630   3.314   1.726   8.128 -0.0991  0.6821  0.1746
   45MOL    C2347631   3.376   1.844   8.103 -0.2838 -0.2754  0.3172
   45MOL    O2447632   3.511   1.844   8.078  0.2205 -0.8455 -0.0928
   45MOL    C2547633   3.298   1.962   8.085  0.4036 -0.1382  0.0106
   45MOL    C2647634   3.160   1.963   8.093 -0.2342  0.0928 -0.6506
   45MOL    C2747635   2.902   1.614   0.055  0.0972  0.2433 -0.0895
   45MOL    C2847636   2.883   1.555   0.176 -0.1180  0.2362 -0.1841
   45MOL    C2947637   3.043   1.375   0.406 -1.0139  0.2749  0.0920
   45MOL    C3047638   3.059   1.236   0.429  0.2603  0.6148  0.1390
   45MOL    C3147639   2.902   1.045   0.762  0.5516 -0.5933  0.4824
   45MOL    C3247640   2.824   1.032   0.876 -0.1783  0.1921 -0.2905
   45MOL    H3347641   2.656   0.749   0.794 -0.5992 -0.1091  0.9250
   45MOL    H3447642   2.776   0.787   0.584 -1.0912 -0.9124  1.9563
   45MOL    H3547643   2.743   1.150   0.531  1.5175 -1.1000 -0.3764
   45MOL    H3647644   2.713   1.388   0.519  1.7191  2.6971  2.5350
   45MOL    H3747645   2.975   1.823   0.376 -0.2204  1.9389 -1.5351
   45MOL    H3847646   3.008   1.920   0.146 -0.8312 -0.0442 -1.2002
   45MOL    H3947647   2.884   1.803   7.950 -1.0738  0.8352 -0.0279
   45MOL    H4047648   2.797   1.694   8.065 -0.0528  0.5959  1.3478
   45MOL    H4147649   2.965   1.657   8.024  1.7470  2.1545  0.4144
   45MOL    H4247650   2.865   2.012   8.078 -1.8784 -2.6796 -2.0017
   45MOL    H4347651   2.758   1.940   8.196 -0.3330 -0.2326 -4.2780
   45MOL    H4447652   2.905   2.019   8.250  1.7334  0.1477 -1.7642
   45MOL    H4547653   3.124   1.635   8.177  2.1790  0.3237  1.5024
   45MOL    H4647654   3.362   1.629   8.128 -2.4910 -0.5442  0.1817
   45MOL    H4747655   3.346   2.057   8.069  1.4125 -0.9390 -1.8860
   45MOL    H4847656   3.107   2.057   8.085 -2.1601 -0.9505 -0.4852
   45MOL    H4947657   2.889   1.553   8.220 -1.6441 -0.5167  0.6799
   45MOL    H5047658   2.830   1.461   0.176  1.6653 -0.7977  1.1795
   45MOL    H5147659   3.131   1.430   0.377 -0.6345 -0.5574 -0.3368
   45MOL    H5247660   3.153   1.185   0.415  0.8819  0.8028  3.3957
   45MOL    H5347661   2.984   1.115   0.761  0.2047 -0.1953  0.1150
   45MOL    H5447662   2.827   1.101   0.959 -1.8271  2.6402 -2.1665
   45MOL    H5547663   2.677   0.917   0.979 -1.1578 -0.3848 -1.4656
   45MOL    C5647664   3.572   1.754   7.996 -0.3223 -0.5890  0.2405
   45MOL    C5747665   3.712   1.739   8.018  0.0711 -0.1262 -0.3543
   45MOL    C5847666   3.787   1.660   7.930 -0.1706 -0.0115  0.2122
   45MOL    C5947667   3.727   1.599   7.824  0.4432  0.0813 -0.8201
   45MOL    S6047668   3.826   1.499   7.718 -0.2816  0.5640  0.2184
   45MOL    O6147669   3.786   1.545   7.583  0.0808 -0.4793  0.0708
   45MOL    O6247670   3.817   1.352   7.750  0.0588 -0.3380  0.2275
   45MOL    C6347671   4.004   1.547   7.747 -0.4939 -0.5171  0.4353
   45MOL    C6447672   4.102   1.448   7.763  0.6813 -0.0550 -0.0462
   45MOL    C6547673   4.239   1.484   7.780  0.2540  0.1096 -0.5287
   45MOL    C6647674   4.275   1.616   7.775 -0.0335  0.2297  0.0278
   45MOL    O6747675   4.408   1.651   7.779 -0.1969  0.4585 -0.4868
   45MOL    C6847676   4.454   1.757   7.849  0.5447 -0.1745  0.0655
   45MOL    C6947677   4.461   1.763   7.987  0.4066  0.2354  0.0840
   45MOL    C7047678   4.525   1.876   8.048  0.4991  0.2308  0.0682
   45MOL    C7147679   4.572   1.987   7.972  0.4646 -0.2262 -0.2313
   45MOL    C7247680   4.637   2.104   8.044 -0.0830  0.4587 -0.1591
   45MOL    C7347681   4.697   2.214   7.954 -0.0210  0.0144  0.9997
   45MOL    C7447682   4.525   2.178   8.127 -0.1221 -0.6831  0.0997
   45MOL    C7547683   4.751   2.060   8.144  0.6430 -0.3147  0.2368
   45MOL    C7647684   4.742   2.060   0.029  0.7940  0.3932  0.2039
   45MOL    C7747685   4.842   2.002   0.108 -0.2106 -0.2455 -0.3601
   45MOL    C7847686   4.960   1.961   0.049  0.2646 -0.0384  0.5798
   45MOL    O7947687   5.064   1.912   0.123  0.1482  0.1430  0.2550
   45MOL    C8047688   4.978   1.972   8.162 -0.7152 -0.4001 -0.5885
   45MOL    C8147689   4.872   2.026   8.085  0.1785  0.0457 -0.5736
   45MOL    C8247690   4.563   1.978   7.831 -0.1966 -0.1008  0.0172
   45MOL    C8347691   4.505   1.862   7.779 -0.6403 -0.0297 -0.4545
   45MOL    C8447692   4.177   1.719   7.753 -0.4955 -0.6419  0.5283
   45MOL    C8547693   4.039   1.683   7.743 -0.3250  0.1151 -0.9889
   45MOL    C8647694   3.586   1.605   7.809  0.0722  0.5044  0.2417
   45MOL    C8747695   3.508   1.689   7.890 -0.6100 -0.3402  0.1721
   45MOL    H8847696   3.758   1.795   8.097 -2.1721  2.0369 -0.5033
   45MOL    H8947697   3.895   1.662   7.939 -0.1853  0.5513  0.2791
   45MOL    H9047698   4.073   1.344   7.758  0.0267  0.1085  0.2335
   45MOL    H9147699   4.315   1.408   7.780 -0.2793 -0.4284 -0.0172
   45MOL    H9247700   4.422   1.680   8.044 -0.4317  0.1288 -0.6478
   45MOL    H9347701   4.523   1.871   8.156  2.1703  1.5710  0.1853
   45MOL    H9447702   4.613   2.265   7.905  0.1245 -0.3355  0.3717
   45MOL    H9547703   4.765   2.172   7.880 -0.6126  1.7060 -0.5554
   45MOL    H9647704   4.746   2.285   8.020  1.1219  1.2220 -1.0581
   45MOL    H9747705   4.456   2.220   8.054 -0.0535  1.1516  1.0931
   45MOL    H9847706   4.472   2.110   8.194 -0.6781  0.1663  0.5256
   45MOL    H9947707   4.569   2.261   8.181 -0.8181  0.5188 -1.1582
   45MOL   H10047708   4.652   2.094   0.079 -0.6757 -0.7051 -1.6196
   45MOL   H10147709   4.827   1.999   0.215  2.3423  1.1809  0.0653
   45MOL   H10247710   5.075   1.952   8.119 -1.2248  0.4289 -2.1525
   45MOL   H10347711   4.879   2.017   7.977 -1.2379 -1.5105 -0.5492
   45MOL   H10447712   4.601   2.057   7.767  0.9440 -0.5144  0.1593
   45MOL   H10547713   4.510   1.859   7.671  0.0027  1.6370 -0.4978
   45MOL   H10647714   4.191   1.826   7.747  0.7845 -0.9245 -1.9819
   45MOL   H10747715   3.961   1.758   7.734 -1.1291 -0.3436  1.6885
   45MOL   H10847716   3.542   1.546   7.730 -2.7908  1.6297  0.9230
   45MOL   H10947717   3.403   1.702   7.870 -0.9244 -1.1647  1.2324
   45MOL   C11047718   5.053   1.778   0.141 -0.0310 -0.3194  0.0750
   45MOL   C11147719   4.983   1.729   0.255  0.0070  0.3046  0.0247
   45MOL   C11247720   4.968   1.590   0.273  0.0482  0.5452 -0.3130
   45MOL   C11347721   5.032   1.502   0.180 -0.3344 -0.2290  0.4548
   45MOL   S11447722   5.009   1.328   0.206 -0.0268 -0.1964 -0.6467
   45MOL   O11547723   4.990   1.262   0.075 -0.4025 -0.6443  0.2883
   45MOL   O11647724   4.907   1.318   0.311  0.2204 -0.1575 -0.7590
   45MOL   C11747725   5.162   1.277   0.281  0.8037  0.7509  0.1296
   45MOL   C11847726   5.287   1.334   0.246  0.5333 -0.2324 -0.7410
   45MOL   C11947727   5.404   1.274   0.286 -0.3260  0.5947  0.8863
   45MOL   C12047728   5.400   1.160   0.368 -0.5970 -0.4576  0.1210
   45MOL   O12147729   5.512   1.101   0.412 -0.6916  0.2964 -0.0379
   45MOL   C12247730   5.590   1.168   0.504 -0.3444 -0.1402  0.6556
   45MOL   C12347731   5.728   1.196   0.474  1.4132  0.3340 -0.5929
   45MOL   C12447732   5.807   1.267   0.566 -0.0191 -0.3539  0.1466
   45MOL   C12547733   5.753   1.310   0.691 -0.6373  0.2497  0.3613
   45MOL   C12647734   5.841   1.402   0.785  0.4887  0.3193 -0.2069
   45MOL   C12747735   5.764   1.427   0.916 -0.3733 -0.3947 -0.8668
   45MOL   C12847736   5.969   1.318   0.824 -0.1905  0.4279 -0.2187
   45MOL   C12947737   5.877   1.536   0.716  0.2396 -0.4996  0.2990
   45MOL   C13047738   5.772   1.626   0.681 -0.2051 -0.5219  0.2424
   45MOL   C13147739   5.797   1.754   0.617 -0.3110 -0.0535  0.8007
   45MOL   C13247740   5.931   1.788   0.595  0.4789  0.1782 -0.2777
   45MOL   O13347741   5.954   1.908   0.530  0.0487 -0.0526 -0.2388
   45MOL   C13447742   6.038   1.705   0.636  0.2118  0.6257  0.5757
   45MOL   C13547743   6.011   1.581   0.695 -0.5123  0.3346 -0.1747
   45MOL   C13647744   5.616   1.277   0.722 -0.7568 -0.4923  0.0524
   45MOL   C13747745   5.537   1.207   0.630  0.4418  0.3245  0.1170
   45MOL   C13847746   5.275   1.103   0.406  0.8979  0.1605 -0.2785
   45MOL   C13947747   5.154   1.156   0.351 -0.5722  0.2211  0.1858
   45MOL   C14047748   5.111   1.555   0.070 -0.2663  0.6197 -0.5738
   45MOL   C14147749   5.109   1.691   0.051  0.0489 -0.4032 -0.0203
   45MOL   H14247750   4.923   1.789   0.323  1.9724  1.9795  0.3259
   45MOL   H14347751   4.898   1.553   0.346 -0.2061  1.0956 -0.2735
   45MOL   H14447752   5.298   1.425   0.188 -2.9487 -0.6139 -2.1018
   45MOL   H14547753   5.501   1.315   0.260 -0.8526  0.4195 -1.5458
   45MOL   H14647754   5.772   1.150   0.386  0.8494 -1.2427 -0.0684
   45MOL   H14747755   5.910   1.283   0.537 -0.2044 -1.2052 -1.0306
   45MOL   H14847756   5.749   1.328   0.957 -0.4605 -0.4140 -0.9435
   45MOL   H14947757   5.672   1.486   0.916 -0.3777 -0.3934  0.0339
   45MOL   H15047758   5.824   1.479   0.991 -2.0308 -0.8475  0.7921
   45MOL   H15147759   5.938   1.227   0.875  0.0996  0.9216  0.8621
   45MOL   H15247760   6.037   1.292   0.743 -0.3133 -1.7746  0.3414
   45MOL   H15347761   6.025   1.368   0.904  1.6470 -2.2029  0.2187
   45MOL   H15447762   5.671   1.600   0.706 -0.5114  0.4128  0.0237
   45MOL   H15547763   5.715   1.821   0.594  1.5387  2.1149  0.3503
   45MOL   H15647764   6.138   1.736   0.609  0.7688 -1.2457  0.4756
   45MOL   H15747765   6.097   1.520   0.717  1.5445  2.5290 -1.9368
   45MOL   H15847766   5.576   1.303   0.819  1.2504  2.2023  0.2126
   45MOL   H15947767   5.436   1.171   0.646  0.2742  0.2954 -0.9669
   45MOL   H16047768   5.273   1.016   0.469  1.6754 -0.1482 -0.6694
   45MOL   H16147769   5.058   1.106   0.358 -0.0718 -0.7689  0.0318
   45MOL   H16247770   5.150   1.485   8.251 -1.7376 -1.2313  0.3846
   45MOL   H16347771   5.170   1.720   8.220  0.0289  3.0788  1.0708
   45MOL   C16447772   5.959   1.918   0.396 -0.1653 -0.0269  0.2563
   45MOL   C16547773   5.987   1.809   0.311 -0.5136  0.8880  0.4910
   45MOL   C16647774   5.998   1.830   0.170  0.0429  0.3716  0.0814
   45MOL   C16747775   5.987   1.954   0.117  1.1001 -0.0035 -0.3930
   45MOL   S16847776   6.003   1.997   8.196 -0.3525 -0.2818  0.3790
   45MOL   O16947777   6.083   1.890   8.133 -0.5530 -0.4417  0.1791
   45MOL   O17047778   6.045   2.136   8.177  0.1295 -0.1289 -0.3682
   45MOL   C17147779   5.839   1.995   8.123  0.1248  0.0103  0.1510
   45MOL   C17247780   5.741   1.912   8.185  0.2513  0.4095 -0.9101
   45MOL   C17347781   5.609   1.922   8.141 -0.3149  0.3478 -0.5532
   45MOL   C17447782   5.574   2.005   8.030  0.0061  0.3278  0.8012
   45MOL   O17547783   5.440   2.003   7.987  0.0453 -0.0396 -0.6550
   45MOL   C17647784   5.382   2.128   7.972 -0.6097 -0.2603 -0.4047
   45MOL   C17747785   5.297   2.149   7.862 -0.0594  0.2102 -0.0313
   45MOL   C17847786   5.235   2.269   7.831 -0.3233  0.2716 -0.0897
   45MOL   C17947787   5.262   2.383   7.914 -1.3453 -0.0010 -0.0000
   45MOL   C18047788   5.181   2.514   7.900 -0.1959  0.0852  0.6028
   45MOL   C18147789   5.281   2.633   7.885  1.2618  0.1681 -0.5197
   45MOL   C18247790   5.089   2.519   7.776  0.3954  0.3287  0.3221
   45MOL   C18347791   5.094   2.524   8.025  0.8104  0.3404 -0.0389
   45MOL   C18447792   5.010   2.418   8.066  0.2669 -0.4608 -0.3143
   45MOL   C18547793   4.921   2.437   8.177  0.0993 -0.3363 -0.6090
   45MOL   C18647794   4.928   2.551   0.003 -0.7503 -0.4075  0.3294
   45MOL   O18747795   4.837   2.578   0.098  0.2664 -0.6220  0.0037
   45MOL   C18847796   5.030   2.644   8.235 -0.0334  0.1583  0.3491
   45MOL   C18947797   5.105   2.632   8.115  1.1492 -0.7371 -0.2093
   45MOL   C19047798   5.353   2.363   8.024  0.2236  0.4369  0.2240
   45MOL   C19147799   5.414   2.241   8.052  0.4178  0.5403  0.3190
   45MOL   C19247800   5.674   2.079   7.962  0.0033 -0.4748  0.0108
   45MOL   C19347801   5.806   2.068   8.007 -0.4844 -0.2782 -0.0806
   45MOL   C19447802   5.946   2.061   0.204  0.0744  0.4253 -0.3571
   45MOL   C19547803   5.927   2.041   0.339  0.1763  0.3312  0.1721
   45MOL   H19647804   6.011   1.711   0.351 -0.5088  0.7430  0.1364
   45MOL   H19747805   6.037   1.749   0.110  0.2849  0.3009  0.3322
   45MOL   H19847806   5.751   1.863   0.028  0.3341 -2.3259 -2.2574
   45MOL   H19947807   5.524   1.875   8.189 -0.2430  1.1282  0.3460
   45MOL   H20047808   5.277   2.072   7.789  0.8370  2.8029 -3.1355
   45MOL   H20147809   5.165   2.279   7.750  1.4084  0.6013 -1.5713
   45MOL   H20247810   5.337   2.616   7.792  0.5074  0.3179 -1.0077
   45MOL   H20347811   5.347   2.641   7.971  0.4707 -2.2159  0.3613
   45MOL   H20447812   5.220   2.722   7.873  0.0120 -0.6178 -0.1591
   45MOL   H20547813   5.031   2.428   7.789  0.9289  0.0342  0.6392
   45MOL   H20647814   5.032   2.611   7.793 -0.4557 -0.2638  0.6884
   45MOL   H20747815   5.140   2.528   7.680  1.5263  1.3782  1.0098
   45MOL   H20847816   5.004   2.324   8.014  0.6029  0.2147 -1.5828
   45MOL   H20947817   4.841   2.366   8.191 -1.0601  0.5954 -2.2980
   45MOL   H21047818   5.044   2.734   0.040  0.0517  0.9692 -0.9119
   45MOL   H21147819   5.165   2.716   8.082 -0.3948  0.1131 -0.9055
   45MOL   H21247820   5.368   2.444   8.094 -1.2024 -0.5065  1.6777
   45MOL   H21347821   5.473   2.233   8.143  0.2380  1.1747  0.4904
   45MOL   H21447822   5.645   2.154   7.891 -1.8833  0.7135  1.9747
   45MOL   H21547823   5.879   2.117   7.944  0.1872 -0.8129  0.2734
   45MOL   H21647824   5.939   2.162   0.167  1.1645  0.6436  0.0388
   45MOL   H21747825   5.887   2.119   0.403 -2.0992  0.6178 -1.5328
   45MOL   C21847826   4.777   2.472   0.162 -0.0928  0.0807  0.1593
   45MOL   C21947827   4.639   2.457   0.143  0.0727 -0.3266 -0.1429
   45MOL   C22047828   4.569   2.351   0.213 -0.1158  0.1812 -0.1050
   45MOL   C22147829   4.644   2.268   0.300  0.9371  0.3378 -0.1612
   45MOL   S22247830   4.565   2.154   0.408  0.2460  0.2370 -0.1203
   45MOL   O22347831   4.527   2.227   0.525 -0.3567  0.0009 -0.5803
   45MOL   O22447832   4.652   2.037   0.427 -0.3443 -0.2019  0.2143
   45MOL   C22547833   4.418   2.102   0.319  0.2784 -1.1583 -0.4585
   45MOL   C22647834   4.428   2.013   0.211  0.4092  0.6018 -0.1113
   45MOL   C22747835   4.317   1.971   0.138  0.3808 -0.6313 -0.0991
   45MOL   C22847836   4.194   2.031   0.171  0.1068  0.9244  0.2348
   45MOL   O22947837   4.081   2.013   0.087  0.6465 -0.1805 -0.2380
   45MOL   C23047838   4.093   2.066   8.214  0.3937  0.1578 -0.1174
   45MOL   C23147839   4.091   2.207   8.203  0.5892 -0.4219  0.0867
   45MOL   C23247840   4.101   2.266   8.078 -0.1455  0.2296 -0.2311
   45MOL   C23347841   4.120   2.196   7.963  0.8757 -0.0688  0.0568
   45MOL   C23447842   4.149   2.271   7.826 -0.8244 -0.2088  0.6028
   45MOL   C23547843   4.059   2.391   7.810  0.1617  0.3307 -1.1495
   45MOL   C23647844   4.290   2.339   7.843 -0.3914  0.7449 -0.3024
   45MOL   C23747845   4.151   2.169   7.707  0.5070 -0.4420  0.5617
   45MOL   C23847846   4.273   2.141   7.631  0.7739 -0.4211  0.1695
   45MOL   C23947847   4.260   2.057   7.516 -0.0537  0.1268 -0.2412
   45MOL   C24047848   4.140   1.990   7.484  0.0154  0.3131  0.3270
   45MOL   O24147849   4.147   1.889   7.387  0.2795 -0.8309 -0.2174
   45MOL   C24247850   4.030   2.008   7.565  0.2503  0.0808  0.0346
   45MOL   C24347851   4.028   2.101   7.672  0.4065 -0.0568 -0.2662
   45MOL   C24447852   4.122   2.053   7.972  0.7544  0.3427  0.2363
   45MOL   C24547853   4.102   1.984   8.095 -0.4597  0.0535  0.3531
   45MOL   C24647854   4.176   2.124   0.279  0.1641  0.6768 -0.0403
   45MOL   C24747855   4.290   2.158   0.356  0.1311 -0.3483 -0.9420
   45MOL   C24847856   4.781   2.285   0.315  0.0382 -0.2715 -0.4490
   45MOL   C24947857   4.849   2.383   0.243  0.0303  0.3940 -0.5897
   45MOL   H25047858   4.593   2.527   0.075 -0.8320 -0.5462  0.2295
   45MOL   H25147859   4.462   2.339   0.207 -0.2708 -0.2670  2.8633
   45MOL   H25247860   4.530   1.987   0.187  0.3047  0.8585 -0.8505
   45MOL   H25347861   4.319   1.919   0.043 -0.8016  0.1653 -0.5847
   45MOL   H25447862   4.075   2.275   0.032 -1.1411 -0.4173 -0.2345
   45MOL   H25547863   4.103   2.374   8.087  1.1227  0.1463  0.6261
   45MOL   H25647864   3.953   2.367   7.799 -0.4156  1.1138  2.1793
   45MOL   H25747865   4.091   2.448   7.723  2.9846 -2.6935 -2.2185
   45MOL   H25847866   4.059   2.464   7.890 -0.4152 -0.3666 -0.5080
   45MOL   H25947867   4.324   2.383   7.750  0.6949 -0.7551 -0.6366
   45MOL   H26047868   4.277   2.415   7.920 -3.1938  0.4655 -0.4784
   45MOL   H26147869   4.359   2.259   7.871  0.6033  2.0855  1.2094
   45MOL   H26247870   4.372   2.171   7.660  1.0341 -0.6457 -0.4598
   45MOL   H26347871   4.345   2.030   7.455 -0.6624 -2.8824  0.1558
   45MOL   H26447872   3.941   1.955   7.533  1.7921 -1.0456 -2.5369
   45MOL   H26547873   3.937   2.124   7.724  0.6993  0.8420 -0.1532
   45MOL   H26647874   4.147   1.993   7.886  0.4266  0.5273  0.0144
   45MOL   H26747875   4.104   1.877   8.110  0.3875  0.0549  0.2934
   45MOL   H26847876   4.079   2.168   0.299 -0.3623 -0.1615 -0.6997
   45MOL   H26947877   4.285   2.222   0.443  1.6089  0.5241 -1.4926
   45MOL   H27047878   4.835   2.217   0.380 -0.1533  0.0668  0.0709
   45MOL   H27147879   4.954   2.399   0.265  0.4379 -1.9123 -0.8067
   45MOL   C27247880   4.034   1.848   7.319  0.2213 -0.1229 -0.5025
   45MOL   C27347881   3.930   1.772   7.372 -0.8134  0.3646 -0.6965
   45MOL   C27447882   3.811   1.753   7.295  1.0897  0.3797  0.1196
   45MOL   C27547883   3.799   1.803   7.165  0.6876 -0.5643  0.4181
   45MOL   S27647884   3.658   1.761   7.054  0.1348  0.0886 -0.1348
   45MOL   O27747885   3.600   1.630   7.092  0.5102 -0.1719 -0.0678
   45MOL   O27847886   3.692   1.777   6.915  0.0651 -0.2124 -0.0719
   45MOL   C27947887   3.537   1.885   7.087 -0.0277 -0.3326  0.7541
   45MOL   C28047888   3.556   2.009   7.025  0.1502  0.2757  0.1967
   45MOL   C28147889   3.467   2.114   7.053  0.5404  0.4987  0.1287
   45MOL   C28247890   3.365   2.098   7.152 -0.2445 -0.8852  0.0676
   45MOL   O28347891   3.278   2.201   7.176  0.0130  0.0465  0.2509
   45MOL   C28447892   3.289   2.287   7.282  0.9271  0.5179 -0.1141
   45MOL   C28547893   3.377   2.259   7.390 -0.2198  0.3918 -0.4164
   45MOL   C28647894   3.380   2.346   7.508 -0.1575  0.7446  0.5298
   45MOL   C28747895   3.310   2.469   7.500 -0.0923 -0.0978 -0.6042
   45MOL   C28847896   3.324   2.571   7.620 -0.2463  0.8588 -0.3243
   45MOL   C28947897   3.469   2.609   7.629 -0.3766  0.2012 -0.0006
   45MOL   C29047898   3.246   2.705   7.603  0.4184  0.2160  0.0877
   45MOL   C29147899   3.274   2.505   7.748  0.8947  0.0725 -0.0049
   45MOL   C29247900   3.367   2.482   7.860  0.2944  0.2555  0.3095
   45MOL   C29347901   3.320   2.426   7.980  0.4242  0.4440  0.1337
   45MOL   C29447902   3.184   2.390   7.990  0.2242  0.1136  0.2132
   45MOL   O29547903   3.138   2.335   8.108  0.1470 -0.2255 -0.1363
   45MOL   C29647904   3.097   2.400   7.879  0.1496 -0.4954 -0.0870
   45MOL   C29747905   3.139   2.458   7.759 -0.5482 -0.8869  0.2299
   45MOL   C29847906   3.222   2.498   7.390 -1.2126  0.1704  0.1911
   45MOL   C29947907   3.210   2.404   7.287  0.0487  0.2207  0.0067
   45MOL   C30047908   3.346   1.976   7.219  0.6432  0.2272 -0.4077
   45MOL   C30147909   3.429   1.870   7.178 -0.2875  0.6059 -0.2612
   45MOL   C30247910   3.905   1.873   7.109 -0.5952  0.0228  0.6432
   45MOL   C30347911   4.023   1.900   7.186 -0.1392  0.7839  0.2904
   45MOL   H30447912   3.939   1.727   7.469  3.5515  2.5505  0.0489
   45MOL   H30547913   3.728   1.692   7.327  1.1526  0.2560  0.0472
   45MOL   H30647914   3.630   2.026   6.948 -0.5016  2.8724  0.0908
   45MOL   H30747915   3.475   2.209   7.003  0.6821  0.3383 -0.1553
   45MOL   H30847916   3.431   2.165   7.400 -1.6619 -0.3433  0.6417
   45MOL   H30947917   3.442   2.311   7.589  2.3958  3.1508 -0.2730
   45MOL   H31047918   3.525   2.517   7.647  1.7269  1.5851  0.7333
   45MOL   H31147919   3.488   2.684   7.706  1.9410  0.0090 -0.3455
   45MOL   H31247920   3.510   2.655   7.539 -0.3529 -1.3756 -0.8119
   45MOL   H31347921   3.286   2.754   7.514  0.7029 -0.5534 -0.2082
   45MOL   H31447922   3.139   2.685   7.608  0.5838 -0.6165  0.3594
   45MOL   H31547923   3.274   2.767   7.688  1.1070 -1.9492  1.4855
   45MOL   H31647924   3.471   2.510   7.862  0.3582 -0.0058  0.6402
   45MOL   H31747925   3.381   2.432   8.069  1.4679 -0.9994 -0.4682
   45MOL   H31847926   2.996   2.363   7.886  0.0117 -0.1479 -0.2263
   45MOL   H31947927   3.076   2.462   7.671 -1.0707 -2.7787  0.5000
   45MOL   H32047928   3.163   2.588   7.386 -2.0173 -0.3216  0.9371
   45MOL   H32147929   3.148   2.421   7.201 -2.0015 -0.5049  1.3135
   45MOL   H32247930   3.263   1.963   7.287  0.5704  0.2545 -0.4917
   45MOL   H32347931   3.429   1.771   7.221  0.2955  0.4645 -0.5780
   45MOL   H32447932   3.899   1.905   7.006 -2.9648 -0.0536  0.7414
   45MOL   H32547933   4.102   1.964   7.150  0.7689 -0.8978 -0.7454
   45MOL   C32647934   3.065   2.422   8.187  0.0772  0.1985  0.3071
   45MOL   C32747935   2.937   2.364   8.224 -0.4249 -0.3001  0.0805
   45MOL   C32847936   2.863   2.435   0.068  0.6364 -0.0608 -0.2237
   45MOL   C32947937   2.913   2.552   0.124 -0.9826 -0.5723 -1.1220
   45MOL   S33047938   2.822   2.626   0.256  0.2533  0.1904  0.4562
   45MOL   O33147939   2.918   2.712   0.335  0.1839  0.6216 -0.4252
   45MOL   O33247940   2.747   2.517   0.318  0.6277  0.6324  0.6478
   45MOL   C33347941   2.705   2.742   0.179 -0.2489 -0.6489 -0.1941
   45MOL   C33447942   2.574   2.764   0.236  0.4322  0.0585 -0.2816
   45MOL   C33547943   2.495   2.866   0.180  0.2280 -0.8711  0.4092
   45MOL   C33647944   2.537   2.944   0.071  1.0763 -0.8555 -0.3559
   45MOL   O33747945   2.452   3.041   0.020  0.2068  0.4517  0.1472
   45MOL   C33847946   2.483   3.169   0.063  0.2855  0.7181  0.4059
   45MOL   C33947947   2.412   3.214   0.175  0.5391 -0.3629  0.0309
   45MOL   C34047948   2.446   3.344   0.221  0.5252 -0.0174 -0.0408
   45MOL   C34147949   2.550   3.426   0.168 -0.1927 -0.9101  0.0470
   45MOL   C34247950   2.599   3.552   0.234 -0.3331  0.2802 -0.3762
   45MOL   C34347951   2.663   3.512   0.369 -0.1204  0.1873  0.4397
   45MOL   C34447952   2.703   3.636   0.160 -0.5099  0.2329  0.2037
   45MOL   C34547953   2.473   3.638   0.247 -0.4071  0.2126  0.1726
   45MOL   C34647954   2.426   3.700   0.130  0.0438 -0.1987 -0.0820
   45MOL   C34747955   2.321   3.796   0.142 -0.3921  0.7517  0.1623
   45MOL   C34847956   2.259   3.815   0.269  0.8061 -0.3286  0.0548
   45MOL   O34947957   2.156   3.903   0.270  0.2739 -0.5034  0.4348
   45MOL   C35047958   2.299   3.742   0.380 -1.0117  0.4948 -0.1636
   45MOL   C35147959   2.413   3.661   0.369  0.1259  0.0362  0.3558
   45MOL   C35247960   2.611   3.373   0.052 -0.6256  0.7248  0.3234
   45MOL   C35347961   2.577   3.249   8.245  0.0175 -0.8967  0.3135
   45MOL   C35447962   2.659   2.912   0.008  0.3910  0.4348  0.0920
   45MOL   C35547963   2.748   2.814   0.065 -0.3547 -0.0181 -0.5221
   45MOL   C35647964   3.039   2.603   0.096 -0.3119  0.8451  0.4533
   45MOL   C35747965   3.114   2.541   8.243 -0.1266  0.0637 -0.0238
   45MOL   H35847966   2.902   2.271   8.183  2.3774 -1.4867  0.2784
   45MOL   H35947967   2.768   2.396   0.103  0.9161 -0.9481 -0.4453
   45MOL   H36047968   2.552   2.706   0.325  2.2356 -1.0563 -0.5391
   45MOL   H36147969   2.396   2.892   0.217  1.2719  1.5522  1.6097
   45MOL   H36247970   2.332   3.159   0.221  0.5380  0.2445  0.7623
   45MOL   H36347971   2.386   3.390   0.299  0.6899 -0.5702  0.4199
   45MOL   H36447972   2.684   3.603   0.425  4.4428 -1.0212  0.8918
   45MOL   H36547973   2.766   3.480   0.358  0.3930  1.8147  0.3941
   45MOL   H36647974   2.598   3.446   0.426 -0.5644 -0.9935 -1.3916
   45MOL   H36747975   2.724   3.722   0.223 -1.6128 -0.5145  1.6165
   45MOL   H36847976   2.800   3.586   0.157 -1.5092 -1.7676 -0.0245
   45MOL   H36947977   2.680   3.667   0.058  1.3498  0.4670 -0.1677
   45MOL   H37047978   2.472   3.694   0.033 -2.4888  1.0922 -1.3941
   45MOL   H37147979   2.302   3.845   0.048 -2.5679  0.3256  0.3641
   45MOL   H37247980   2.237   3.746   0.469  0.0039 -0.3097  0.5961
   45MOL   H37347981   2.455   3.613   0.456  0.5667  0.5114  0.4140
   45MOL   H37447982   2.697   3.425   0.013  0.2630 -3.3965 -3.6673
   45MOL   H37547983   2.613   3.217   8.148 -0.1020 -2.4575  0.7651
   45MOL   H37647984   2.702   2.960   8.174 -1.1379  0.2305 -0.8040
   45MOL   H37747985   2.841   2.808   0.011 -0.9538  2.0212 -1.8646
   45MOL   H37847986   3.083   2.689   0.145  2.4051 -0.1090 -0.1998
   45MOL   H37947987   3.206   2.588   8.213  0.3729  1.6323  3.7717
   45MOL   C38047988   2.189   4.031   0.244 -0.3684  0.0937  0.4253
   45MOL   C38147989   2.105   4.107   0.159  0.8270 -0.5223  1.2074
   45MOL   C38247990   2.137   4.241   0.128 -0.8034 -0.1332 -0.2131
   45MOL   C38347991   2.257   4.298   0.177  0.6429  0.1197 -0.3575
   45MOL   S38447992   2.301   4.456   0.120 -0.1415 -0.3738 -0.1420
   45MOL   O38547993   2.268   4.461   8.231  0.2645  0.4890  0.3412
   45MOL   O38647994   2.430   4.497   0.174  0.3792  0.0276 -0.4320
   45MOL   C38747995   2.180   4.544   0.216  0.7075  0.0902  0.0654
   45MOL   C38847996   2.076   4.609   0.150 -0.4726 -0.0825  0.1142
   45MOL   C38947997   1.997   4.696   0.227  0.6266  0.3321  0.3670
   45MOL   C39047998   2.019   4.712   0.367 -0.0993  0.1377  0.5797
   45MOL   O39147999   1.947   4.796   0.442 -0.3426 -0.1641  0.3589
   45MOL   C39248000   1.821   4.758   0.467  0.0783 -0.2040 -0.7084
   45MOL   C39348001   1.723   4.841   0.413  0.2493  0.2237 -0.7764
   45MOL   C39448002   1.588   4.809   0.433 -0.4316 -0.2193 -0.6067
   45MOL   C39548003   1.553   4.690   0.503 -0.6097 -0.3574  0.5158
   45MOL   C39648004   1.408   4.640   0.503 -0.0723  0.3524  0.4458
   45MOL   C39748005   1.380   4.527   0.611  0.0598  0.1606 -0.1789
   45MOL   C39848006   1.309   4.759   0.539 -0.3262  0.2243 -0.3053
   45MOL   C39948007   1.386   4.589   0.362  0.1523  0.9116  1.0553
   45MOL   C40048008   1.487   4.578   0.264 -0.7349 -0.0836 -0.6447
   45MOL   C40148009   1.466   4.552   0.128 -0.3218 -0.8095 -0.2385
   45MOL   C40248010   1.331   4.526   0.080  0.0579  0.1915 -0.3360
   45MOL   O40348011   1.293   4.494   8.207  0.2612  0.6608  0.6985
   45MOL   C40448012   1.226   4.533   0.180  0.8322  1.0567  0.8721
   45MOL   C40548013   1.254   4.562   0.316  0.0751  0.1526 -0.3468
   45MOL   C40648014   1.654   4.611   0.558 -0.7086 -0.1991  0.0356
   45MOL   C40748015   1.788   4.641   0.543 -0.1714  0.8736 -0.4869
   45MOL   C40848016   2.113   4.638   0.432 -0.6370  0.2314 -0.2253
   45MOL   C40948017   2.191   4.546   0.359  0.4999 -0.1820 -0.2626
   45MOL   C41048018   2.334   4.231   0.273  0.0391 -0.7893  0.3041
   45MOL   C41148019   2.308   4.095   0.301 -0.5480 -0.2386 -0.1291
   45MOL   H41248020   2.020   4.059   0.114  0.3897  2.1149 -0.9529
   45MOL   H41348021   2.080   4.300   0.058  0.0378  0.4170 -0.4405
   45MOL   H41448022   2.067   4.610   0.043 -0.1533  0.8789  0.0934
   45MOL   H41548023   1.922   4.755   0.176  1.6225 -0.4332 -2.0594
   45MOL   H41648024   1.749   4.923   0.348  1.2148  0.6885  0.1871
   45MOL   H41748025   1.512   4.874   0.393  0.0128  0.3327 -0.5477
   45MOL   H41848026   1.408   4.549   0.714 -0.4151  2.3885 -0.4938
   45MOL   H41948027   1.431   4.434   0.585  0.8070  0.3134  0.6835
   45MOL   H42048028   1.273   4.509   0.615  0.0040  0.0674 -1.6972
   45MOL   H42148029   1.360   4.798   0.627  0.6951  0.6823 -1.0905
   45MOL   H42248030   1.296   4.831   0.458  0.4476 -0.3049 -0.9036
   45MOL   H42348031   1.210   4.722   0.565  0.2760 -0.5938  0.8460
   45MOL   H42448032   1.593   4.592   0.278 -0.1835 -1.8562 -2.7014
   45MOL   H42548033   1.543   4.552   0.052 -2.9241 -0.7483 -2.9916
   45MOL   H42648034   1.123   4.521   0.147  0.9636  0.9764  0.4836
   45MOL   H42748035   1.173   4.578   0.387  0.7752 -1.5200  0.8613
   45MOL   H42848036   1.637   4.524   0.620  1.6857  0.5950  1.8952
   45MOL   H42948037   1.871   4.591   0.590  0.0055  0.4309 -1.2598
   45MOL   H43048038   2.116   4.661   0.537 -0.2644  1.5734 -0.5124
   45MOL   H43148039   2.267   4.493   0.415 -1.1057 -1.9187  0.3266
   45MOL   H43248040   2.425   4.274   0.312  0.1641  0.1481 -0.9894
   45MOL   H43348041   2.362   4.034   0.372  0.2506 -2.1987 -2.3364
   45MOL   C43448042   1.370   4.551   8.109 -0.0232 -0.4735  0.1739
   45MOL   C43548043   1.350   4.686   8.076  0.1218  0.3549  0.3497
   45MOL   C43648044   1.433   4.745   7.977  0.1778 -0.3895  0.0922
   45MOL   C43748045   1.533   4.664   7.910 -1.2169 -0.4290  0.1028
   45MOL   S43848046   1.634   4.737   7.783 -0.1699 -0.2519  0.0608
   45MOL   O43948047   1.558   4.848   7.727  0.1383  0.6309 -0.1429
   45MOL   O44048048   1.686   4.634   7.690 -0.5654  0.1899 -0.2142
   45MOL   C44148049   1.785   4.799   7.865  0.2524 -0.5182  0.6343
   45MOL   C44248050   1.833   4.930   7.833  0.3145  0.6542 -0.0776
   45MOL   C44348051   1.943   4.989   7.896 -0.4209  0.3129 -0.2485
   45MOL   C44448052   2.016   4.916   7.986 -0.9659  0.0327 -0.2178
   45MOL   O44548053   2.118   4.979   8.051 -0.3029  0.1830  0.1935
   45MOL   C44648054   2.243   4.922   8.054 -0.5700 -0.1106  0.0977
   45MOL   C44748055   2.317   4.941   8.170 -0.0962  0.6132  0.1290
   45MOL   C44848056   2.448   4.893   8.185  0.2650 -0.2460  0.1658
   45MOL   C44948057   2.509   4.819   8.079 -0.1352  0.4791  0.3005
   45MOL   C45048058   2.643   4.754   8.106 -0.0147 -0.0779  0.2979
   45MOL   C45148059   2.739   4.873   8.064 -0.4460  0.3936 -0.1236
   45MOL   C45248060   2.669   4.723   0.003 -0.2125 -1.0393 -0.3034
   45MOL   C45348061   2.669   4.630   8.019  0.2975  0.0622  0.5792
   45MOL   C45448062   2.570   4.523   8.018 -0.1430 -0.6221  0.4043
   45MOL   C45548063   2.582   4.410   7.937  0.6881 -0.6506  0.3931
   45MOL   C45648064   2.688   4.405   7.845 -0.4932  0.0430 -0.2816
   45MOL   O45748065   2.701   4.297   7.765 -0.5786 -0.3198  0.7258
   45MOL   C45848066   2.784   4.507   7.844 -0.6787 -1.1225 -0.2244
   45MOL   C45948067   2.782   4.618   7.930  0.0621 -0.5651  0.2473
   45MOL   C46048068   2.432   4.802   7.956  0.7199  0.0771  0.4359
   45MOL   C46148069   2.304   4.851   7.949 -0.1652 -0.3789 -0.1087
   45MOL   C46248070   1.984   4.779   8.009 -1.1664 -0.1194 -0.0815
   45MOL   C46348071   1.864   4.727   7.956 -0.3957  0.2778 -0.3733
   45MOL   C46448072   1.558   4.533   7.951  0.1127 -0.3572  0.2382
   45MOL   C46548073   1.479   4.477   8.052 -0.4295 -0.3859  0.1925
   45MOL   H46648074   1.278   4.742   8.135  0.6320  1.4670 -0.0584
   45MOL   H46748075   1.432   4.850   7.954  1.9531  0.0651  1.9421
   45MOL   H46848076   1.782   4.987   7.757 -0.8312  2.4889  2.0167
   45MOL   H46948077   1.970   5.090   7.868  0.2523  0.1141 -0.3340
   45MOL   H47048078   2.275   4.986   0.006 -0.6572  0.6959 -0.1789
   45MOL   H47148079   2.497   4.911   0.026  1.1758 -1.1769 -0.1255
   45MOL   H47248080   2.843   4.858   8.093 -0.0959  0.5111 -1.2918
   45MOL   H47348081   2.702   4.970   8.096  2.0632  1.1330  0.5916
   45MOL   H47448082   2.741   4.892   7.957 -0.0182  0.1462 -0.1618
   45MOL   H47548083   2.665   4.804   0.076  1.3424 -0.8126 -0.4576
   45MOL   H47648084   2.592   4.656   0.041 -3.3441  2.4624 -0.1277
   45MOL   H47748085   2.763   4.670   0.019  1.2843  1.4624 -0.4602
   45MOL   H47848086   2.486   4.537   8.084 -2.1285 -1.1418 -1.9783
   45MOL   H47948087   2.501   4.338   7.934 -0.3598  0.4939  0.7463
   45MOL   H48048088   2.865   4.490   7.776 -0.4190 -0.9777  0.0489
   45MOL   H48148089   2.861   4.692   7.933  0.0927 -0.6119  0.6052
   45MOL   H48248090   2.480   4.750   7.876 -0.4887 -2.7973  1.5249
   45MOL   H48348091   2.241   4.824   7.866  0.7826 -1.3038 -0.5290
   45MOL   H48448092   2.047   4.716   8.070 -1.1299 -2.4321 -2.4166
   45MOL   H48548093   1.838   4.626   7.980  0.6322  0.0782 -0.0586
   45MOL   H48648094   1.635   4.476   7.901 -0.0034  0.6720 -1.1585
   45MOL   H48748095   1.499   4.378   8.089  0.0528 -0.7877 -1.1080
   45MOL   C48848096   2.636   4.306   7.639 -0.0687 -0.2052  0.3078
   45MOL   C48948097   2.707   4.371   7.534  0.8196 -0.5695 -0.2950
   45MOL   C49048098   2.640   4.396   7.417 -0.1640 -0.3379 -1.1945
   45MOL   C49148099   2.511   4.352   7.394  0.2273  0.6115 -0.2574
   45MOL   S49248100   2.429   4.361   7.229 -0.1047 -0.8109  0.6041
   45MOL   O49348101   2.503   4.459   7.149 -0.1136  0.3513  0.9420
   45MOL   O49448102   2.282   4.366   7.246 -0.1551  0.2616  0.1373
   45MOL   C49548103   2.464   4.203   7.161  0.1664 -0.3190  0.4751
   45MOL   C49648104   2.566   4.194   7.067 -0.4401 -0.2557  0.6124
   45MOL   C49748105   2.592   4.074   7.002  0.1337  0.1773 -0.1033
   45MOL   C49848106   2.512   3.962   7.027  0.8919 -0.0370 -0.1765
   45MOL   O49948107   2.523   3.846   6.951  0.2644  0.4273 -0.3091
   45MOL   C50048108   2.437   3.842   6.848 -0.0548  0.2803 -0.2653
   45MOL   C50148109   2.307   3.792   6.870 -0.4482 -0.0232 -0.1003
   45MOL   C50248110   2.223   3.794   6.762 -0.7863  0.1367 -0.4994
   45MOL   C50348111   2.251   3.857   6.639  0.2839  0.0654  0.0679
   45MOL   C50448112   2.144   3.868   6.527  0.2000 -0.3079  0.1781
   45MOL   C50548113   2.124   3.728   6.463  0.2343 -0.6831 -0.5320
   45MOL   C50648114   2.007   3.896   6.595  0.6988 -0.1834 -0.0621
   45MOL   C50748115   2.181   3.974   6.417 -0.4426 -0.6604 -0.3928
   45MOL   C50848116   2.161   4.113   6.446 -1.5487  0.4073 -0.3641
   45MOL   C50948117   2.219   4.209   6.359 -0.3562 -0.1174  0.5044
   45MOL   C51048118   2.293   4.165   6.243  0.1120 -0.0715  0.5811
   45MOL   O51148119   2.357   4.255   6.164  0.1747  0.1372  0.2856
   45MOL   C51248120   2.295   4.032   6.211 -0.6447 -0.7657 -0.1730
   45MOL   C51348121   2.242   3.936   6.299 -0.4914 -0.1327  0.3150
   45MOL   C51448122   2.376   3.920   6.622  0.3198 -0.1062 -0.2464
   45MOL   C51548123   2.474   3.906   6.729  0.0769  0.1799  0.6071
   45MOL   C51648124   2.406   3.974   7.118 -0.1882 -1.2229 -0.1832
   45MOL   C51748125   2.385   4.092   7.192 -0.4975  0.2456 -0.2729
   45MOL   C51848126   2.438   4.284   7.493  0.3402  0.1736 -0.3798
   45MOL   C51948127   2.502   4.269   7.622  0.3785 -0.2868 -0.4588
   45MOL   H52048128   2.811   4.393   7.552  1.0791 -0.2197 -2.1756
   45MOL   H52148129   2.693   4.447   7.338 -0.1720  0.3193 -0.7805
   45MOL   H52248130   2.628   4.280   7.048  0.2712 -0.3601  2.3734
   45MOL   H52348131   2.666   4.067   6.924  1.5759 -0.7395  1.3137
   45MOL   H52448132   2.263   3.755   6.962  1.2171  0.4461  0.9042
   45MOL   H52548133   2.125   3.750   6.775  0.3994 -1.8265  2.2563
   45MOL   H52648134   2.075   3.654   6.527  0.4062  0.3109  0.7551
   45MOL   H52748135   2.215   3.684   6.423 -0.3704 -2.1691 -0.3397
   45MOL   H52848136   2.057   3.744   6.378 -1.4385 -0.3571  0.8200
   45MOL   H52948137   1.984   3.828   6.677  1.2383  0.0472  0.2787
   45MOL   H53048138   1.997   3.994   6.641  0.0495  0.2213 -1.0380
   45MOL   H53148139   1.925   3.895   6.523 -1.5205 -1.4895  2.3872
   45MOL   H53248140   2.118   4.150   6.538  0.2150  1.8450 -0.0914
   45MOL   H53348141   2.215   4.314   6.380 -3.0558 -0.6023  2.7861
   45MOL   H53448142   2.345   4.011   6.118  1.6134 -0.0186  0.8368
   45MOL   H53548143   2.247   3.833   6.268 -1.3157  1.3398 -5.2579
   45MOL   H53648144   2.403   3.981   6.537 -1.2027  0.2351 -0.4944
   45MOL   H53748145   2.573   3.947   6.712  0.7970 -1.7182  0.0888
   45MOL   H53848146   2.344   3.887   7.133  0.4824 -1.7790 -0.6175
   45MOL   H53948147   2.318   4.097   7.277 -3.3453 -2.0916 -2.3190
   45MOL   H54048148   2.338   4.251   7.473  0.2083 -0.5500  1.3532
   45MOL   H54148149   2.454   4.226   7.709  1.5842 -1.9520 -0.5885
   45MOL   C54248150   2.306   4.273   6.039  0.6064  0.0370 -0.2532
   45MOL   C54348151   2.388   4.248   5.922  0.3797  0.1785 -1.0258
   45MOL   C54448152   2.331   4.254   5.788 -0.1523 -0.1171  0.7632
   45MOL   C54548153   2.196   4.280   5.775  0.1827  0.2670 -0.4700
   45MOL   S54648154   2.140   4.285   5.611  0.2875 -0.2459 -0.2647
   45MOL   O54748155   2.199   4.164   5.550 -0.4443  0.4144 -0.3079
   45MOL   O54848156   2.185   4.412   5.547  0.5442  0.3527 -0.0887
   45MOL   C54948157   1.957   4.285   5.591 -0.5577  0.6717  0.5028
   45MOL   C55048158   1.888   4.405   5.587  0.0894  0.1992 -0.2515
   45MOL   C55148159   1.749   4.405   5.556 -1.0358  0.3199 -0.1006
   45MOL   C55248160   1.685   4.281   5.540  0.4749  0.3363 -0.8577
   45MOL   O55348161   1.549   4.263   5.516  0.6899  0.1287  0.1078
   45MOL   C55448162   1.476   4.217   5.629 -0.7012 -0.1528  0.1506
   45MOL   C55548163   1.399   4.099   5.613  0.0845 -0.2035  0.0728
   45MOL   C55648164   1.310   4.054   5.709 -0.8608 -0.0165  0.5181
   45MOL   C55748165   1.299   4.119   5.830 -0.2140  0.5815  0.7242
   45MOL   C55848166   1.222   4.061   5.948  0.1568  0.4454 -1.0252
   45MOL   C55948167   1.157   3.929   5.905  0.0296 -0.2542  0.6535
   45MOL   C56048168   1.316   4.031   6.063  0.5423 -0.0588  0.0830
   45MOL   C56148169   1.103   4.149   5.995  0.0713 -0.2775  0.0264
   45MOL   C56248170   1.043   4.128   6.121 -0.1047 -0.3972 -0.5683
   45MOL   C56348171   0.927   4.199   6.159 -0.2329 -0.2341 -0.3975
   45MOL   C56448172   0.865   4.285   6.072  0.1448 -0.3358  0.3885
   45MOL   O56548173   0.748   4.355   6.106  0.4862  0.3682 -0.3636
   45MOL   C56648174   0.928   4.313   5.947  0.4295 -0.7872  0.6727
   45MOL   C56748175   1.039   4.239   5.910 -1.2075  0.1026  0.4644
   45MOL   C56848176   1.353   4.252   5.843  0.2737  0.2589 -0.2063
   45MOL   C56948177   1.444   4.295   5.742 -0.0236  0.1639  0.1335
   45MOL   C57048178   1.757   4.164   5.567  0.3124 -0.5973 -0.4431
   45MOL   C57148179   1.894   4.163   5.588  0.3275 -0.4362  0.7883
   45MOL   C57248180   2.111   4.314   5.883 -0.2565 -0.3803  0.5909
   45MOL   C57348181   2.167   4.306   6.012 -0.7862 -0.0638  1.1034
   45MOL   H57448182   2.488   4.210   5.935  0.2539  0.3049  0.3501
   45MOL   H57548183   2.389   4.227   5.702 -0.1925 -2.3429  1.4019
   45MOL   H57648184   1.939   4.500   5.587 -0.8668  0.7867  3.0105
   45MOL   H57748185   1.702   4.502   5.547  1.1154  1.2857 -1.3289
   45MOL   H57848186   1.405   4.032   5.528 -0.3022 -0.1934  0.0362
   45MOL   H57948187   1.256   3.961   5.696 -0.7258 -0.4146  2.6438
   45MOL   H58048188   1.080   3.940   5.828 -1.1135  1.5040  1.9861
   45MOL   H58148189   1.115   3.880   5.993 -1.7452  1.7472  0.9624
   45MOL   H58248190   1.227   3.856   5.864 -0.5253 -0.5246  0.1750
   45MOL   H58348191   1.366   4.123   6.094  0.7525  0.4327 -1.6632
   45MOL   H58448192   1.264   4.003   6.155  0.1097 -0.4088 -0.2680
   45MOL   H58548193   1.409   3.976   6.047  0.6663  0.5931 -1.4889
   45MOL   H58648194   1.078   4.054   6.192 -0.2524  1.5894  1.6173
   45MOL   H58748195   0.896   4.192   6.262  0.5697 -0.7288 -0.1852
   45MOL   H58848196   0.870   4.377   5.882 -0.1480 -1.8489  0.1370
   45MOL   H58948197   1.071   4.248   5.807  0.5773 -0.2300  0.9734
   45MOL   H59048198   1.322   4.318   5.923  1.3629  0.6698 -0.1175
   45MOL   H59148199   1.486   4.394   5.743 -0.5540  0.5131 -4.2702
   45MOL   H59248200   1.695   4.078   5.588 -0.3540  0.1196  0.5798
   45MOL   H59348201   1.945   4.068   5.597 -1.6673 -1.6784 -0.5150
   45MOL   H59448202   2.012   4.351   5.860  0.2282 -0.0103 -1.0098
   45MOL   H59548203   2.109   4.344   6.094 -0.9051  1.4787  0.3183
   45MOL   C59648204   0.632   4.296   6.074 -0.2427 -0.4750 -0.5693
   45MOL   C59748205   0.574   4.205   6.158 -0.0220 -0.1355  0.1668
   45MOL   C59848206   0.438   4.164   6.131 -0.3835  0.0307  0.4504
   45MOL   C59948207   0.381   4.194   6.008  0.4360 -0.1761  0.3929
   45MOL   S60048208   0.217   4.146   5.966  0.1677 -0.0262 -0.5068
   45MOL   O60148209   0.144   4.257   5.902 -0.0009  0.1969  0.1623
   45MOL   O60248210   0.162   4.061   6.074  0.4387 -0.2869 -0.3328
   45MOL   C60348211   0.246   4.027   5.828 -0.2076  0.6881  0.0024
   45MOL   C60448212   0.361   4.029   5.754  0.2576  0.1256 -0.5521
   45MOL   C60548213   0.371   3.935   5.648 -0.4233 -0.4894  0.0311
   45MOL   C60648214   0.274   3.837   5.624  0.3825 -0.3622  0.0638
   45MOL   O60748215   0.295   3.763   5.510 -0.2357 -0.8996 -0.1239
   45MOL   C60848216   0.317   3.627   5.525  0.1129  0.4161 -0.0669
   45MOL   C60948217   0.448   3.575   5.539 -0.2725  0.5044  0.3093
   45MOL   C61048218   0.459   3.433   5.562 -0.5187 -0.5199 -0.3224
   45MOL   C61148219   0.346   3.345   5.592  0.2624  0.2555  0.3481
   45MOL   C61248220   0.364   3.194   5.621 -0.4377  0.4852  0.9224
   45MOL   C61348221   0.231   3.112   5.604 -0.5463 -0.1968  0.5261
   45MOL   C61448222   0.458   3.131   5.520  0.0203  1.0711  0.5483
   45MOL   C61548223   0.435   3.184   5.753 -0.0050 -0.1367 -0.5460
   45MOL   C61648224   0.577   3.211   5.769 -0.6352  0.4074 -0.1740
   45MOL   C61748225   0.639   3.195   5.897 -0.3305  0.8579  0.5212
   45MOL   C61848226   0.562   3.160   6.006 -0.1633  0.5946  0.2448
   45MOL   O61948227   0.617   3.136   6.126 -0.0432  0.6135  0.1080
   45MOL   C62048228   0.424   3.135   5.992 -0.5314 -0.3103 -0.3360
   45MOL   C62148229   0.364   3.144   5.868 -0.2698 -0.3566 -0.1236
   45MOL   C62248230   0.219   3.402   5.575 -1.2383  0.3558  0.9312
   45MOL   C62348231   0.204   3.538   5.545 -0.4456 -0.4986  0.5740
   45MOL   C62448232   0.154   3.832   5.699  0.4612 -0.4308  0.3235
   45MOL   C62548233   0.140   3.937   5.791  0.3026 -0.1700 -0.3126
   45MOL   C62648234   0.441   4.297   5.926  0.2216 -0.0503  0.1406
   45MOL   C62748235   0.570   4.346   5.959  0.3141  0.3378 -0.9761
   45MOL   H62848236   0.623   4.170   6.247 -1.2298  0.6331  1.1470
   45MOL   H62948237   0.384   4.098   6.198  0.4656  0.2604  1.3818
   45MOL   H63048238   0.439   4.101   5.774  0.5295 -0.7012  1.4873
   45MOL   H63148239   0.460   3.941   5.588 -0.3662 -1.9344 -0.0436
   45MOL   H63248240   0.532   3.636   5.511 -0.6389  0.0954 -1.7874
   45MOL   H63348241   0.559   3.393   5.556 -0.0707  0.7844 -1.6042
   45MOL   H63448242   0.245   3.004   5.599  1.3595  0.0718 -0.2161
   45MOL   H63548243   0.178   3.146   5.515  0.4213  1.9619  0.7384
   45MOL   H63648244   0.163   3.138   5.685 -1.4828  0.3653 -0.4224
   45MOL   H63748245   0.434   3.157   5.417 -0.1199  0.2470  0.3685
   45MOL   H63848246   0.560   3.170   5.518  0.2059  0.5849  0.2647
   45MOL   H63948247   0.472   3.023   5.528 -2.1089  0.6999 -0.3580
   45MOL   H64048248   0.647   3.228   5.689 -0.5776  1.7624  0.1551
   45MOL   H64148249   0.745   3.211   5.913  0.0323 -0.8737 -0.0597
   45MOL   H64248250   0.364   3.108   6.077 -1.0070  0.4555 -0.4204
   45MOL   H64348251   0.266   3.099   5.866  0.8913 -2.9726  0.3105
   45MOL   H64448252   0.123   3.355   5.593 -1.5377  0.3033 -0.6950
   45MOL   H64548253   0.105   3.580   5.538 -1.3306 -2.4387  1.2764
   45MOL   H64648254   0.078   3.758   5.679 -1.5048  1.4147  0.7017
   45MOL   H64748255   0.047   3.952   5.844 -0.7304 -3.7165 -0.9981
   45MOL   H64848256   0.401   4.336   5.834 -0.0173  2.0552  1.0893
   45MOL   H64948257   0.630   4.416   5.904  1.9942  0.5299  1.0330
   45MOL   C65048258   0.627   3.235   6.220 -0.6440 -0.2956  0.5254
   45MOL   C65148259   0.733   3.331   6.211 -0.3086  0.1703 -0.6612
   45MOL   C65248260   0.752   3.426   6.311 -0.4970  0.8160  0.2852
   45MOL   C65348261   0.656   3.433   6.420 -0.3589 -0.3026 -0.1662
   45MOL   S65448262   0.654   3.564   6.543 -0.4272  0.0321 -0.3354
   45MOL   O65548263   0.712   3.686   6.494  0.0376 -0.0052 -0.1144
   45MOL   O65648264   0.712   3.508   6.667  0.6561  0.9174 -0.0707
   45MOL   C65748265   0.478   3.589   6.563  0.1501  0.1148  0.5429
   45MOL   C65848266   0.419   3.545   6.683 -0.0273 -0.6290 -0.6345
   45MOL   C65948267   0.283   3.557   6.704 -0.0570 -0.5245  0.3372
   45MOL   C66048268   0.196   3.610   6.608  0.7190  0.4942  0.0615
   45MOL   O66148269   0.063   3.612   6.635  0.1782 -0.1885 -1.0537
   45MOL   C66248270   8.222   3.593   6.536  0.2062  0.3385  0.3385
   45MOL   C66348271   8.107   3.668   6.536 -0.1355 -0.1497 -0.0757
   45MOL   C66448272   8.012   3.635   6.436  0.1047 -0.7899 -0.1866
   45MOL   C66548273   8.027   3.536   6.338  0.0688  0.3096  0.7405
   45MOL   C66648274   7.934   3.529   6.219  0.6421  0.3376 -0.3759
   45MOL   C66748275   7.960   3.405   6.118 -0.2671  0.2281  0.5358
   45MOL   C66848276   7.794   3.515   6.273  0.4349  0.4652 -0.2381
   45MOL   C66948277   7.945   3.658   6.134 -0.3527 -0.7605 -0.1466
   45MOL   C67048278   7.836   3.730   6.081  0.2069  0.7584  0.2863
   45MOL   C67148279   7.864   3.845   6.004 -0.1583 -0.7684  0.5949
   45MOL   C67248280   7.993   3.888   5.972  0.0130 -0.3681 -0.2240
   45MOL   O67348281   8.020   3.993   5.893  0.2085  0.0697  0.0697
   45MOL   C67448282   8.099   3.811   6.017  0.0833  0.0736 -0.8122
   45MOL   C67548283   8.077   3.703   6.103  0.2901 -0.0005  1.0162
   45MOL   C67648284   8.144   3.457   6.339 -0.6313 -0.4822 -0.5643
   45MOL   C67748285   8.238   3.490   6.440 -0.0249 -0.2394  0.0652
   45MOL   C67848286   0.254   3.653   6.483 -0.0977 -0.4939 -0.3409
   45MOL   C67948287   0.395   3.642   6.458  0.2688 -0.0767  0.5214
   45MOL   C68048288   0.556   3.337   6.428 -0.5810  0.1715  0.1323
   45MOL   C68148289   0.536   3.238   6.325 -0.3591 -0.0088 -0.2515
   45MOL   H68248290   0.804   3.326   6.130 -0.2356 -0.4605 -0.5678
   45MOL   H68348291   0.835   3.495   6.303 -0.8386  1.2128  0.1740
   45MOL   H68448292   0.481   3.494   6.756  0.8537  0.5466 -0.5273
   45MOL   H68548293   0.246   3.514   6.796  1.2687 -0.2110  1.0392
   45MOL   H68648294   8.091   3.754   6.600 -1.1206 -0.4994  0.1605
   45MOL   H68748295   7.924   3.698   6.433  0.4095 -0.4226 -3.0066
   45MOL   H68848296   7.959   3.313   6.176  0.1852 -2.1291 -3.0096
   45MOL   H68948297   8.060   3.418   6.076 -1.0597  0.6501 -1.2726
   45MOL   H69048298   7.896   3.401   6.030  1.1794 -2.9380 -0.4503
   45MOL   H69148299   7.782   3.447   6.357  1.2645  0.8025  0.1554
   45MOL   H69248300   7.758   3.614   6.303 -3.3541 -0.1075 -2.5407
   45MOL   H69348301   7.720   3.480   6.201  2.2216  0.4582 -2.1151
   45MOL   H69448302   7.730   3.715   6.093  0.2713  1.2082  1.4105
   45MOL   H69548303   7.775   3.887   5.958  0.1080 -0.3427  0.4632
   45MOL   H69648304   8.200   3.836   5.987  0.1064 -1.2286 -1.8764
   45MOL   H69748305   8.161   3.640   6.132 -0.0398 -0.3270  1.2662
   45MOL   H69848306   8.166   3.380   6.267  0.4430  0.0717 -0.8465
   45MOL   H69948307   0.076   3.432   6.433  0.0280 -0.3375  1.5567
   45MOL   H70048308   0.189   3.687   6.404  1.5171  2.3702 -0.5127
   45MOL   H70148309   0.429   3.668   6.359 -0.7253  0.1162  0.2205
   45MOL   H70248310   0.490   3.331   6.514  0.3831 -0.0186  0.8762
   45MOL   H70348311   0.463   3.159   6.331  0.8767 -1.3112 -1.8212
   45MOL   C70448312   8.009   4.115   5.949 -0.0345  0.0857  0.2914
   45MOL   C70548313   8.085   4.150   6.061  0.1629 -0.0895 -0.2106
   45MOL   C70648314   8.065   4.275   6.127  0.2318  0.8628  0.1669
   45MOL   C70748315   7.978   4.366   6.072 -0.6571  0.1224 -0.3445
   45MOL   S70848316   7.941   4.530   6.145 -0.5480  0.2704  0.2687
   45MOL   O70948317   7.890   4.515   6.284  0.0330  0.2349  0.0262
   45MOL   O71048318   7.853   4.610   6.057 -1.4733 -0.4888  0.1223
   45MOL   C71148319   8.094   4.624   6.146  0.1459  0.3434  0.3694
   45MOL   C71248320   8.182   4.596   6.249 -0.0739  0.0850 -0.5509
   45MOL   C71348321   0.049   4.664   6.261  0.6974 -0.4746  0.0220
   45MOL   C71448322   0.089   4.754   6.161 -0.5415 -0.1189 -0.7869
   45MOL   O71548323   0.210   4.818   6.168 -0.2956 -0.5009 -0.2146
   45MOL   C71648324   0.285   4.817   6.053  0.6397  0.0485  0.7085
   45MOL   C71748325   0.334   4.693   6.004 -0.0594  0.2206 -0.4031
   45MOL   C71848326   0.430   4.706   5.900  0.1192  0.6864  0.2889
   45MOL   C71948327   0.480   4.826   5.850 -0.4907 -0.6563 -0.6294
   45MOL   C72048328   0.583   4.837   5.738 -1.0994 -0.8686 -0.3528
   45MOL   C72148329   0.610   4.697   5.684 -0.1541  0.6545  0.4119
   45MOL   C72248330   0.534   4.920   5.619  0.0032  0.3391  0.7285
   45MOL   C72348331   0.723   4.884   5.792  0.1299  0.4470 -0.7704
   45MOL   C72448332   0.773   4.813   5.907 -0.2836  0.8446 -0.1380
   45MOL   C72548333   0.896   4.843   5.970 -0.6274 -0.1740  0.1687
   45MOL   C72648334   0.963   4.959   5.931 -0.1072 -0.8177 -0.1748
   45MOL   O72748335   1.074   4.996   5.985 -0.7178 -0.0838  0.2440
   45MOL   C72848336   0.916   5.034   5.819  0.1305  0.0405  0.4504
   45MOL   C72948337   0.797   4.995   5.746  0.0237  0.3683 -0.0080
   45MOL   C73048338   0.432   4.953   5.906  0.1610  0.0820 -0.0569
   45MOL   C73148339   0.327   4.946   6.006  0.0380 -0.6667  0.5865
   45MOL   C73248340   8.253   4.774   6.049 -0.4574  0.0969  0.0136
   45MOL   C73348341   8.124   4.716   6.049  0.1823  0.2286  0.9194
   45MOL   C73448342   7.911   4.335   5.948 -0.8993  0.2942  0.3217
   45MOL   C73548343   7.925   4.207   5.889  0.2247  0.5035  0.8104
   45MOL   H73648344   8.153   4.079   6.106  2.8711  0.8717 -2.6111
   45MOL   H73748345   8.113   4.298   6.221  0.4057  1.2926 -0.0265
   45MOL   H73848346   8.160   4.524   6.327  1.2750 -0.3034 -0.5181
   45MOL   H73948347   0.114   4.627   6.340 -2.4921 -0.1520  2.9261
   45MOL   H74048348   0.308   4.596   6.045  0.8801  0.1523  0.0471
   45MOL   H74148349   0.454   4.612   5.853  0.4267  0.4836  0.8538
   45MOL   H74248350   0.635   4.623   5.760  4.3432 -0.2945 -1.8335
   45MOL   H74348351   0.687   4.702   5.607 -1.2362 -1.1885 -0.8256
   45MOL   H74448352   0.527   4.650   5.630 -0.0281 -0.3509  1.0802
   45MOL   H74548353   0.528   5.027   5.635 -1.0072  0.3209  0.4914
   45MOL   H74648354   0.598   4.913   5.530  0.4602  2.0408  0.9113
   45MOL   H74748355   0.437   4.884   5.585 -0.1709  0.7279  0.8177
   45MOL   H74848356   0.722   4.723   5.939  1.0600  0.0720 -0.1149
   45MOL   H74948357   0.933   4.803   6.063  1.8826  0.1822 -0.6170
   45MOL   H75048358   0.962   5.127   5.788 -1.4125  1.0416  1.1485
   45MOL   H75148359   0.759   5.053   5.664  0.8791 -0.3021 -0.8881
   45MOL   H75248360   0.462   5.047   5.862  0.2681  0.3938  0.6831
   45MOL   H75348361   0.302   5.041   6.051 -1.3347  0.7733 -2.9883
   45MOL   H75448362   0.036   4.830   5.965 -0.9363 -1.4478 -1.2504
   45MOL   H75548363   8.053   4.729   5.968  0.6889  0.0707  0.4489
   45MOL   H75648364   7.842   4.400   5.897  0.8650  1.5615 -0.5102
   45MOL   H75748365   7.879   4.170   5.799  2.4433  0.9776 -0.5387
   45MOL   C75848366   1.074   5.105   6.068 -0.4348  0.7218  0.2604
   45MOL   C75948367   0.962   5.171   6.123 -0.4358  0.1456 -0.2774
   45MOL   C76048368   0.981   5.281   6.206 -0.8749  0.0094 -0.4031
   45MOL   C76148369   1.111   5.327   6.224 -0.4461 -0.3655  0.3867
   45MOL   S76248370   1.145   5.446   6.360 -0.2582  0.0980  0.1616
   45MOL   O76348371   1.272   5.411   6.424  0.3455  0.4412 -0.2705
   45MOL   O76448372   1.024   5.464   6.439 -0.2808 -0.7413  0.3141
   45MOL   C76548373   1.181   5.604   6.278  0.0553  0.3082 -0.5790
   45MOL   C76648374   1.165   5.619   6.137  0.2742 -0.4883 -0.1314
   45MOL   C76748375   1.196   5.747   6.077  0.7766 -0.5623 -0.4961
   45MOL   C76848376   1.225   5.858   6.156  0.0265  0.9111  0.1594
   45MOL   O76948377   1.229   5.987   6.106  0.2012 -0.0598  0.6053
   45MOL   C77048378   1.327   6.023   6.019  0.3031 -0.4094 -0.2968
   45MOL   C77148379   1.456   5.969   6.025  0.9871 -0.6661 -0.4161
   45MOL   C77248380   1.555   5.991   5.933  0.1746 -0.7189 -1.1246
   45MOL   C77348381   1.538   6.092   5.833 -0.2671  0.2028 -0.1566
   45MOL   C77448382   1.647   6.127   5.736 -1.1557 -0.0087  0.0349
   45MOL   C77548383   1.743   6.211   5.820  0.8342 -0.1431 -0.0453
   45MOL   C77648384   1.723   6.001   5.687  0.6881  0.2237  0.6665
   45MOL   C77748385   1.603   6.202   5.613  1.3355  0.1707  0.4393
   45MOL   C77848386   1.527   6.138   5.514  0.3353 -0.0546  0.7395
   45MOL   C77948387   1.496   6.200   5.397  0.2975 -0.3424 -0.4727
   45MOL   C78048388   1.535   6.331   5.373  0.8559 -0.6950 -0.2828
   45MOL   O78148389   1.490   6.398   5.263  0.0844 -0.2586  0.1962
   45MOL   C78248390   1.607   6.400   5.473  0.4635 -0.3377 -0.4545
   45MOL   C78348391   1.639   6.339   5.592  1.3361  0.0396  0.3369
   45MOL   C78448392   1.410   6.165   5.834 -0.3789  0.3893  0.1119
   45MOL   C78548393   1.310   6.128   5.925  0.1591 -0.1476 -0.3788
   45MOL   C78648394   1.255   5.833   6.291 -0.9066 -0.0352  0.6198
   45MOL   C78748395   1.228   5.711   6.355  0.0044 -0.1354  0.0171
   45MOL   C78848396   1.220   5.281   6.151  0.6384 -0.0942  0.1554
   45MOL   C78948397   1.205   5.160   6.080  0.7733  0.0489  0.1131
   45MOL   H79048398   0.861   5.134   6.115 -0.2328 -0.5001  0.0339
   45MOL   H79148399   0.902   5.327   6.264 -0.8456  1.0055 -1.1247
   45MOL   H79248400   1.138   5.539   6.069  1.8997 -0.7323 -0.5051
   45MOL   H79348401   1.177   5.743   5.970 -2.3247  1.5750 -0.0940
   45MOL   H79448402   1.483   5.906   6.108  0.5267  0.1053  0.3224
   45MOL   H79548403   1.644   5.930   5.931 -1.0452 -2.5204 -1.4514
   45MOL   H79648404   1.687   6.296   5.859 -0.2273 -1.6717  1.8734
   45MOL   H79748405   1.815   6.259   5.754  2.9894 -1.6833  1.1180
   45MOL   H79848406   1.779   6.152   5.904  0.0310  2.1515  1.9581
   45MOL   H79948407   1.665   5.910   5.673 -1.0642  1.0572  2.3575
   45MOL   H80048408   1.768   6.034   5.593  0.0353  0.1700  0.3297
   45MOL   H80148409   1.808   5.972   5.747  2.3729  0.4515 -1.5163
   45MOL   H80248410   1.497   6.036   5.530  2.0679 -0.9263 -1.3953
   45MOL   H80348411   1.434   6.149   5.324  0.2974  0.4047 -1.0001
   45MOL   H80448412   1.627   6.506   5.462 -0.7517 -0.1671 -1.2160
   45MOL   H80548413   1.677   6.401   5.672  1.6579 -0.2714  0.4286
   45MOL   H80648414   1.387   6.236   5.756  0.5851 -0.9775 -1.4555
   45MOL   H80748415   1.215   6.180   5.926 -1.2388 -2.5718  3.6740
   45MOL   H80848416   1.298   5.915   6.346 -0.6426 -0.1579  0.5981
   45MOL   H80948417   1.245   5.699   6.461  0.9653  0.9717 -0.0081
   45MOL   H81048418   1.313   5.334   6.162  1.0525 -0.7217 -0.2333
   45MOL   H81148419   1.283   5.110   6.025  0.8080  0.9759 -0.6985
   45MOL   C81248420   1.585   6.425   5.169  0.1989 -0.1135  0.6220
   45MOL   C81348421   1.647   6.549   5.173 -0.0405  0.0973 -0.0983
   45MOL   C81448422   1.749   6.578   5.075 -0.5234 -0.4410 -0.0542
   45MOL   C81548423   1.782   6.476   4.981 -0.1894  0.2769 -0.0317
   45MOL   S81648424   1.917   6.492   4.862  0.1542  0.2160  0.2861
   45MOL   O81748425   1.987   6.361   4.853  0.6822 -0.2500  0.2518
   45MOL   O81848426   1.998   6.606   4.899  0.3261  0.5819  0.1411
   45MOL   C81948427   1.847   6.523   4.697  0.2708 -0.5511 -0.5003
   45MOL   C82048428   1.922   6.489   4.581  0.2701 -0.4707  0.3345
   45MOL   C82148429   1.871   6.520   4.452  0.1870  0.1255  0.6989
   45MOL   C82248430   1.754   6.599   4.439  0.8032  0.8712 -0.1227
   45MOL   O82348431   1.723   6.639   4.311  0.1249  0.1843  0.2006
   45MOL   C82448432   1.760   6.761   4.278  0.1608 -0.1977  0.6682
   45MOL   C82548433   1.681   6.871   4.310 -0.1984  0.0713  0.9961
   45MOL   C82648434   1.713   6.999   4.261  0.2926 -0.8806 -0.1820
   45MOL   C82748435   1.827   7.020   4.180 -0.1549 -1.0243 -0.0108
   45MOL   C82848436   1.866   7.156   4.128  0.1549 -0.0403 -0.5623
   45MOL   C82948437   1.800   7.271   4.194 -0.1372  0.5274  0.1630
   45MOL   C83048438   2.018   7.187   4.141  0.1068 -0.6271 -0.1993
   45MOL   C83148439   1.828   7.160   3.983 -0.0716 -0.4757 -0.1933
   45MOL   C83248440   1.692   7.134   3.958 -0.6134 -0.0561  0.0721
   45MOL   C83348441   1.645   7.140   3.824 -0.6748 -0.3277  0.1141
   45MOL   C83448442   1.731   7.183   3.717 -0.2654 -0.8618 -0.1612
   45MOL   O83548443   1.694   7.186   3.582 -0.4488 -0.4004 -0.1692
   45MOL   C83648444   1.857   7.223   3.747  0.0889 -0.3178 -0.0375
   45MOL   C83748445   1.911   7.208   3.877 -0.0043 -0.4756 -0.0235
   45MOL   C83848446   1.910   6.906   4.160  0.4307  0.3375 -0.1332
   45MOL   C83948447   1.878   6.774   4.203 -0.1055  0.0071  0.0529
   45MOL   C84048448   1.681   6.646   4.556 -0.4209  0.2226 -0.2609
   45MOL   C84148449   1.727   6.603   4.684 -0.6738 -0.2322  0.3611
   45MOL   C84248450   1.713   6.356   4.979  0.8057 -0.3863 -0.1820
   45MOL   C84348451   1.612   6.329   5.070 -0.3157 -0.3359  1.0374
   45MOL   H84448452   1.621   6.635   5.234 -1.9454 -0.1297 -0.5584
   45MOL   H84548453   1.795   6.675   5.066 -0.4368 -0.4492  0.2636
   45MOL   H84648454   2.024   6.454   4.588  1.3670  1.7706 -3.2615
   45MOL   H84748455   1.932   6.494   4.368 -1.8740  1.2178 -1.1893
   45MOL   H84848456   1.591   6.845   4.363 -0.7737 -0.0143 -0.0084
   45MOL   H84948457   1.653   7.087   4.277  0.1518 -0.6967 -1.7028
   45MOL   H85048458   1.828   7.274   4.299 -1.0933 -1.6724  0.5103
   45MOL   H85148459   1.691   7.268   4.195 -0.1207 -0.8318  3.1912
   45MOL   H85248460   1.833   7.367   4.156 -0.6720  0.8068  0.3871
   45MOL   H85348461   2.039   7.286   4.101  2.0492  0.2244  2.7490
   45MOL   H85448462   2.055   7.173   4.242  0.7179 -0.6798 -0.4314
   45MOL   H85548463   2.076   7.115   4.084  3.8066  2.5547 -0.6741
   45MOL   H85648464   1.625   7.102   4.036  0.3152  0.7456  1.2146
   45MOL   H85748465   1.544   7.110   3.804 -0.9387 -0.5647  1.7254
   45MOL   H85848466   1.926   7.250   3.668 -1.7449  0.9653 -1.2324
   45MOL   H85948467   2.017   7.226   3.884 -0.2436  1.1355 -0.2523
   45MOL   H86048468   2.005   6.932   4.114 -0.2913 -1.1291 -2.5485
   45MOL   H86148469   1.948   6.696   4.179  0.1237 -0.4174  2.0179
   45MOL   H86248470   1.589   6.700   4.540 -0.3027  0.3543 -0.5034
   45MOL   H86348471   1.677   6.632   4.775 -0.3368  1.7283 -0.0714
   45MOL   H86448472   1.751   6.277   4.916  2.6451 -0.9458  1.5490
   45MOL   H86548473   1.570   6.230   5.070  2.7417 -1.6748 -0.0746
   45MOL   C86648474   1.770   7.117   3.488  0.4837 -0.8793 -0.2960
   45MOL   C86748475   1.760   7.160   3.357  0.5286  0.0950 -0.7022
   45MOL   C86848476   1.830   7.099   3.250 -0.5947 -0.5143  0.3843
   45MOL   C86948477   1.906   6.982   3.280 -0.1690 -0.2937 -0.5944
   45MOL   S87048478   2.012   6.908   3.156  0.3331  0.6910  0.0480
   45MOL   O87148479   2.116   6.848   3.241 -0.6051 -0.2930 -0.3634
   45MOL   O87248480   2.049   7.011   3.059  0.0400 -0.1255  0.5005
   45MOL   C87348481   1.911   6.786   3.073  0.2366  0.2292  0.0515
   45MOL   C87448482   1.801   6.821   2.994 -0.5515 -0.0167 -0.0827
   45MOL   C87548483   1.705   6.725   2.958 -0.1190 -0.2266  0.3678
   45MOL   C87648484   1.720   6.590   2.988 -0.0010  0.0894  1.2913
   45MOL   O87748485   1.625   6.495   2.956 -0.4559 -0.2678  0.1747
   45MOL   C87848486   1.536   6.510   2.855  0.6728 -0.4444 -0.0917
   45MOL   C87948487   1.419   6.591   2.875 -0.9299 -0.1627 -0.5084
   45MOL   C88048488   1.328   6.611   2.767 -0.2335 -0.0317  0.1010
   45MOL   C88148489   1.355   6.545   2.641  0.0199 -0.9532  0.0746
   45MOL   C88248490   1.266   6.574   2.517 -0.5029  0.0108  0.2596
   45MOL   C88348491   1.133   6.662   2.531  0.4489 -0.3767 -1.2615
   45MOL   C88448492   1.347   6.644   2.408  0.4086 -0.2349 -0.1557
   45MOL   C88548493   1.220   6.439   2.469  0.7093 -0.4034  0.2504
   45MOL   C88648494   1.258   6.371   2.346 -0.5046  0.2015 -0.4283
   45MOL   C88748495   1.205   6.248   2.317  0.0966  0.1095 -0.4577
   45MOL   C88848496   1.117   6.185   2.403 -0.8049 -0.0522 -0.2562
   45MOL   O88948497   1.055   6.068   2.372  0.5216 -0.7669 -0.8039
   45MOL   C89048498   1.074   6.244   2.524 -0.5849  0.0892 -0.8980
   45MOL   C89148499   1.132   6.369   2.562  1.3570 -0.2858 -0.3928
   45MOL   C89248500   1.471   6.473   2.621  0.0796 -0.1323  0.3260
   45MOL   C89348501   1.565   6.449   2.730  0.7348 -0.4940  0.3835
   45MOL   C89448502   1.835   6.557   3.067 -0.1528  0.3235 -0.2408
   45MOL   C89548503   1.935   6.653   3.104  0.1049  0.2898  0.1139
   45MOL   C89648504   1.922   6.942   3.416  0.5307 -0.5104 -0.5032
   45MOL   C89748505   1.848   7.005   3.514  0.8634  0.3433  0.6172
   45MOL   H89848506   1.689   7.238   3.335  2.1787  1.9252  0.1994
   45MOL   H89948507   1.825   7.131   3.147  1.4651 -0.6728  0.2060
   45MOL   H90048508   1.779   6.925   2.975 -1.5320  0.0269  1.2067
   45MOL   H90148509   1.618   6.758   2.902  0.9354  2.0921  0.0205
   45MOL   H90248510   1.390   6.642   2.965  0.8544 -0.9429  0.5470
   45MOL   H90348511   1.241   6.674   2.768  0.4396  0.9091  0.1730
   45MOL   H90448512   1.152   6.761   2.570  0.0789 -0.2992 -1.2726
   45MOL   H90548513   1.061   6.614   2.598  0.7086  1.2793  0.2290
   45MOL   H90648514   1.084   6.676   2.434 -4.4420  0.2284  1.1366
   45MOL   H90748515   1.431   6.588   2.368  4.1521  2.4739  3.4621
   45MOL   H90848516   1.285   6.677   2.325  1.7402 -0.5278 -1.2665
   45MOL   H90948517   1.377   6.733   2.465 -1.0598 -0.8030  1.5843
   45MOL   H91048518   1.321   6.415   2.271 -1.1224  1.4118 -0.2471
   45MOL   H91148519   1.212   6.198   2.221  0.7094 -0.7825  0.0453
   45MOL   H91248520   1.003   6.199   2.592  1.8471 -2.2608  0.1674
   45MOL   H91348521   1.105   6.425   2.650  1.2701 -2.4265  0.9619
   45MOL   H91448522   1.487   6.438   2.520  2.3238  0.6399  0.3824
   45MOL   H91548523   1.655   6.394   2.707  1.4995  0.7917  0.2160
   45MOL   H91648524   1.860   6.456   3.095 -3.0516 -0.5523 -0.6934
   45MOL   H91748525   2.011   6.625   3.175 -0.2901  1.7953  1.1507
   45MOL   H91848526   1.988   6.860   3.442  0.7867  0.3226  1.6110
   45MOL   H91948527   1.850   6.962   3.613 -0.6122 -0.5125  0.2842
   45MOL   C92048528   0.948   6.077   2.283 -0.5694  0.0713 -0.4135
   45MOL   C92148529   0.967   6.068   2.146 -0.2663 -0.3050  0.6323
   45MOL   C92248530   0.864   6.091   2.055 -0.0333  0.0700  0.6050
   45MOL   C92348531   0.734   6.088   2.100  0.1886  1.2556 -0.1463
   45MOL   S92448532   0.599   6.114   1.985 -0.0316 -0.1495 -0.7100
   45MOL   O92548533   0.476   6.079   2.054 -0.1222 -0.0092  0.1973
   45MOL   O92648534   0.632   6.060   1.855 -0.1451  0.9840  0.0818
   45MOL   C92748535   0.595   6.293   1.980  0.6726  0.0424  0.7334
   45MOL   C92848536   0.531   6.366   2.083  0.3668 -0.1967  0.1513
   45MOL   C92948537   0.528   6.509   2.080  0.3101 -0.6265  0.0008
   45MOL   C93048538   0.586   6.568   1.964 -0.2515 -0.1178  0.2985
   45MOL   O93148539   0.603   6.707   1.953 -0.6509  0.7284  0.1699
   45MOL   C93248540   0.513   6.795   2.010  0.1548 -1.0268 -0.6365
   45MOL   C93348541   0.382   6.802   1.971 -0.1228 -0.7020 -0.3454
   45MOL   C93448542   0.295   6.890   2.044  0.4962  0.6581  0.4875
   45MOL   C93548543   0.342   6.975   2.147 -0.2408  1.0345 -0.0818
   45MOL   C93648544   0.250   7.078   2.211  0.4695 -0.2990  0.8579
   45MOL   C93748545   0.312   7.149   2.340  0.5490  0.5098 -0.3843
   45MOL   C93848546   0.242   7.191   2.103 -0.2704  0.0625 -0.1034
   45MOL   C93948547   0.114   7.018   2.241 -0.7996  0.2694 -0.3049
   45MOL   C94048548   8.245   7.075   2.190 -0.0140  0.5988  0.0400
   45MOL   C94148549   8.123   7.023   2.229  0.7681 -0.1782  0.1654
   45MOL   C94248550   8.118   6.913   2.318  0.3950  0.2258 -0.2530
   45MOL   O94348551   8.001   6.851   2.351 -0.2962  0.8519  0.5426
   45MOL   C94448552   8.236   6.853   2.370  0.5693 -0.1250  0.4031
   45MOL   C94548553   0.108   6.913   2.337  0.5522 -0.4614 -0.0558
   45MOL   C94648554   0.480   6.963   2.189  0.3289 -0.0932 -0.3752
   45MOL   C94748555   0.562   6.873   2.119 -1.2451 -1.0299  0.3317
   45MOL   C94848556   0.649   6.493   1.860 -0.3829  0.4564  0.0276
   45MOL   C94948557   0.650   6.354   1.870  0.7428 -0.3759  0.5352
   45MOL   C95048558   0.712   6.089   2.241  0.0515 -0.1029 -0.6543
   45MOL   C95148559   0.817   6.078   2.339 -0.4835 -0.6929  0.1018
   45MOL   H95248560   1.066   6.062   2.103  0.5706 -1.5285  2.6470
   45MOL   H95348561   0.888   6.099   1.950 -1.7819 -0.8934  0.1144
   45MOL   H95448562   0.487   6.318   2.170 -0.3912  0.8622  0.3723
   45MOL   H95548563   0.487   6.571   2.159  1.5527 -0.7945  0.7945
   45MOL   H95648564   0.345   6.733   1.896 -2.8190  0.8140 -0.4677
   45MOL   H95748565   0.189   6.890   2.022  0.8512 -2.7153 -1.5343
   45MOL   H95848566   0.399   7.212   2.320 -0.7366  2.3465 -0.2305
   45MOL   H95948567   0.341   7.070   2.410  0.0881  1.6124  1.0443
   45MOL   H96048568   0.238   7.218   2.380 -0.0074  1.6027 -3.2114
   45MOL   H96148569   0.189   7.281   2.132 -0.9925 -0.0132 -1.1740
   45MOL   H96248570   0.348   7.204   2.080 -0.4079 -0.4500 -1.0468
   45MOL   H96348571   0.205   7.155   2.007  1.5982 -0.9452 -0.4720
   45MOL   H96448572   0.002   7.163   2.129 -1.3705  0.3976 -0.4878
   45MOL   H96548573   8.041   7.084   2.195  0.1557 -1.5235 -0.8372
   45MOL   H96648574   8.226   6.763   2.429 -0.0245 -1.6958 -2.0133
   45MOL   H96748575   0.190   6.858   2.381 -0.0698  0.5099  2.3474
   45MOL   H96848576   0.513   7.028   2.269  1.0138 -1.7223  0.7031
   45MOL   H96948577   0.660   6.849   2.159 -0.5264  1.0563 -0.1424
   45MOL   H97048578   0.700   6.543   1.780 -0.3698  2.2927  1.1554
   45MOL   H97148579   0.682   6.298   1.783 -1.9028 -1.1118 -0.0200
   45MOL   H97248580   0.608   6.079   2.266 -0.4261  0.5508 -2.3271
   45MOL   H97348581   0.793   6.080   2.444 -1.7971  0.7444 -0.2167
   45MOL   C97448582   7.949   6.785   2.243 -0.3593 -0.2581  0.7408
   45MOL   C97548583   7.974   6.643   2.222 -0.0911 -0.0665 -0.0247
   45MOL   C97648584   7.935   6.577   2.101  1.2034  0.2954 -0.1311
   45MOL   C97748585   7.868   6.648   1.999  0.3270 -0.1062  0.2420
   45MOL   S97848586   7.809   6.558   1.851 -0.3321 -0.0371 -0.0291
   45MOL   O97948587   7.927   6.518   1.778 -0.0295  0.4542  0.0655
   45MOL   O98048588   7.714   6.653   1.789 -0.3218 -0.6600  0.1253
   45MOL   C98148589   7.708   6.414   1.905 -0.1576 -0.1959  0.4101
   45MOL   C98248590   7.573   6.408   1.865  0.2679 -0.1134 -0.0482
   45MOL   C98348591   7.500   6.299   1.907 -0.0482 -0.1369  0.2510
   45MOL   C98448592   7.553   6.189   1.976 -1.0418 -0.3003 -0.1145
   45MOL   O98548593   7.471   6.081   1.996 -0.3909  0.1489 -0.2204
   45MOL   C98648594   7.476   5.999   2.107 -0.0807 -0.0515 -0.2879
   45MOL   C98748595   7.562   5.887   2.107  0.0987 -0.0322  0.2171
   45MOL   C98848596   7.556   5.790   2.213 -0.1350 -0.8905 -0.0355
   45MOL   C98948597   7.487   5.824   2.331  0.0626  0.1110  0.3722
   45MOL   C99048598   7.476   5.731   2.451  1.0776 -0.7787 -0.1561
   45MOL   C99148599   7.336   5.746   2.530  0.3062 -0.2349 -0.3980
   45MOL   C99248600   7.470   5.586   2.392  0.1224  0.6252  0.3785
   45MOL   C99348601   7.590   5.751   2.553  0.7386  0.5802  0.2099
   45MOL   C99448602   7.706   5.673   2.551  0.2012  0.3234  0.1973
   45MOL   C99548603   7.803   5.699   2.645  0.0811 -0.5561 -0.1413
   45MOL   C99648604   7.797   5.801   2.747 -0.5570 -0.3080 -0.7214
   45MOL   O99748605   7.896   5.795   2.854  0.3054  0.1174  0.6498
   45MOL   C99848606   7.678   5.874   2.746 -0.4683  0.1062 -0.8673
   45MOL   C99948607   7.583   5.850   2.652 -0.8408 -0.5017  0.1414
   45MOL     C148608   7.411   5.946   2.326 -0.3679  0.3281  0.2338
   45MOL     C248609   7.403   6.030   2.221 -0.3364 -0.1171 -0.1871
   45MOL     C348610   7.690   6.197   2.016  0.0327 -0.3387  0.6843
   45MOL     C448611   7.766   6.309   1.972 -0.0875 -0.7442 -0.0805
   45MOL     C548612   7.842   6.784   2.017 -0.4777  0.4664  0.2153
   45MOL     C648613   7.877   6.853   2.138  0.2320 -0.3560 -0.6291
   45MOL     H748614   8.028   6.594   2.302 -2.3525 -0.9675  0.9931
   45MOL     H848615   7.961   6.473   2.086  0.4440 -0.2525  2.1350
   45MOL     H948616   7.529   6.487   1.805 -0.8330 -1.1057 -0.5726
   45MOL    H1048617   7.397   6.284   1.878  0.2530 -0.7387 -0.5268
   45MOL    H1148618   7.620   5.856   2.022 -0.7650  0.3488 -0.5174
   45MOL    H1248619   7.624   5.707   2.210  0.0061 -0.7969  0.5756
   45MOL    H1348620   7.336   5.677   2.614  0.0661  0.1813 -0.0581
   45MOL    H1448621   7.256   5.708   2.466 -2.4288 -0.9861  3.3456
   45MOL    H1548622   7.300   5.844   2.559  1.1225  0.2462 -0.9726
   45MOL    H1648623   7.460   5.512   2.472 -0.4550 -1.4708 -1.5979
   45MOL    H1748624   7.382   5.578   2.329 -0.1528  0.4645  0.7830
   45MOL    H1848625   7.559   5.557   2.335  1.8950  2.0008  2.3734
   45MOL    H1948626   7.729   5.587   2.490 -1.4695 -1.1189  1.5364
   45MOL    H2048627   7.885   5.628   2.644 -0.3896 -1.1037 -0.0470
   45MOL    H2148628   7.672   5.946   2.826  2.9105  0.4111 -0.8072
   45MOL    H2248629   7.502   5.921   2.647 -0.9939 -0.7086 -0.3444
   45MOL    H2348630   7.367   5.979   2.419  2.4340  1.8054  1.0990
   45MOL    H2448631   7.343   6.119   2.226  0.1890  0.2014  0.5815
   45MOL    H2548632   7.744   6.122   2.072  0.1654 -0.7830 -0.0313
   45MOL    H2648633   7.873   6.303   1.977  0.1474  1.9254 -0.8678
   45MOL    H2748634   7.786   6.830   1.938 -0.7831 -1.5976 -0.8153
   45MOL    H2848635   7.866   6.960   2.140 -1.1530 -0.4992 -0.2825
   45MOL    C2948636   7.878   5.878   2.956 -0.5790  0.3560 -0.8894
   45MOL    C3048637   7.970   5.989   2.974 -0.6473 -0.1517  0.4664
   45MOL    C3148638   7.954   6.058   3.098 -0.2784 -0.0659  0.3707
   45MOL    C3248639   7.855   6.029   3.189 -0.7477 -0.0051  0.0823
   45MOL    S3348640   7.842   6.120   3.345 -0.0777 -0.3250  0.2663
   45MOL    O3448641   7.710   6.183   3.362  0.2992 -0.2269  0.3645
   45MOL    O3548642   7.964   6.208   3.340 -0.0266 -0.5290  0.0918
   45MOL    C3648643   7.874   6.008   3.479 -0.3149 -0.4525 -0.0070
   45MOL    C3748644   7.795   6.011   3.596 -0.2623  0.1128 -0.2272
   45MOL    C3848645   7.828   5.930   3.708  0.1512  0.1440 -0.4623
   45MOL    C3948646   7.937   5.842   3.698  0.8178 -0.0254  1.1550
   45MOL    O4048647   7.961   5.746   3.793 -0.0935  0.1516  0.2209
   45MOL    C4148648   8.047   5.775   3.898  0.8501  0.7250 -0.1063
   45MOL    C4248649   8.124   5.672   3.954 -0.8018 -0.1269 -0.0866
   45MOL    C4348650   8.208   5.705   4.057 -0.5572  0.3286  0.9746
   45MOL    C4448651   8.214   5.837   4.121  0.0410 -0.0663 -0.1013
   45MOL    C4548652   0.057   5.867   4.239  0.4198 -0.1743 -0.4573
   45MOL    C4648653   0.091   5.749   4.330 -0.0267 -0.4014 -0.0708
   45MOL    C4748654   0.189   5.914   4.173  0.4260 -0.2275  0.3364
   45MOL    C4848655   8.248   5.973   4.336  0.0138  0.1317 -0.2794
   45MOL    C4948656   0.083   6.057   4.418  0.8525 -0.2469 -0.4921
   45MOL    C5048657   0.030   6.132   4.519 -0.2087 -0.6391  0.3414
   45MOL    C5148658   8.143   6.148   4.531  0.0224 -0.4508  0.3475
   45MOL    O5248659   8.086   6.215   4.631 -0.5353 -0.2188 -0.2941
   45MOL    C5348660   8.059   6.072   4.449  0.1058  0.7573  0.5556
   45MOL    C5448661   8.107   5.981   4.356 -0.2724 -0.5699 -0.7572
   45MOL    C5548662   8.136   5.938   4.061  0.5386  0.1218 -0.2227
   45MOL    C5648663   8.056   5.912   3.950  0.0796 -0.1941  0.0460
   45MOL    C5748664   8.020   5.840   3.583 -0.8626 -0.7187  0.6235
   45MOL    C5848665   7.990   5.929   3.481  0.0280 -0.1858  1.2256
   45MOL    C5948666   7.767   5.925   3.167 -0.0246 -0.3188  0.2727
   45MOL    C6048667   7.775   5.846   3.047 -0.2910 -0.5349 -0.5435
   45MOL    H6148668   8.057   6.006   2.912 -1.1191 -2.3261 -0.8721
   45MOL    H6248669   8.009   6.149   3.116  1.0968 -0.2731 -2.4764
   45MOL    H6348670   7.705   6.071   3.596  0.0146  0.5393 -1.4330
   45MOL    H6448671   7.762   5.930   3.794 -0.2191 -0.9971 -0.7452
   45MOL    H6548672   8.131   5.572   3.913  2.1747 -0.9132  2.1705
   45MOL    H6648673   0.017   5.625   4.096  0.3986 -0.2766 -1.6221
   45MOL    H6748674   0.004   5.722   4.391 -0.3466 -0.0391 -0.3615
   45MOL    H6848675   0.162   5.781   4.406 -0.1530 -2.1876  0.8433
   45MOL    H6948676   0.123   5.663   4.271  0.4014 -1.1301  1.1955
   45MOL    H7048677   0.271   5.902   4.243  0.6236 -0.7383  0.0168
   45MOL    H7148678   0.227   5.847   4.096 -1.6122 -1.2246  0.1509
   45MOL    H7248679   0.186   6.012   4.125  1.3245 -1.1575 -1.6785
   45MOL    H7348680   0.190   6.053   4.407  0.6964 -0.8530 -1.8724
   45MOL    H7448681   0.099   6.179   4.588 -0.0087 -2.7236  1.5994
   45MOL    H7548682   7.952   6.071   4.463 -0.0547  0.7646 -0.6007
   45MOL    H7648683   8.041   5.913   4.304 -1.9835  0.4626  0.0359
   45MOL    H7748684   8.131   6.044   4.082 -1.2438 -0.2819  1.4729
   45MOL    H7848685   7.990   5.992   3.923  1.1579  0.4380 -0.7224
   45MOL    H7948686   8.110   5.781   3.575 -0.1362  0.4236  0.3102
   45MOL    H8048687   8.052   5.931   3.392  0.8084  1.9794  1.7899
   45MOL    H8148688   7.681   5.907   3.230 -1.0289  0.4963 -0.8276
   45MOL    H8248689   7.713   5.757   3.044  1.0278 -1.5395  1.1599
   45MOL    H8348690   8.118   6.195   4.718 -0.8713 -2.3380 -0.6473
   46MOL     C148691   2.049   8.039   6.404  0.1899 -0.2000  0.5006
   46MOL     C248692   2.019   7.941   6.507  0.1126  0.8889  0.2453
   46MOL     C348693   2.087   7.937   6.627 -0.3951  0.5301  0.1723
   46MOL     C448694   2.190   8.030   6.645  0.4669  0.1416 -0.4161
   46MOL     S548695   2.276   8.013   6.803 -0.2441  0.0029 -0.1626
   46MOL     O648696   2.421   8.033   6.771  0.0999 -0.6794  0.0639
   46MOL     O748697   2.236   7.886   6.865 -0.3021 -0.6009  0.0201
   46MOL     C848698   2.210   8.144   6.905 -0.5274 -0.7086  0.1959
   46MOL     C948699   2.267   8.149   7.034 -0.0462 -0.0536 -0.6619
   46MOL    C1048700   2.225   8.243   7.128 -0.0446 -0.0106  0.1876
   46MOL    C1148701   2.127   0.088   7.093 -0.2381  0.5445  0.4943
   46MOL    O1248702   2.088   0.193   7.179  0.1211  0.3012 -0.0231
   46MOL    C1348703   2.024   0.172   7.298  0.0480  0.4857  0.8409
   46MOL    C1448704   1.920   0.090   7.300 -0.2257  0.3440 -0.8412
   46MOL    C1548705   1.844   0.077   7.416  0.1679  0.0053  0.1397
   46MOL    C1648706   1.885   0.140   7.537  0.3452  0.8044 -0.0023
   46MOL    C1748707   1.796   0.124   7.665 -0.1285  0.1648 -0.4653
   46MOL    C1848708   1.828   0.227   7.778 -0.1602 -0.0824  0.4115
   46MOL    C1948709   1.650   0.172   7.631 -0.4219 -0.0801 -0.0419
   46MOL    C2048710   1.806   8.235   7.726  0.8506  0.7092  0.5045
   46MOL    C2148711   1.933   8.177   7.749  0.3883 -0.3448 -0.6561
   46MOL    C2248712   1.935   8.044   7.800  0.1420 -0.1552  0.2007
   46MOL    C2348713   1.812   7.969   7.819  0.3556 -0.1341  0.1942
   46MOL    O2448714   1.812   7.844   7.879  0.1706  0.0405 -0.4762
   46MOL    C2548715   1.691   8.026   7.784 -0.2574 -0.1178 -0.2876
   46MOL    C2648716   1.686   8.163   7.748  0.2968 -1.0200  0.1617
   46MOL    C2748717   1.987   0.239   7.528  0.5406 -0.5294  0.6749
   46MOL    C2848718   2.061   0.251   7.413  0.1911  0.7229  0.5280
   46MOL    C2948719   2.070   0.083   6.962  0.0242 -0.3369  0.0683
   46MOL    C3048720   2.105   8.238   6.867 -0.3477 -0.2006 -0.0245
   46MOL    C3148721   2.224   8.126   6.549 -0.8924  0.4795  0.6611
   46MOL    C3248722   2.154   8.131   6.429  0.3399 -0.1365  0.1170
   46MOL    H3348723   1.942   7.867   6.493  0.5057  0.5345 -0.0858
   46MOL    H3448724   2.068   7.868   6.707  0.8544  0.9208  0.8138
   46MOL    H3548725   2.323   8.063   7.068 -1.0508  0.7173  3.2880
   46MOL    H3648726   2.261   8.244   7.230 -0.7021 -2.2850  0.4763
   46MOL    H3748727   1.870   0.045   7.215 -0.6986  0.9334 -0.8791
   46MOL    H3848728   1.755   0.016   7.417 -0.4918  0.9240 -1.7119
   46MOL    H3948729   1.776   0.184   7.864  2.5332 -1.6781  1.2897
   46MOL    H4048730   1.790   0.327   7.756  0.8156 -0.3431 -2.6491
   46MOL    H4148731   1.932   0.238   7.808  0.0601  0.0380 -0.4095
   46MOL    H4248732   1.592   0.105   7.566 -1.2756 -0.9371  1.5796
   46MOL    H4348733   1.586   0.191   7.717  0.6784  1.3177  0.4597
   46MOL    H4448734   1.662   0.268   7.582 -0.9376  1.4064  2.7019
   46MOL    H4548735   2.026   8.222   7.717 -0.3915 -0.9244 -3.9126
   46MOL    H4648736   2.027   7.996   7.828  0.1306 -1.7819 -2.4025
   46MOL    H4748737   1.601   7.972   7.809  0.2690 -0.8445  0.0499
   46MOL    H4848738   1.587   8.207   7.743  0.0006 -1.5755  1.0311
   46MOL    H4948739   2.013   0.301   7.613 -0.0603 -0.1240  0.5655
   46MOL    H5048740   2.147   0.316   7.404 -0.1192  0.9773 -0.6800
   46MOL    H5148741   1.994   0.148   6.924  0.7139  1.6588  1.9639
   46MOL    H5248742   2.059   8.232   6.770 -0.6400  0.2506  0.0876
   46MOL    H5348743   2.302   8.198   6.568  0.9458 -1.8894  2.3712
   46MOL    H5448744   2.168   8.216   6.365 -0.0509 -1.0544 -1.2179
   46MOL    H5548745   1.983   8.054   6.319 -1.1274 -2.4762  1.0840
   46MOL    C5648746   1.809   7.839   8.015  1.1775 -0.1712  0.3814
   46MOL    C5748747   1.929   7.814   8.086  1.0052 -0.0032 -0.1098
   46MOL    C5848748   1.935   7.838   8.226 -0.0707  0.6026  0.6196
   46MOL    C5948749   1.823   7.886   0.037 -0.1989 -0.8188 -1.1965
   46MOL    S6048750   1.826   7.906   0.213 -0.1163 -0.4159  0.3154
   46MOL    O6148751   1.761   8.038   0.240 -0.2622  0.6723 -0.7010
   46MOL    O6248752   1.962   7.887   0.262  0.1351 -0.2704  0.0281
   46MOL    C6348753   1.725   7.769   0.266 -0.1935 -0.0967  0.1611
   46MOL    C6448754   1.795   7.668   0.334  0.2303 -0.0651 -0.6775
   46MOL    C6548755   1.724   7.562   0.391 -0.0241  0.5899 -0.6912
   46MOL    C6648756   1.586   7.553   0.360  0.1501  0.4604  1.0887
   46MOL    O6748757   1.519   7.448   0.411  0.3442  0.0471  0.1958
   46MOL    C6848758   1.437   7.461   0.519 -0.6315 -0.3671 -0.4318
   46MOL    C6948759   1.458   7.558   0.617  0.4774  0.1132  0.2766
   46MOL    C7048760   1.401   7.548   0.747 -0.2583  0.8890 -0.3793
   46MOL    C7148761   1.288   7.464   0.766  0.0238 -0.8073 -0.5105
   46MOL    C7248762   1.196   7.477   0.890 -0.3904  0.7148  0.4232
   46MOL    C7348763   1.236   7.364   0.984 -0.6014 -0.0386 -0.7831
   46MOL    C7448764   1.219   7.605   0.972 -0.0434  0.1828 -0.0279
   46MOL    C7548765   1.047   7.474   0.845 -0.3198 -0.3914  0.6869
   46MOL    C7648766   1.008   7.529   0.721  0.2883  0.0077 -0.0582
   46MOL    C7748767   0.878   7.494   0.678  0.5865 -0.6677 -0.2654
   46MOL    C7848768   0.781   7.426   0.753  0.5250 -0.6780 -0.1238
   46MOL    O7948769   0.660   7.394   0.705 -0.1006  1.0275  0.6234
   46MOL    C8048770   0.824   7.374   0.876  0.3393 -0.6410 -0.8954
   46MOL    C8148771   0.956   7.403   0.928 -0.4278  0.4093  0.5052
   46MOL    C8248772   1.261   7.369   0.663 -0.5862  0.3134  0.0179
   46MOL    C8348773   1.340   7.361   0.547  1.0031 -1.4188 -0.0013
   46MOL    C8448774   1.513   7.655   0.298 -0.7275 -0.1983 -0.2916
   46MOL    C8548775   1.583   7.768   0.253 -0.3705  1.0554  1.7040
   46MOL    C8648776   1.699   7.910   8.224 -0.0080  0.1740  0.3345
   46MOL    C8748777   1.692   7.884   8.086  0.0177 -0.6925 -0.0182
   46MOL    H8848778   2.017   7.770   8.039  1.1504  1.8937 -1.6677
   46MOL    H8948779   2.024   7.816   0.031 -0.0092 -0.2252  0.2344
   46MOL    H9048780   1.903   7.672   0.339  0.1798  0.6527 -0.1146
   46MOL    H9148781   1.772   7.481   0.444  0.0944  1.5192  0.6653
   46MOL    H9248782   1.533   7.630   0.589  0.7998  0.4026  1.8442
   46MOL    H9348783   1.420   7.623   0.822 -0.6615  1.1836 -0.5693
   46MOL    H9448784   1.237   7.263   0.944 -1.5587  0.8739 -3.1790
   46MOL    H9548785   1.183   7.355   1.079  0.7779 -0.9006 -0.0777
   46MOL    H9648786   1.334   7.385   1.027  0.3732 -1.9517 -2.0116
   46MOL    H9748787   1.317   7.603   1.021 -0.0532  2.5884  0.1583
   46MOL    H9848788   1.203   7.698   0.917 -1.1803  0.5594  0.9321
   46MOL    H9948789   1.146   7.606   1.053 -0.9381  1.4791 -0.8326
   46MOL   H10048790   1.065   7.602   0.666  0.1442 -1.1304 -1.7570
   46MOL   H10148791   0.852   7.526   0.579  0.6221 -0.3612 -0.1755
   46MOL   H10248792   0.754   7.324   0.941  1.0489 -1.6912 -0.9151
   46MOL   H10348793   0.982   7.357   1.022 -0.7108 -0.5712  0.1125
   46MOL   H10448794   1.173   7.306   0.663 -0.5864  0.3102  1.4143
   46MOL   H10548795   1.322   7.288   0.469 -0.3171  1.1879 -2.2361
   46MOL   H10648796   1.407   7.648   0.279 -0.9874  2.1214  0.1049
   46MOL   H10748797   1.533   7.846   0.196 -0.8001  0.5781  1.4315
   46MOL   H10848798   1.605   7.940   0.016  0.2081  3.3002 -1.2265
   46MOL   H10948799   1.600   7.902   8.032  0.5054  0.0157 -0.6223
   46MOL   C11048800   0.659   7.320   0.590  0.2314  0.2466 -1.0199
   46MOL   C11148801   0.722   7.197   0.575 -0.0321 -0.6153 -0.1107
   46MOL   C11248802   0.696   7.123   0.457  0.1298  0.0959  0.3607
   46MOL   C11348803   0.610   7.173   0.354 -0.5667 -0.5988  0.1127
   46MOL   S11448804   0.593   7.075   0.207  0.0474  0.2172  0.1102
   46MOL   O11548805   0.462   7.117   0.154  0.4594  0.1562 -0.1249
   46MOL   O11648806   0.602   6.931   0.248  0.3507 -0.3163 -0.1978
   46MOL   C11748807   0.730   7.125   0.099  0.0687 -0.1811  1.0026
   46MOL   C11848808   0.710   7.122   8.214  0.0510 -0.0072  0.0468
   46MOL   C11948809   0.825   7.152   8.132  0.0278  1.3441 -0.4596
   46MOL   C12048810   0.947   7.188   8.188  0.2238 -0.5429  0.2184
   46MOL   O12148811   1.052   7.221   8.109 -0.4104  0.0263  0.3509
   46MOL   C12248812   1.094   7.351   8.092 -0.3064  0.2283 -0.2965
   46MOL   C12348813   1.191   7.406   8.175 -0.5774  0.1018  0.2618
   46MOL   C12448814   1.219   7.544   8.175 -0.3677  0.0687  0.1702
   46MOL   C12548815   1.155   7.625   8.081  0.1236  0.2859 -0.7680
   46MOL   C12648816   1.187   7.779   8.067  0.1441 -0.2569 -0.7610
   46MOL   C12748817   1.071   7.853   8.135  0.8209 -0.2438  0.3139
   46MOL   C12848818   1.330   7.820   8.124 -0.2575 -0.1821 -0.6342
   46MOL   C12948819   1.188   7.812   7.915 -0.3886 -0.0604 -0.3558
   46MOL   C13048820   1.108   7.917   7.859  0.2803 -0.5951 -0.4184
   46MOL   C13148821   1.123   7.953   7.725  0.0686 -0.2245 -0.0489
   46MOL   C13248822   1.200   7.875   7.640 -0.1057  0.2745 -0.4348
   46MOL   O13348823   1.215   7.921   7.510  0.3352 -0.2984 -0.3151
   46MOL   C13448824   1.276   7.767   7.692  0.2066 -0.1698  0.4691
   46MOL   C13548825   1.277   7.746   7.828  0.6883  0.1475 -0.3216
   46MOL   C13648826   1.063   7.565   7.990  0.0919 -0.5006 -0.5857
   46MOL   C13748827   1.029   7.431   7.998 -0.5644 -0.2865  0.5217
   46MOL   C13848828   0.960   7.188   0.080  0.5674  0.3687  0.4232
   46MOL   C13948829   0.850   7.159   0.159  0.5023  0.6243  0.0461
   46MOL   C14048830   0.559   7.303   0.364 -0.1578 -0.0655 -0.1169
   46MOL   C14148831   0.579   7.371   0.485  0.4175  0.0842 -0.5939
   46MOL   H14248832   0.788   7.166   0.655 -0.8023 -0.7007  0.5021
   46MOL   H14348833   0.736   7.023   0.446 -0.0584  0.2084 -1.6840
   46MOL   H14448834   0.618   7.082   8.175  1.4351 -3.4821  0.1838
   46MOL   H14548835   0.817   7.145   8.025  0.3809 -0.3358 -0.3942
   46MOL   H14648836   1.243   7.350   8.251  1.1172  1.4584  0.1281
   46MOL   H14748837   1.298   7.577   8.241  0.5366 -0.3666 -0.6911
   46MOL   H14848838   1.099   7.958   8.127 -0.5063  0.0075 -1.3752
   46MOL   H14948839   1.052   7.831   8.240  0.0339 -2.2127 -0.2281
   46MOL   H15048840   0.972   7.846   8.089  0.2777  0.6704  1.2984
   46MOL   H15148841   1.404   7.750   8.085 -0.7591  0.2789 -2.4297
   46MOL   H15248842   1.359   7.920   8.091  2.5826 -0.8407 -0.2628
   46MOL   H15348843   1.328   7.816   8.233  0.8426 -0.7802 -0.6292
   46MOL   H15448844   1.055   7.992   7.915  1.6980  1.5153 -1.8029
   46MOL   H15548845   1.063   8.034   7.687  0.0028 -0.4874 -0.5108
   46MOL   H15648846   1.335   7.708   7.624 -1.6703  1.3230 -2.6002
   46MOL   H15748847   1.343   7.668   7.863 -2.1999 -2.2332  0.0127
   46MOL   H15848848   1.007   7.623   7.918 -1.9729  0.3787  1.6457
   46MOL   H15948849   0.957   7.375   7.942 -0.7867  1.4536 -0.9702
   46MOL   H16048850   1.056   7.214   0.122  0.1961  3.2301 -0.3864
   46MOL   H16148851   0.863   7.158   0.266  2.5664 -0.9031 -0.1940
   46MOL   H16248852   0.491   7.337   0.287  0.3691  0.0600 -0.5246
   46MOL   H16348853   0.524   7.462   0.500  0.2368 -0.0981 -0.1474
   46MOL   C16448854   1.339   7.915   7.453 -0.2412 -0.3718  0.3273
   46MOL   C16548855   1.385   7.796   7.392 -0.7613  0.6061  0.0131
   46MOL   C16648856   1.520   7.791   7.347 -0.1842 -0.8157 -0.0672
   46MOL   C16748857   1.602   7.903   7.354  0.6728  1.0439 -0.2424
   46MOL   S16848858   1.760   7.888   7.280 -0.2120  0.0593  0.4049
   46MOL   O16948859   1.833   8.012   7.294  0.0813  0.0497  0.6130
   46MOL   O17048860   1.748   7.818   7.151  0.4713 -0.3517  0.3571
   46MOL   C17148861   1.841   7.765   7.383 -0.3739 -0.3171  0.3155
   46MOL   C17248862   1.946   7.689   7.324 -0.2273 -0.4398 -1.0673
   46MOL   C17348863   2.015   7.595   7.401  0.3436 -0.2654 -0.2797
   46MOL   C17448864   1.995   7.592   7.543  0.1501  0.2676 -0.5877
   46MOL   O17548865   2.083   7.518   7.619  0.0275  0.0556 -0.3233
   46MOL   C17648866   2.030   7.405   7.678 -0.6987 -0.0427 -0.3222
   46MOL   C17748867   1.950   7.315   7.609  0.0199 -0.2567 -0.1668
   46MOL   C17848868   1.879   7.213   7.672 -0.0060  0.3853 -0.4432
   46MOL   C17948869   1.907   7.186   7.803  0.9586  0.5295 -1.0202
   46MOL   C18048870   1.841   7.063   7.880  0.1890  0.3652 -0.0224
   46MOL   C18148871   1.770   7.131   8.002  0.0817  0.2384  0.2964
   46MOL   C18248872   1.745   6.980   7.793  0.2584 -0.6203  0.8600
   46MOL   C18348873   1.944   6.961   7.924  0.0363  0.3292  0.2614
   46MOL   C18448874   1.949   6.903   8.053  0.5267  0.5626 -0.0488
   46MOL   C18548875   2.050   6.813   8.074  0.7633 -0.5279 -0.4338
   46MOL   C18648876   2.139   6.772   7.976 -0.3442  0.7505 -0.0569
   46MOL   O18748877   2.213   6.655   7.994 -0.0903 -0.2639 -0.2516
   46MOL   C18848878   2.129   6.822   7.846 -0.3089  0.1003  0.3237
   46MOL   C18948879   2.044   6.929   7.825  0.5743  0.3531  0.3800
   46MOL   C19048880   2.005   7.268   7.872  0.1187 -0.0068 -0.9131
   46MOL   C19148881   2.061   7.381   7.814  0.1907  0.2476 -0.5869
   46MOL   C19248882   1.893   7.672   7.604 -0.0397  0.4624 -0.4666
   46MOL   C19348883   1.811   7.750   7.518  0.2067  0.8526 -0.7265
   46MOL   C19448884   1.553   8.020   7.418 -0.4138  0.1042  0.0802
   46MOL   C19548885   1.425   8.022   7.472  1.0643 -0.0112 -0.9169
   46MOL   H19648886   1.322   7.710   7.377  1.1421 -0.5463 -1.7211
   46MOL   H19748887   1.550   7.700   7.295  1.2914 -0.3175 -0.1049
   46MOL   H19848888   1.972   7.703   7.220  0.2090  0.5676 -0.8300
   46MOL   H19948889   2.095   7.530   7.370  0.7967  0.1831 -0.0486
   46MOL   H20048890   1.926   7.330   7.505 -0.4041  2.1098  0.2451
   46MOL   H20148891   1.805   7.157   7.617 -0.2621  0.1435  0.1462
   46MOL   H20248892   1.702   7.068   8.060  1.3335 -2.7504 -1.3291
   46MOL   H20348893   1.720   7.213   7.950 -0.6662 -0.2895  0.1816
   46MOL   H20448894   1.845   7.161   8.075 -1.3799 -1.3357  2.4962
   46MOL   H20548895   1.653   7.027   7.758 -0.0657 -1.6295  0.3292
   46MOL   H20648896   1.795   6.930   7.711  3.1003 -0.6998  2.5945
   46MOL   H20748897   1.696   6.897   7.844  0.9991 -1.5371  0.1016
   46MOL   H20848898   1.891   6.933   8.138  0.4296 -1.1854  0.5297
   46MOL   H20948899   2.061   6.773   8.174  2.1698  0.9582  0.0269
   46MOL   H21048900   2.185   6.780   7.764  1.4157  4.1379 -0.7066
   46MOL   H21148901   2.047   6.977   7.728 -0.1976 -1.9417 -0.8335
   46MOL   H21248902   2.041   7.251   7.973  0.2962  0.4813 -0.8906
   46MOL   H21348903   2.128   7.442   7.872  0.4146 -1.8334  1.3847
   46MOL   H21448904   1.881   7.668   7.711 -0.0415  3.8851 -0.3009
   46MOL   H21548905   1.730   7.807   7.560  0.6627  1.8700 -1.2291
   46MOL   H21648906   1.623   8.102   7.423  1.1804 -1.1335 -1.3498
   46MOL   H21748907   1.396   8.117   7.515  0.7635 -0.3985 -0.2655
   46MOL   C21848908   2.153   6.529   7.996 -0.4161  0.2635 -0.1726
   46MOL   C21948909   2.227   6.423   8.043  0.1776  0.1565  0.0239
   46MOL   C22048910   2.175   6.293   8.056 -0.0899  0.3372 -0.1130
   46MOL   C22148911   2.048   6.270   8.001 -0.0793  0.1758 -0.0223
   46MOL   S22248912   1.995   6.105   8.001  0.0173 -0.3189  0.2606
   46MOL   O22348913   2.111   6.016   8.038 -0.0616 -0.4817  0.7000
   46MOL   O22448914   1.911   6.087   7.878  0.6172  0.5996  0.2062
   46MOL   C22548915   1.868   6.095   8.124 -0.1077 -0.3074 -0.5171
   46MOL   C22648916   1.743   6.157   8.105  0.1860 -0.7831  0.5558
   46MOL   C22748917   1.635   6.132   8.199 -0.8314  0.6133  0.0234
   46MOL   C22848918   1.659   6.041   0.053 -0.2751  0.6064  0.1205
   46MOL   O22948919   1.557   6.022   0.134 -0.9312  0.4657  0.6214
   46MOL   C23048920   1.490   5.907   0.133  0.1380  0.2367 -0.2058
   46MOL   C23148921   1.385   5.890   0.040  0.6256 -0.5556 -0.0495
   46MOL   C23248922   1.314   5.768   0.049 -0.0895  0.0276 -0.2497
   46MOL   C23348923   1.350   5.659   0.132  0.3131  0.4484 -0.1295
   46MOL   C23448924   1.284   5.517   0.116 -0.1948 -0.7414  0.6115
   46MOL   C23548925   1.282   5.476   8.216  0.1873 -0.5845 -0.1777
   46MOL   C23648926   1.371   5.398   0.166 -0.2409 -0.0453  0.1032
   46MOL   C23748927   1.144   5.507   0.189 -0.5231 -0.4921  0.4431
   46MOL   C23848928   1.026   5.472   0.125 -0.4699 -0.4769  0.0561
   46MOL   C23948929   0.900   5.471   0.187 -0.0875 -0.0116  0.1858
   46MOL   C24048930   0.891   5.502   0.327  0.8002  0.1825 -0.5597
   46MOL   O24148931   0.767   5.505   0.383  0.4844  0.1000 -0.3316
   46MOL   C24248932   1.005   5.547   0.395  0.8083  0.4015 -0.6741
   46MOL   C24348933   1.128   5.549   0.327  0.2504  0.4456 -0.3440
   46MOL   C24448934   1.444   5.687   0.228 -0.2151 -0.6045  0.3727
   46MOL   C24548935   1.524   5.806   0.224 -0.3843  0.3502 -0.1125
   46MOL   C24648936   1.783   5.978   0.070  0.9389 -0.0949  0.4600
   46MOL   C24748937   1.885   6.010   8.235  0.0729  0.1462  0.0444
   46MOL   C24848938   1.972   6.380   7.947 -0.1486  0.7202  0.1284
   46MOL   C24948939   2.024   6.510   7.949 -0.1922 -0.4846  0.8321
   46MOL   H25048940   2.326   6.441   8.083 -0.6338  0.0400  2.1637
   46MOL   H25148941   2.235   6.221   8.108 -1.7702  1.7916  4.0880
   46MOL   H25248942   1.736   6.230   8.026 -0.5851  0.6407  1.9119
   46MOL   H25348943   1.541   6.183   8.186 -1.0305  0.8282  2.1400
   46MOL   H25448944   1.359   5.964   8.220  0.6637 -0.7380 -0.2494
   46MOL   H25548945   1.233   5.755   8.232 -0.7252 -2.0713  0.8165
   46MOL   H25648946   1.204   5.532   8.163 -1.4896 -2.1953  0.5448
   46MOL   H25748947   1.239   5.377   8.204 -0.0492 -0.4330 -0.6275
   46MOL   H25848948   1.376   5.482   8.161 -0.7191 -0.3669 -1.7530
   46MOL   H25948949   1.375   5.399   0.275 -0.3125  0.0451  0.1048
   46MOL   H26048950   1.342   5.294   0.150  0.3686 -0.1560 -0.3012
   46MOL   H26148951   1.466   5.409   0.114 -0.1192  1.1584  0.5620
   46MOL   H26248952   1.035   5.440   0.022 -3.1522  1.6724 -0.9140
   46MOL   H26348953   0.820   5.423   0.133 -1.4918  0.4981  1.7428
   46MOL   H26448954   1.002   5.581   0.497  1.0996  1.2732 -0.9517
   46MOL   H26548955   1.212   5.585   0.384  1.1514  0.0143 -1.3686
   46MOL   H26648956   1.470   5.612   0.302  0.7930  0.7744  1.4514
   46MOL   H26748957   1.603   5.839   0.290 -0.7949 -0.0434  0.5812
   46MOL   H26848958   1.796   5.895   0.138  1.3878 -1.7938 -1.6456
   46MOL   H26948959   1.980   5.961   8.246 -0.3904 -0.7241  0.1855
   46MOL   H27048960   1.876   6.350   7.905  1.2786 -1.7233 -1.5418
   46MOL   H27148961   1.968   6.588   7.901 -0.2178 -0.6049  0.6654
   46MOL   C27248962   0.729   5.395   0.455 -0.2450  0.3939  0.4378
   46MOL   C27348963   0.748   5.395   0.592 -0.5862 -0.1509 -0.4284
   46MOL   C27448964   0.691   5.294   0.676 -0.8899 -0.5145 -0.8936
   46MOL   C27548965   0.614   5.195   0.606 -0.1021  0.1036 -0.2882
   46MOL   S27648966   0.568   5.047   0.701  0.5371  0.2981  0.0111
   46MOL   O27748967   0.484   4.962   0.616 -0.0671 -0.6159 -0.2982
   46MOL   O27848968   0.514   5.083   0.834 -0.5824 -0.1465  1.0039
   46MOL   C27948969   0.726   4.973   0.735  0.9489 -0.4879  0.0646
   46MOL   C28048970   0.830   4.982   0.638 -0.1525 -0.1698 -0.3730
   46MOL   C28148971   0.959   4.921   0.661  0.0059 -0.9220 -0.5975
   46MOL   C28248972   0.981   4.864   0.787 -0.7871 -0.0827  0.0237
   46MOL   O28348973   1.101   4.799   0.815 -0.0570 -0.2521 -0.0781
   46MOL   C28448974   1.192   4.847   0.907 -0.0807 -0.1431 -0.4431
   46MOL   C28548975   1.239   4.980   0.894  0.5687 -0.4597  0.2039
   46MOL   C28648976   1.341   5.026   0.976  0.5283  0.3202 -0.5065
   46MOL   C28748977   1.408   4.944   1.073 -0.2648  0.0355  0.2061
   46MOL   C28848978   1.505   5.001   1.177 -1.3850 -0.4728  1.0896
   46MOL   C28948979   1.518   4.905   1.301  0.0196 -0.3749  0.4147
   46MOL   C29048980   1.640   5.017   1.106 -0.3537  0.1202  0.1652
   46MOL   C29148981   1.455   5.139   1.231 -0.5936  0.0672 -0.3714
   46MOL   C29248982   1.317   5.147   1.272  0.2108  0.4624 -0.5791
   46MOL   C29348983   1.262   5.269   1.318 -0.1395 -0.1125  0.3999
   46MOL   C29448984   1.345   5.383   1.322  0.3460 -1.0954 -1.0711
   46MOL   O29548985   1.294   5.498   1.373  0.5821  0.5027 -0.0366
   46MOL   C29648986   1.480   5.368   1.291  0.1484  0.4956 -0.2489
   46MOL   C29748987   1.535   5.256   1.238 -0.2152 -0.3490  0.2556
   46MOL   C29848988   1.361   4.812   1.077  0.0516 -0.0246  0.7561
   46MOL   C29948989   1.251   4.763   1.002  0.4814  0.0228 -1.1094
   46MOL   C30048990   0.875   4.853   0.883  0.2862 -0.7088 -0.3610
   46MOL   C30148991   0.746   4.900   0.855  0.0890 -0.3424  0.3954
   46MOL   C30248992   0.594   5.192   0.470  0.8645 -0.2724 -0.4048
   46MOL   C30348993   0.650   5.294   0.396 -0.2789 -0.2401  0.2621
   46MOL   H30448994   0.804   5.472   0.643 -1.1684  1.4652 -2.1760
   46MOL   H30548995   0.713   5.299   0.781 -0.9264 -0.3655 -0.8923
   46MOL   H30648996   0.807   5.026   0.541  0.2326  2.2619  0.6101
   46MOL   H30748997   1.044   4.920   0.595  1.2652  0.0245  0.9717
   46MOL   H30848998   1.192   5.050   0.828  2.9883  1.1215  0.1045
   46MOL   H30948999   1.356   5.132   0.985  0.7951  0.1778  0.8796
   46MOL   H31049000   1.563   4.812   1.266  1.6340  0.8810 -0.9244
   46MOL   H31149001   1.422   4.899   1.352  0.3633 -0.3694  1.0669
   46MOL   H31249002   1.593   4.956   1.361 -1.0702  2.5307 -0.5839
   46MOL   H31349003   1.711   5.034   1.187  0.0445  1.3855 -0.4337
   46MOL   H31449004   1.665   4.920   1.063 -0.7664 -0.6672  1.6674
   46MOL   H31549005   1.643   5.092   1.028 -1.4632  0.7809  0.7448
   46MOL   H31649006   1.243   5.068   1.267 -0.2268  0.8015  0.4914
   46MOL   H31749007   1.156   5.272   1.341 -0.0110  1.0185  0.9045
   46MOL   H31849008   1.528   5.462   1.312 -1.2062  1.1012  0.2005
   46MOL   H31949009   1.642   5.249   1.224 -0.2025  1.7081 -0.7790
   46MOL   H32049010   1.400   4.739   1.147  0.4601 -0.9464 -0.4203
   46MOL   H32149011   1.224   4.658   1.008 -0.8441  0.4225  0.1126
   46MOL   H32249012   0.905   4.807   0.976  2.7651  0.0750 -0.7292
   46MOL   H32349013   0.664   4.872   0.920 -0.4512  1.0233  0.3151
   46MOL   H32449014   0.521   5.124   0.429  2.9947 -2.8311 -0.0402
   46MOL   H32549015   0.626   5.307   0.291 -0.4556  0.2519  0.3623
   46MOL   C32649016   1.217   5.494   1.485 -0.3640 -0.1579  1.0015
   46MOL   C32749017   1.275   5.444   1.603  0.6037 -0.6785 -0.2265
   46MOL   C32849018   1.191   5.400   1.710 -0.3016 -0.1061  0.2900
   46MOL   C32949019   1.050   5.415   1.699 -0.2312  0.8255 -0.1487
   46MOL   S33049020   0.935   5.334   1.815 -0.1293  0.0724 -0.1726
   46MOL   O33149021   0.800   5.382   1.771  0.4254  0.7140  0.0809
   46MOL   O33249022   0.985   5.357   1.952 -0.5479 -0.1960  0.2472
   46MOL   C33349023   0.954   5.159   1.782  0.2558  0.0560  0.1033
   46MOL   C33449024   0.841   5.080   1.744  0.2962  0.1455  1.0603
   46MOL   C33549025   0.855   4.947   1.696 -0.2843 -0.8612 -0.0591
   46MOL   C33649026   0.979   4.894   1.696 -0.6936 -0.8958  0.6488
   46MOL   O33749027   0.978   4.767   1.646 -0.1851 -0.0017 -0.0405
   46MOL   C33849028   0.998   4.653   1.716 -0.5891 -0.2415 -0.8006
   46MOL   C33949029   1.058   4.648   1.846 -0.5596  0.3539  0.1679
   46MOL   C34049030   1.079   4.526   1.913 -0.1546 -0.3207 -0.8902
   46MOL   C34149031   1.042   4.407   1.853  0.0268 -0.1813 -0.1544
   46MOL   C34249032   1.071   4.267   1.913 -0.2174  0.8570  0.0313
   46MOL   C34349033   1.173   4.271   2.026 -0.3831 -0.5443 -0.5821
   46MOL   C34449034   0.938   4.209   1.978 -0.3839 -0.3654  0.0785
   46MOL   C34549035   1.127   4.177   1.803 -0.0738 -0.2396  0.4421
   46MOL   C34649036   1.070   4.057   1.768  0.0716  0.5984  0.2730
   46MOL   C34749037   1.106   3.982   1.656  0.1636  0.0396 -0.0967
   46MOL   C34849038   1.223   4.017   1.587  0.0132  0.0268  0.5877
   46MOL   O34949039   1.247   3.934   1.482  0.3516  0.0711  0.6297
   46MOL   C35049040   1.298   4.131   1.628 -0.1135  0.6721  0.3475
   46MOL   C35149041   1.246   4.207   1.737  0.0655 -0.3974 -0.8023
   46MOL   C35249042   0.978   4.414   1.727  0.0229 -0.3840  0.5250
   46MOL   C35349043   0.952   4.535   1.658 -0.3234 -0.3783 -0.0243
   46MOL   C35449044   1.098   4.964   1.735 -0.2984  0.2118 -0.1725
   46MOL   C35549045   1.082   5.096   1.788  0.2716 -0.3674 -0.1721
   46MOL   C35649046   1.004   5.486   1.594  0.3581 -0.1318  0.2664
   46MOL   C35749047   1.084   5.519   1.480  0.1658  0.5960 -0.3905
   46MOL   H35849048   1.382   5.430   1.607  0.8536  1.4259  0.8280
   46MOL   H35949049   1.219   5.360   1.806  1.8747 -0.4972 -0.4827
   46MOL   H36049050   0.741   5.118   1.753  0.8920  1.3659  3.1170
   46MOL   H36149051   0.771   4.886   1.668 -1.3607  0.2274  0.7195
   46MOL   H36249052   1.080   4.740   1.898  1.2959  0.0514 -0.0609
   46MOL   H36349053   1.127   4.529   2.010  1.7124 -2.8809 -1.6797
   46MOL   H36449054   1.168   4.175   2.079  0.6643 -0.2325  0.0871
   46MOL   H36549055   1.142   4.340   2.104  1.2140  0.4637 -0.8186
   46MOL   H36649056   1.276   4.290   1.995 -0.4097  0.6773  0.0581
   46MOL   H36749057   0.946   4.110   2.025 -0.3949 -0.2253  0.3782
   46MOL   H36849058   0.910   4.274   2.061 -2.0321 -0.5424 -0.3212
   46MOL   H36949059   0.855   4.195   1.908  0.8640 -1.0194 -1.2809
   46MOL   H37049060   0.992   4.013   1.827  1.1502 -2.0620 -0.2267
   46MOL   H37149061   1.039   3.898   1.646 -1.1825  1.0924 -0.0204
   46MOL   H37249062   1.392   4.152   1.579 -0.4757  1.0359 -0.1847
   46MOL   H37349063   1.290   4.299   1.772 -1.6114  0.1685 -0.1567
   46MOL   H37449064   0.950   4.323   1.677  0.4018  0.3501 -1.0617
   46MOL   H37549065   0.917   4.534   1.556  1.1914 -4.1569 -0.5840
   46MOL   H37649066   1.196   4.919   1.737 -0.5208 -0.2892  2.8365
   46MOL   H37749067   1.164   5.150   1.832 -1.0610  0.5726  1.2140
   46MOL   H37849068   0.897   5.499   1.585  0.5589  1.3401 -0.2200
   46MOL   H37949069   1.046   5.557   1.387 -1.1851 -3.0107 -1.3604
   46MOL   C38049070   1.339   3.827   1.492 -0.0313 -0.2270  0.2402
   46MOL   C38149071   1.374   3.773   1.616 -0.7018  0.2506 -0.4634
   46MOL   C38249072   1.453   3.656   1.628 -0.9541  0.2575 -0.3345
   46MOL   C38349073   1.509   3.600   1.511 -0.6917  0.0312 -0.2397
   46MOL   S38449074   1.593   3.438   1.512  0.0849 -0.4657  0.1366
   46MOL   O38549075   1.710   3.438   1.425 -0.0413  0.5099 -0.0845
   46MOL   O38649076   1.484   3.341   1.493 -0.5874  0.2728 -0.2649
   46MOL   C38749077   1.649   3.406   1.679  0.5295 -0.6612  0.4616
   46MOL   C38849078   1.747   3.495   1.731 -0.0017 -0.5444 -0.3761
   46MOL   C38949079   1.813   3.465   1.851 -0.2169  0.0759  0.0767
   46MOL   C39049080   1.776   3.357   1.935 -0.1752 -0.0233 -0.1848
   46MOL   O39149081   1.846   3.337   2.050  0.0171  0.1049  0.4273
   46MOL   C39249082   1.912   3.222   2.063  0.2364  0.3411 -0.1137
   46MOL   C39349083   1.860   3.111   2.128  0.1613  0.5543  0.1242
   46MOL   C39449084   1.945   2.999   2.155  0.3441  0.3210  0.0685
   46MOL   C39549085   2.076   2.997   2.116  0.7339  0.0772  0.3327
   46MOL   C39649086   2.184   2.884   2.142  0.0815 -0.5896 -0.3724
   46MOL   C39749087   2.264   2.922   2.269  0.8125  0.1963  0.6533
   46MOL   C39849088   2.103   2.749   2.183 -0.0788  0.4104  0.2711
   46MOL   C39949089   2.271   2.866   2.017 -0.2295  0.0833 -0.8702
   46MOL   C40049090   2.218   2.821   1.896  0.0063 -0.5644  0.2195
   46MOL   C40149091   2.300   2.814   1.782  0.9777 -0.3999 -0.2458
   46MOL   C40249092   2.444   2.848   1.782 -0.0351  0.0282 -0.8167
   46MOL   O40349093   2.520   2.842   1.671 -0.1033  0.6427 -0.3178
   46MOL   C40449094   2.491   2.886   1.911 -0.3722 -0.0546 -0.3621
   46MOL   C40549095   2.409   2.890   2.022  0.3401  0.1749  0.4844
   46MOL   C40649096   2.124   3.111   2.044 -0.1864  0.4119  0.1702
   46MOL   C40749097   2.041   3.216   2.010  0.1598  0.1997 -0.6376
   46MOL   C40849098   1.662   3.277   1.890  0.4503  0.6102  0.6991
   46MOL   C40949099   1.600   3.306   1.766  0.5883 -0.5616  1.0638
   46MOL   C41049100   1.480   3.652   1.387  0.0194 -0.3569 -0.1579
   46MOL   C41149101   1.392   3.763   1.378  0.5188  0.1332 -0.7576
   46MOL   H41249102   1.346   3.816   1.711  0.8960  1.4069 -0.4845
   46MOL   H41349103   1.460   3.610   1.725 -1.0505  0.6502 -0.1398
   46MOL   H41449104   1.790   3.580   1.681  3.1641 -2.2008 -0.6075
   46MOL   H41549105   1.896   3.523   1.889  0.0565 -0.1423 -0.1843
   46MOL   H41649106   1.758   3.123   2.163  0.2162  3.0919 -0.5283
   46MOL   H41749107   1.912   2.917   2.216  0.1151  1.2071  1.1614
   46MOL   H41849108   2.195   2.933   2.353 -0.5461  0.0040 -0.4303
   46MOL   H41949109   2.308   3.020   2.247 -0.0807  0.3849 -0.3478
   46MOL   H42049110   2.351   2.858   2.285  3.1171  2.7196 -1.1608
   46MOL   H42149111   2.038   2.753   2.270  0.6096 -2.1388  0.9686
   46MOL   H42249112   2.047   2.709   2.098 -1.3513  1.3626  0.6529
   46MOL   H42349113   2.179   2.675   2.209 -1.5184 -1.0411  0.4618
   46MOL   H42449114   2.111   2.807   1.896 -0.1874  0.2986 -3.6205
   46MOL   H42549115   2.258   2.770   1.692 -0.5269  0.9260 -0.2119
   46MOL   H42649116   2.595   2.910   1.921  0.1145 -2.3065  0.4344
   46MOL   H42749117   2.460   2.929   2.109 -1.8544 -0.2804  2.0236
   46MOL   H42849118   2.228   3.113   2.015 -0.2003 -2.8672 -0.3895
   46MOL   H42949119   2.082   3.301   1.958  1.9851 -1.3036 -1.7391
   46MOL   H43049120   1.634   3.203   1.963  0.2279 -0.4993 -0.4939
   46MOL   H43149121   1.508   3.254   1.742  0.5674  0.7095 -1.7303
   46MOL   H43249122   1.509   3.600   1.297  1.4412 -0.0351  0.1007
   46MOL   H43349123   1.371   3.798   1.279  0.5291  0.6047 -0.5917
   46MOL   C43449124   2.526   2.957   1.601  0.1859 -0.0266  0.0393
   46MOL   C43549125   2.604   2.957   1.483  0.1767  0.4181 -0.3868
   46MOL   C43649126   2.615   3.073   1.407 -0.0172 -0.0729  0.2284
   46MOL   C43749127   2.553   3.198   1.445 -0.6616 -0.0828 -0.1125
   46MOL   S43849128   2.595   3.352   1.354  0.1518 -0.0130  0.0688
   46MOL   O43949129   2.472   3.427   1.345  0.5072 -0.3165  0.4210
   46MOL   O44049130   2.660   3.314   1.233  0.0503 -0.5494  0.4257
   46MOL   C44149131   2.706   3.448   1.461  0.0163 -0.0092 -0.0327
   46MOL   C44249132   2.701   3.586   1.474 -0.3883  0.3146 -0.3240
   46MOL   C44349133   2.778   3.651   1.569 -0.4589  0.0057 -0.9070
   46MOL   C44449134   2.882   3.581   1.634  0.8471 -0.4800 -0.4792
   46MOL   O44549135   2.968   3.646   1.722  0.2425 -0.0575  0.5832
   46MOL   C44649136   3.076   3.579   1.783  0.0698 -0.0558 -0.1020
   46MOL   C44749137   3.084   3.561   1.923 -0.1417 -0.1263 -0.3088
   46MOL   C44849138   3.191   3.493   1.988  0.6877 -0.2636 -0.1693
   46MOL   C44949139   3.296   3.448   1.907  0.7262  0.4250 -0.1100
   46MOL   C45049140   3.413   3.376   1.976  0.2562  0.2122  0.5320
   46MOL   C45149141   3.463   3.459   2.096 -0.5677  0.7177  0.0179
   46MOL   C45249142   3.378   3.241   2.035 -0.1217  0.4934  0.1761
   46MOL   C45349143   3.534   3.372   1.882  0.2197 -0.0668 -0.0108
   46MOL   C45449144   3.588   3.493   1.832  0.4590  0.5647 -0.0939
   46MOL   C45549145   3.687   3.503   1.736 -0.4419 -0.2707 -0.1491
   46MOL   C45649146   3.743   3.386   1.686  0.1067 -0.8394 -0.0409
   46MOL   O45749147   3.839   3.383   1.588 -0.4784  0.3945 -0.0080
   46MOL   C45849148   3.706   3.262   1.740  0.3956  0.1557 -0.6747
   46MOL   C45949149   3.596   3.250   1.832 -0.7965  0.6083  0.2014
   46MOL   C46049150   3.285   3.464   1.761  0.1144  0.3420  0.6641
   46MOL   C46149151   3.176   3.522   1.704  0.1580  0.7914 -0.1803
   46MOL   C46249152   2.881   3.440   1.627 -0.7170 -1.1754 -0.1002
   46MOL   C46349153   2.794   3.377   1.550 -0.9108  0.8349 -0.0327
   46MOL   C46449154   2.488   3.204   1.568 -0.1903  0.1954 -0.1087
   46MOL   C46549155   2.462   3.082   1.637  0.0264  0.1915  0.3958
   46MOL   H46649156   2.655   2.867   1.452 -0.9406  0.6309 -2.9613
   46MOL   H46749157   2.673   3.071   1.316 -0.4007 -3.9534 -0.0358
   46MOL   H46849158   2.632   3.647   1.419 -1.0127 -0.3815 -0.3240
   46MOL   H46949159   2.775   3.757   1.591  1.5795  0.1458 -1.1433
   46MOL   H47049160   3.004   3.598   1.985 -0.3465 -2.0132  0.5980
   46MOL   H47149161   3.197   3.475   2.095  0.3210 -1.4195 -0.3392
   46MOL   H47249162   3.480   3.564   2.073 -1.1317  0.6465 -0.7608
   46MOL   H47349163   3.559   3.419   2.129 -1.7127 -0.6593  1.7411
   46MOL   H47449164   3.397   3.450   2.183  0.2210  1.8215  0.7462
   46MOL   H47549165   3.472   3.211   2.080  0.1557  1.1410  0.0334
   46MOL   H47649166   3.306   3.239   2.117  1.7339 -0.7191  1.8061
   46MOL   H47749167   3.358   3.175   1.951 -0.2290  0.3569  0.3098
   46MOL   H47849168   3.551   3.593   1.854 -0.7368  0.0162  0.4343
   46MOL   H47949169   3.717   3.600   1.701  0.6991 -0.5363  0.0634
   46MOL   H48049170   3.756   3.175   1.701  1.7613  1.5541 -2.1224
   46MOL   H48149171   3.550   3.157   1.861 -0.3189 -0.2212 -1.6167
   46MOL   H48249172   3.366   3.422   1.701  1.4852  1.6796  1.5460
   46MOL   H48349173   3.163   3.525   1.596  1.4760 -0.6539 -0.4037
   46MOL   H48449174   2.959   3.384   1.677 -0.5863 -1.0409 -0.1496
   46MOL   H48549175   2.802   3.269   1.546 -1.2181  0.7265  1.7696
   46MOL   H48649176   2.457   3.302   1.602  0.2670 -0.1149  1.2134
   46MOL   H48749177   2.393   3.080   1.720 -0.0717 -0.9471  0.2882
   46MOL   C48849178   3.959   3.443   1.609  0.0800  0.5867  0.1991
   46MOL   C48949179   4.012   3.539   1.516 -0.3743  0.2513 -0.0503
   46MOL   C49049180   4.128   3.619   1.539  0.5059  0.2735  1.1150
   46MOL   C49149181   4.189   3.607   1.665  0.0053  0.1227 -0.5516
   46MOL   S49249182   4.356   3.679   1.684 -0.5564 -0.3441  0.1638
   46MOL   O49349183   4.369   3.808   1.611 -0.0289 -0.2527  0.5274
   46MOL   O49449184   4.457   3.576   1.645  0.1379  0.1365  0.0552
   46MOL   C49549185   4.373   3.726   1.856  0.8725  0.5086 -0.2774
   46MOL   C49649186   4.447   3.649   1.950 -0.4747  0.7253 -0.1773
   46MOL   C49749187   4.459   3.685   2.087 -0.5749 -0.2735 -0.3583
   46MOL   C49849188   4.405   3.809   2.128  0.3905  0.3517  0.2678
   46MOL   O49949189   4.432   3.843   2.256 -0.3245 -0.0865  0.9798
   46MOL   C50049190   4.381   3.957   2.312  0.2250  0.2940  0.3812
   46MOL   C50149191   4.443   4.082   2.289  0.1329  0.3759  0.0148
   46MOL   C50249192   4.376   4.202   2.313 -0.0224 -0.1328 -0.0265
   46MOL   C50349193   4.244   4.198   2.371  0.1540 -0.3830 -0.1179
   46MOL   C50449194   4.157   4.326   2.381 -0.0000 -0.7214  0.2308
   46MOL   C50549195   4.119   4.348   2.532 -0.1969 -0.7300  0.3644
   46MOL   C50649196   4.220   4.455   2.323 -0.5764  0.0797 -0.2688
   46MOL   C50749197   4.023   4.309   2.302  0.1389  0.5656 -0.2344
   46MOL   C50849198   4.019   4.232   2.179 -0.1821 -0.8876 -0.4896
   46MOL   C50949199   3.904   4.236   2.103  0.6732  0.8752  0.0465
   46MOL   C51049200   3.786   4.300   2.149  0.1696  0.3254 -0.3487
   46MOL   O51149201   3.672   4.284   2.076  0.5909 -0.7763  0.1052
   46MOL   C51249202   3.787   4.379   2.266  0.8301 -0.0536 -0.2266
   46MOL   C51349203   3.906   4.383   2.335 -0.0149  0.0903 -0.4357
   46MOL   C51449204   4.180   4.076   2.403 -1.0648 -0.1677  0.4130
   46MOL   C51549205   4.250   3.958   2.365 -0.4201  0.5445 -0.0284
   46MOL   C51649206   4.324   3.878   2.035 -0.5290 -0.4924 -0.2434
   46MOL   C51749207   4.305   3.844   1.900  0.4461 -0.6111 -0.4974
   46MOL   C51849208   4.139   3.515   1.763 -0.1222 -0.1142 -0.1266
   46MOL   C51949209   4.020   3.441   1.736 -0.6471  0.3741 -0.5184
   46MOL   H52049210   3.964   3.538   1.419 -0.9231  0.2438  0.2194
   46MOL   H52149211   4.160   3.687   1.461 -0.9164 -0.0036  0.2831
   46MOL   H52249212   4.495   3.559   1.915 -0.5035 -0.1873  2.0803
   46MOL   H52349213   4.505   3.614   2.154  0.7396 -0.3973 -1.3640
   46MOL   H52449214   4.538   4.091   2.238 -0.3268  0.8078 -0.7787
   46MOL   H52549215   4.428   4.295   2.297  1.1432 -0.7155  0.3224
   46MOL   H52649216   4.080   4.450   2.538  0.9143 -0.2492 -0.4635
   46MOL   H52749217   4.204   4.330   2.597  0.6071  0.3079 -0.3750
   46MOL   H52849218   4.042   4.277   2.562 -3.5197  1.3016 -2.8787
   46MOL   H52949219   4.157   4.542   2.341 -1.4890 -0.5172 -0.5618
   46MOL   H53049220   4.314   4.486   2.369 -0.1311 -0.0983 -1.0538
   46MOL   H53149221   4.232   4.446   2.215  1.5387 -0.5299 -0.0161
   46MOL   H53249222   4.109   4.184   2.142  0.8617  1.1458 -0.7044
   46MOL   H53349223   3.901   4.187   2.007  0.1473 -1.9638  1.4527
   46MOL   H53449224   3.704   4.434   2.307  0.0800  0.1965 -2.0339
   46MOL   H53549225   3.902   4.438   2.428  1.4262 -0.1084 -0.2592
   46MOL   H53649226   4.080   4.076   2.445 -0.8596 -0.8796  0.9253
   46MOL   H53749227   4.209   3.859   2.377  1.1868 -0.4664 -2.5422
   46MOL   H53849228   4.278   3.970   2.067 -1.1686 -0.4482 -1.2499
   46MOL   H53949229   4.247   3.910   1.838 -1.7430 -0.2185  1.9017
   46MOL   H54049230   4.196   3.510   1.855  1.5026 -0.1710 -1.1245
   46MOL   H54149231   3.982   3.380   1.817 -2.0370 -0.6933 -1.9421
   46MOL   C54249232   3.555   4.352   2.102 -0.0280 -0.0175 -0.2636
   46MOL   C54349233   3.477   4.329   2.219  0.0897  0.3402 -0.7612
   46MOL   C54449234   3.361   4.407   2.253  0.5214  0.0933  0.1373
   46MOL   C54549235   3.324   4.509   2.160 -0.0352  0.6117  0.3065
   46MOL   S54649236   3.175   4.594   2.186 -0.1651  0.2280 -0.0439
   46MOL   O54749237   3.062   4.510   2.141  0.1746  0.2024 -0.2245
   46MOL   O54849238   3.188   4.726   2.126 -0.3638  0.5498  0.3068
   46MOL   C54949239   3.166   4.613   2.362  0.2633  0.1718  0.9820
   46MOL   C55049240   3.242   4.719   2.421  0.5076  0.4824 -0.1817
   46MOL   C55149241   3.235   4.738   2.561  0.9092 -0.4179 -0.2536
   46MOL   C55249242   3.139   4.671   2.635 -0.0167 -0.3030  0.0194
   46MOL   O55349243   3.130   4.708   2.765 -0.5964 -0.0575  0.7022
   46MOL   C55449244   3.143   4.609   2.863  0.0732  0.5662 -0.4733
   46MOL   C55549245   3.273   4.546   2.881  0.8665 -0.5356  0.1561
   46MOL   C55649246   3.292   4.456   2.989  0.7915  0.0340  0.1147
   46MOL   C55749247   3.187   4.428   3.076  0.1844  0.2327 -0.1127
   46MOL   C55849248   3.219   4.342   3.206  0.4076 -0.0633  0.2214
   46MOL   C55949249   3.107   4.338   3.310 -0.4106  0.0964  0.0055
   46MOL   C56049250   3.236   4.193   3.158 -0.2506 -0.3761 -0.4812
   46MOL   C56149251   3.344   4.382   3.290  0.8450  0.0460 -0.0796
   46MOL   C56249252   3.406   4.288   3.370 -0.3980 -0.0261  0.1560
   46MOL   C56349253   3.507   4.327   3.460 -0.1521  0.3409  0.7986
   46MOL   C56449254   3.562   4.458   3.451 -0.3774 -0.2563 -0.8638
   46MOL   O56549255   3.671   4.482   3.526  0.0804 -0.0508 -0.5697
   46MOL   C56649256   3.504   4.551   3.361 -0.0711  0.4856  0.7334
   46MOL   C56749257   3.394   4.514   3.282 -0.0865 -0.4376 -0.4861
   46MOL   C56849258   3.053   4.471   3.052 -0.1227 -0.1080  0.3519
   46MOL   C56949259   3.040   4.562   2.944  0.6082 -0.0581  0.6453
   46MOL   C57049260   3.064   4.568   2.578  0.2984 -0.4379  0.0226
   46MOL   C57149261   3.077   4.530   2.437 -0.7684  0.7967 -0.0626
   46MOL   C57249262   3.403   4.541   2.050 -0.6425 -0.1596  0.1674
   46MOL   C57349263   3.515   4.461   2.014  0.2300 -0.2043  0.1127
   46MOL   H57449264   3.501   4.246   2.284  0.3459  0.1947 -1.0396
   46MOL   H57549265   3.307   4.384   2.343  1.4024  1.1088  0.9342
   46MOL   H57649266   3.297   4.793   2.365 -1.3466  0.0707 -2.6351
   46MOL   H57749267   3.271   4.835   2.593  0.3391  0.0282 -0.9536
   46MOL   H57849268   3.354   4.569   2.814  0.1456  0.7544 -0.2901
   46MOL   H57949269   3.383   4.407   3.019  0.3535 -1.1590 -0.4771
   46MOL   H58049270   3.099   4.437   3.356  1.0358  0.3126 -0.1657
   46MOL   H58149271   3.145   4.285   3.397  1.2964  2.1925  0.6014
   46MOL   H58249272   3.007   4.306   3.283 -0.5207  2.1980 -2.3932
   46MOL   H58349273   3.233   4.122   3.240  1.6116 -1.3678 -1.2350
   46MOL   H58449274   3.162   4.161   3.084 -2.7941 -1.1194  2.3060
   46MOL   H58549275   3.325   4.181   3.096 -0.3388  0.2720 -0.7425
   46MOL   H58649276   3.370   4.186   3.380  0.3962 -0.1676  1.7600
   46MOL   H58749277   3.555   4.259   3.529  1.2885  0.6313  0.1070
   46MOL   H58849278   3.545   4.650   3.344  0.3567  0.5484  2.0507
   46MOL   H58949279   3.349   4.588   3.218  2.5856 -0.4598 -2.4895
   46MOL   H59049280   2.971   4.438   3.114  0.7505 -0.1398  1.5038
   46MOL   H59149281   2.949   4.616   2.925  0.4678 -0.3210  0.5632
   46MOL   H59249282   3.000   4.515   2.647 -0.9746  1.1536  0.0971
   46MOL   H59349283   3.017   4.448   2.403  0.4891 -0.6766  1.2044
   46MOL   H59449284   3.376   4.623   1.985 -1.7254 -1.1891 -0.7032
   46MOL   H59549285   3.570   4.483   1.925  0.3420 -1.4485 -0.1390
   46MOL   C59649286   3.778   4.551   3.480 -0.3416  0.2251 -0.6429
   46MOL   C59749287   3.836   4.650   3.558  0.3869 -0.4567  0.1796
   46MOL   C59849288   3.942   4.728   3.506  0.0807 -0.0806 -0.0379
   46MOL   C59949289   3.993   4.706   3.377  0.3729  0.0210  0.0709
   46MOL   S60049290   4.149   4.795   3.337  0.3531 -0.0314 -0.3695
   46MOL   O60149291   4.124   4.939   3.332  0.0977 -0.3541  0.4456
   46MOL   O60249292   4.208   4.726   3.220  0.0193  0.4818 -0.1436
   46MOL   C60349293   4.253   4.752   3.468 -0.9161  0.2711 -0.1016
   46MOL   C60449294   4.318   4.856   3.548  0.0822  0.4379 -0.2093
   46MOL   C60549295   4.390   4.817   3.666 -1.0557  0.5244  0.6229
   46MOL   C60649296   4.404   4.681   3.699  0.5005  0.6768 -1.0233
   46MOL   O60749297   4.458   4.651   3.823 -0.1230 -0.1968  0.2298
   46MOL   C60849298   4.372   4.596   3.911  0.8019  0.2339  0.8257
   46MOL   C60949299   4.345   4.459   3.912  0.7514  0.3477  0.0880
   46MOL   C61049300   4.235   4.414   3.984  0.0291  0.2680  0.0998
   46MOL   C61149301   4.158   4.505   4.058 -0.7325 -0.2121 -0.0414
   46MOL   C61249302   4.021   4.456   4.113  0.1794 -0.0734 -0.1736
   46MOL   C61349303   3.952   4.369   4.005 -0.8534 -0.4236 -0.2807
   46MOL   C61449304   4.045   4.356   4.234 -0.5379 -0.4386  0.1452
   46MOL   C61549305   3.918   4.562   4.153 -0.2462 -0.1924  1.0378
   46MOL   C61649306   3.862   4.577   4.278 -0.3933  0.0130 -0.2036
   46MOL   C61749307   3.768   4.674   4.312 -0.2908 -0.1081 -0.8747
   46MOL   C61849308   3.721   4.760   4.211  0.1487  0.2740 -0.0123
   46MOL   O61949309   3.611   4.841   4.234  0.0402 -0.0472 -0.3431
   46MOL   C62049310   3.773   4.744   4.080  0.3797 -0.5236  0.0625
   46MOL   C62149311   3.872   4.649   4.048  0.5322 -0.4005  0.2931
   46MOL   C62249312   4.206   4.632   4.082 -0.1041  0.8688  0.2799
   46MOL   C62349313   4.317   4.673   4.011 -0.2234 -0.2776 -0.4528
   46MOL   C62449314   4.332   4.588   3.621 -0.7303  0.7396 -0.5830
   46MOL   C62549315   4.261   4.616   3.505  0.3302 -0.5832  0.1473
   46MOL   C62649316   3.933   4.612   3.293  0.1864 -0.2033  0.5727
   46MOL   C62749317   3.823   4.533   3.344 -0.1411 -0.3111 -0.3567
   46MOL   H62849318   3.801   4.665   3.660 -0.9479 -2.4095  0.0305
   46MOL   H62949319   3.984   4.801   3.573  0.3911 -1.0396  0.8316
   46MOL   H63049320   4.311   4.956   3.508  0.9862  1.7572  2.7605
   46MOL   H63149321   4.435   4.885   3.736 -1.8303  0.2687  1.3749
   46MOL   H63249322   4.393   4.380   3.856 -0.3861  0.1644 -0.6356
   46MOL   H63349323   4.209   4.310   3.987 -0.2771  0.3880  3.5594
   46MOL   H63449324   4.003   4.275   3.983 -2.1872 -1.4592  1.0206
   46MOL   H63549325   3.939   4.418   3.908 -3.3034 -0.0198  0.2059
   46MOL   H63649326   3.851   4.337   4.029 -0.9843 -0.6262 -1.0682
   46MOL   H63749327   3.950   4.304   4.246 -0.7660 -0.3041 -0.9890
   46MOL   H63849328   4.124   4.281   4.226 -0.3787 -0.6072  3.0019
   46MOL   H63949329   4.069   4.407   4.327 -0.9985  0.0679 -0.0132
   46MOL   H64049330   3.889   4.520   4.366 -0.0007 -1.7611 -1.4527
   46MOL   H64149331   3.735   4.671   4.414  0.0855 -3.8821 -0.8119
   46MOL   H64249332   3.736   4.799   3.994 -1.5430 -0.9708  0.5847
   46MOL   H64349333   3.912   4.659   3.948  1.9999 -0.3657  0.8690
   46MOL   H64449334   4.156   4.697   4.152 -2.3791 -2.1491  1.5824
   46MOL   H64549335   4.346   4.777   4.026  0.3406 -0.3546 -0.9902
   46MOL   H64649336   4.332   4.486   3.658 -0.2102  1.3541  1.1581
   46MOL   H64749337   4.213   4.537   3.449 -0.4002  1.6170 -2.4385
   46MOL   H64849338   3.973   4.595   3.194 -0.6343  1.9139 -0.1467
   46MOL   H64949339   3.775   4.461   3.280 -0.0731  0.2610 -1.0562
   46MOL   C65049340   3.608   4.917   4.351 -0.0313  0.4784  0.5915
   46MOL   C65149341   3.681   5.039   4.351 -0.1489  0.7748  0.5283
   46MOL   C65249342   3.677   5.123   4.463  0.9562  0.2407  0.7522
   46MOL   C65349343   3.604   5.083   4.576 -0.3429 -0.1744 -0.4718
   46MOL   S65449344   3.603   5.198   4.714 -0.0600  0.1319 -0.4515
   46MOL   O65549345   3.743   5.234   4.742 -0.2880  0.5480  0.2886
   46MOL   O65649346   3.519   5.132   4.814 -0.0101 -0.2901 -0.4618
   46MOL   C65749347   3.518   5.350   4.663 -0.5016 -0.1562  0.2704
   46MOL   C65849348   3.587   5.448   4.592  0.0817  0.5889 -0.1874
   46MOL   C65949349   3.518   5.564   4.548 -0.3548 -0.4136  0.2718
   46MOL   C66049350   3.384   5.585   4.592  0.6345 -0.5844  0.1633
   46MOL   O66149351   3.324   5.698   4.556 -0.4612  0.1313 -0.0196
   46MOL   C66249352   3.325   5.809   4.635 -0.0497 -0.4503 -1.1078
   46MOL   C66349353   3.390   5.929   4.600 -0.0965 -0.4142  0.4959
   46MOL   C66449354   3.402   6.033   4.691  0.6503  0.7456 -0.1298
   46MOL   C66549355   3.354   6.025   4.824 -0.4320  0.1974 -0.1871
   46MOL   C66649356   3.358   6.144   4.916 -0.6570  0.0863 -0.6450
   46MOL   C66749357   3.492   6.217   4.905  0.1578  0.0786 -0.2977
   46MOL   C66849358   3.248   6.239   4.857 -0.4775  0.6210  0.0649
   46MOL   C66949359   3.321   6.105   5.055 -0.2884  0.2576  0.2292
   46MOL   C67049360   3.404   6.027   5.134 -0.0996  0.7437 -0.6055
   46MOL   C67149361   3.365   5.974   5.259 -0.9984  0.0382 -0.2737
   46MOL   C67249362   3.232   6.002   5.298 -0.2157  0.3948 -0.0901
   46MOL   O67349363   3.181   5.932   5.401  0.4976  0.4504 -1.0715
   46MOL   C67449364   3.151   6.090   5.230 -0.3746  0.2443 -0.2106
   46MOL   C67549365   3.198   6.140   5.108 -0.4992 -0.1436 -0.4880
   46MOL   C67649366   3.294   5.903   4.864 -0.0951 -0.6912 -0.0456
   46MOL   C67749367   3.269   5.805   4.767 -0.5826 -0.1570 -0.1937
   46MOL   C67849368   3.316   5.487   4.666  0.4016 -0.1216  0.1773
   46MOL   C67949369   3.384   5.374   4.700 -0.3131  0.2399 -0.2693
   46MOL   C68049370   3.540   4.953   4.580 -0.3796 -0.2949  0.1593
   46MOL   C68149371   3.547   4.871   4.465 -0.8563  0.1360 -0.8224
   46MOL   H68249372   3.732   5.062   4.258  0.3208  0.1069  0.6167
   46MOL   H68349373   3.729   5.218   4.456 -1.4677  1.5913  0.3855
   46MOL   H68449374   3.692   5.439   4.568 -0.2816  0.9617 -1.9752
   46MOL   H68549375   3.559   5.653   4.504 -1.5660  0.3615  0.6816
   46MOL   H68649376   3.440   5.941   4.505  1.7518 -1.5209  1.3005
   46MOL   H68749377   3.450   6.122   4.655 -0.6008  0.6559 -2.0960
   46MOL   H68849378   3.508   6.266   4.809 -2.6451  2.1541  0.2347
   46MOL   H68949379   3.578   6.150   4.907  0.4586  0.5062  1.0332
   46MOL   H69049380   3.499   6.290   4.985 -1.3098  2.2270 -2.0570
   46MOL   H69149381   3.281   6.281   4.762  1.4004  0.6402  0.7030
   46MOL   H69249382   3.153   6.187   4.840 -0.2978  0.3069  0.0193
   46MOL   H69349383   3.239   6.334   4.909  0.1736  0.0852  1.1567
   46MOL   H69449384   3.494   6.000   5.080 -0.3443  0.9706 -1.1359
   46MOL   H69549385   3.429   5.909   5.317 -0.2835 -0.0147 -1.1047
   46MOL   H69649386   3.049   6.109   5.261 -0.1173  0.7745  0.3183
   46MOL   H69749387   3.127   6.205   5.058 -1.5731  0.5609  1.8569
   46MOL   H69849388   3.257   5.899   4.965 -3.4700  1.5501 -1.1171
   46MOL   H69949389   3.235   5.706   4.794  1.3426 -1.6214 -2.8337
   46MOL   H70049390   3.215   5.511   4.695  1.1058  2.3429  0.6883
   46MOL   H70149391   3.333   5.297   4.756  0.9068  0.2639  0.8899
   46MOL   H70249392   3.493   4.921   4.672  0.8845  1.3429  1.4176
   46MOL   H70349393   3.511   4.769   4.471  3.2517 -1.3940 -0.1858
   46MOL   C70449394   3.095   5.828   5.371  0.8563 -0.1260 -0.4669
   46MOL   C70549395   3.015   5.779   5.476 -0.1627  0.5034 -0.4075
   46MOL   C70649396   2.916   5.684   5.452  0.0218  0.9539  0.4580
   46MOL   C70749397   2.910   5.626   5.325 -0.2165  0.1783  0.3149
   46MOL   S70849398   2.811   5.480   5.290 -0.1920  0.1236 -0.3602
   46MOL   O70949399   2.887   5.368   5.340 -0.2411 -0.1973 -0.3508
   46MOL   O71049400   2.773   5.495   5.146 -0.0273 -0.4204  0.5577
   46MOL   C71149401   2.656   5.481   5.385 -0.0008  0.6617 -0.0786
   46MOL   C71249402   2.529   5.488   5.321 -0.6225 -0.4936  0.6906
   46MOL   C71349403   2.413   5.484   5.397  0.1615  0.1832  0.2527
   46MOL   C71449404   2.418   5.449   5.532  0.0700  0.2799  0.6589
   46MOL   O71549405   2.295   5.427   5.594 -0.5700  0.4371 -0.3597
   46MOL   C71649406   2.244   5.298   5.596 -0.7532  0.1665 -0.2652
   46MOL   C71749407   2.126   5.267   5.520  0.3068 -0.0034 -0.6939
   46MOL   C71849408   2.075   5.135   5.525 -0.2533 -0.1738  0.2378
   46MOL   C71949409   2.147   5.029   5.586 -0.5808 -0.6527  0.4533
   46MOL   C72049410   2.099   4.880   5.572 -0.3318  0.9100 -0.1546
   46MOL   C72149411   1.952   4.862   5.528  0.4706 -0.4375 -0.3600
   46MOL   C72249412   2.189   4.809   5.459 -0.8854  0.1585  0.0987
   46MOL   C72349413   2.118   4.818   5.709 -0.3563  0.2424 -0.2423
   46MOL   C72449414   2.052   4.877   5.821 -0.1607 -0.5776  0.6492
   46MOL   C72549415   2.065   4.826   5.951  0.5380 -0.1318  0.3549
   46MOL   C72649416   2.142   4.702   5.971 -0.2536 -0.6632  0.0862
   46MOL   O72749417   2.168   4.657   6.099 -0.0725 -0.7059  0.3639
   46MOL   C72849418   2.190   4.633   5.858 -0.2987 -0.0551  0.2131
   46MOL   C72949419   2.189   4.693   5.732  0.1642 -0.6079 -0.4423
   46MOL   C73049420   2.268   5.054   5.649  0.0351  0.2973  0.0968
   46MOL   C73149421   2.318   5.190   5.656 -0.3195 -0.2117  0.0085
   46MOL   C73249422   2.537   5.445   5.595 -0.1965  0.2721 -0.2247
   46MOL   C73349423   2.654   5.459   5.521 -0.4542 -0.2515 -0.4235
   46MOL   C73449424   2.998   5.670   5.221  0.5007  0.2190  0.8517
   46MOL   C73549425   3.087   5.771   5.246 -0.7168  0.6978  0.4453
   46MOL   H73649426   3.018   5.815   5.578 -3.9043  1.3363 -0.5210
   46MOL   H73749427   2.851   5.638   5.525 -0.0437 -1.1439 -0.9002
   46MOL   H73849428   2.522   5.493   5.214  1.4602 -0.4312  0.5439
   46MOL   H73949429   2.314   5.484   5.353 -0.9746 -1.6284  2.7050
   46MOL   H74049430   2.078   5.345   5.463  0.8932  0.1229 -1.0062
   46MOL   H74149431   1.989   5.116   5.463 -1.0521  2.5679  0.4603
   46MOL   H74249432   1.876   4.919   5.580  1.2146 -0.9994  1.3723
   46MOL   H74349433   1.916   4.761   5.507  1.1926 -0.4106 -1.8432
   46MOL   H74449434   1.946   4.909   5.430 -1.0909  1.8802  0.8154
   46MOL   H74549435   2.294   4.806   5.487 -1.0418 -0.8208  0.5913
   46MOL   H74649436   2.168   4.704   5.440  1.4135 -0.1507 -0.9017
   46MOL   H74749437   2.183   4.856   5.360  1.5568 -0.9583 -0.6239
   46MOL   H74849438   1.988   4.964   5.810  0.1935 -0.1409  1.9180
   46MOL   H74949439   2.015   4.863   6.039 -1.0539  0.0430 -0.6083
   46MOL   H75049440   2.246   4.541   5.867  0.8958  0.9698  4.0257
   46MOL   H75149441   2.216   4.635   5.645  0.4718 -0.1224 -0.6725
   46MOL   H75249442   2.322   4.969   5.686 -1.2672 -0.4600  0.2917
   46MOL   H75349443   2.406   5.206   5.716 -1.3443  1.0141  1.2034
   46MOL   H75449444   2.538   5.426   5.701  3.2359  2.6040  0.2298
   46MOL   H75549445   2.745   5.436   5.575  1.3616  0.5875 -3.0043
   46MOL   H75649446   2.980   5.624   5.125 -1.1283  0.9157  0.8109
   46MOL   H75749447   3.150   5.812   5.169  0.7290  1.1135  1.8370
   46MOL   C75849448   2.301   4.653   6.142  0.4577 -0.5957 -0.1077
   46MOL   C75949449   2.391   4.752   6.097 -0.0064  0.6091  0.2195
   46MOL   C76049450   2.528   4.754   6.145 -0.3704  0.1946 -0.7552
   46MOL   C76149451   2.574   4.659   6.239 -0.0149 -0.4998 -0.4916
   46MOL   S76249452   2.742   4.674   6.315 -0.0921 -0.4088  0.0340
   46MOL   O76349453   2.831   4.718   6.211 -0.4743 -0.0133  0.0837
   46MOL   O76449454   2.765   4.553   6.397  0.2038 -0.3881 -0.7201
   46MOL   C76549455   2.725   4.796   6.448 -0.4867 -0.1969  0.5345
   46MOL   C76649456   2.842   4.862   6.487  0.7614 -0.2443  0.3811
   46MOL   C76749457   2.832   4.959   6.587 -0.0484 -0.4018 -0.6910
   46MOL   C76849458   2.714   4.988   6.652  0.2138  0.2075 -0.0437
   46MOL   O76949459   2.707   5.060   6.768  0.1716  0.6295 -0.2338
   46MOL   C77049460   2.758   4.986   6.876  0.2737 -0.4931  0.1349
   46MOL   C77149461   2.666   4.934   6.970 -1.0636  0.3554  0.9632
   46MOL   C77249462   2.710   4.855   7.074 -0.3203 -0.4201 -0.3732
   46MOL   C77349463   2.845   4.821   7.093 -0.0144  0.1090  0.0410
   46MOL   C77449464   2.894   4.734   7.215 -0.2142 -0.7988  0.1485
   46MOL   C77549465   2.994   4.833   7.288  0.2842  0.9671  0.1255
   46MOL   C77649466   2.778   4.691   7.297 -0.0006  1.1360  0.0026
   46MOL   C77749467   2.957   4.601   7.167 -0.0411  0.3200  0.2657
   46MOL   C77849468   2.883   4.517   7.079  0.1442  1.2317 -0.4298
   46MOL   C77949469   2.927   4.388   7.043  0.8087  0.2054  0.6737
   46MOL   C78049470   3.047   4.343   7.099 -0.1332 -0.2684  0.0574
   46MOL   O78149471   3.083   4.215   7.078  0.4115  0.5371 -0.1070
   46MOL   C78249472   3.119   4.424   7.182 -0.6868 -0.2922  0.2207
   46MOL   C78349473   3.075   4.552   7.219  0.4764  0.5820  0.7374
   46MOL   C78449474   2.938   4.876   6.996  0.5125  0.1765 -0.6515
   46MOL   C78549475   2.895   4.958   6.891 -0.6179  0.4309 -0.2383
   46MOL   C78649476   2.595   4.926   6.611  0.0016 -0.6083 -0.4134
   46MOL   C78749477   2.598   4.824   6.514 -0.0731  0.2503 -0.3839
   46MOL   C78849478   2.489   4.551   6.273 -0.0061 -0.1803  0.0744
   46MOL   C78949479   2.351   4.552   6.231 -0.6637 -0.4888 -0.6036
   46MOL   H79049480   2.354   4.835   6.038  0.6139  1.0522  0.4436
   46MOL   H79149481   2.595   4.835   6.119  0.1156 -0.6233 -2.0838
   46MOL   H79249482   2.932   4.845   6.430  0.4193 -1.5976  0.2353
   46MOL   H79349483   2.922   5.016   6.608 -1.1686  1.2337 -0.1875
   46MOL   H79449484   2.561   4.949   6.949 -0.8934 -1.0387 -1.1773
   46MOL   H79549485   2.639   4.815   7.145 -1.3937 -0.7176 -1.5920
   46MOL   H79649486   3.088   4.858   7.238 -0.6413 -1.1859 -2.8924
   46MOL   H79749487   3.024   4.780   7.378  0.1031  0.1859 -0.2642
   46MOL   H79849488   2.935   4.923   7.306 -0.8289  0.3629 -0.4033
   46MOL   H79949489   2.807   4.637   7.386 -0.1930  1.5559  0.3218
   46MOL   H80049490   2.717   4.772   7.336  0.4756  1.6288 -0.2626
   46MOL   H80149491   2.710   4.624   7.245  0.7306  0.6616 -0.3548
   46MOL   H80249492   2.794   4.553   7.029  0.1030  3.5086  1.1792
   46MOL   H80349493   2.872   4.321   6.978  0.2445  0.2010  1.1541
   46MOL   H80449494   3.202   4.376   7.231 -1.5699  0.3109  2.3257
   46MOL   H80549495   3.127   4.606   7.297  2.0791  0.3868 -0.1706
   46MOL   H80649496   3.045   4.878   7.006  0.8305  1.6368 -3.7600
   46MOL   H80749497   2.968   5.006   6.828  1.5195  0.1075  1.9293
   46MOL   H80849498   2.505   4.956   6.664  0.8758  0.7969  0.2972
   46MOL   H80949499   2.507   4.772   6.490 -0.9559  0.9801  1.3933
   46MOL   H81049500   2.517   4.475   6.345 -2.7046  0.6908  2.1553
   46MOL   H81149501   2.271   4.484   6.256 -0.1856 -0.9513 -0.3362
   46MOL   C81249502   3.030   4.109   7.148 -0.4780  0.1583  1.1841
   46MOL   C81349503   3.071   4.090   7.280 -0.1983 -0.1294 -0.3049
   46MOL   C81449504   3.018   3.980   7.350  0.4068 -0.0387  0.2189
   46MOL   C81549505   2.926   3.893   7.285 -0.8833  0.7270  0.6961
   46MOL   S81649506   2.871   3.737   7.362 -0.9030 -0.1546 -0.2326
   46MOL   O81749507   2.956   3.733   7.482 -0.4152 -0.2417  0.2097
   46MOL   O81849508   2.879   3.633   7.258  0.1649 -0.2744  0.0344
   46MOL   C81949509   2.699   3.763   7.407 -0.6162 -0.1023 -0.2537
   46MOL   C82049510   2.615   3.650   7.421 -0.3328  1.3111 -0.0250
   46MOL   C82149511   2.476   3.674   7.427  0.3589 -0.2010  0.0433
   46MOL   C82249512   2.420   3.802   7.453 -0.0285 -0.5384 -0.0511
   46MOL   O82349513   2.284   3.826   7.469 -0.2233 -0.2643  0.5609
   46MOL   C82449514   2.240   3.897   7.575 -0.3326  0.0423 -0.3352
   46MOL   C82549515   2.238   3.842   7.702  0.4023 -0.7130 -0.8718
   46MOL   C82649516   2.197   3.918   7.812 -0.7859  0.2913 -0.1937
   46MOL   C82749517   2.153   4.052   7.800 -0.0973  0.6270 -0.5139
   46MOL   C82849518   2.107   4.138   7.920 -0.0702  0.2491  0.1939
   46MOL   C82949519   2.139   4.064   8.049 -0.6142 -0.5861  0.4747
   46MOL   C83049520   2.168   4.279   7.926 -0.2775 -0.5766  0.4167
   46MOL   C83149521   1.949   4.156   7.919 -1.0885 -0.0023 -0.2775
   46MOL   C83249522   1.866   4.078   7.833  0.6604  0.2473 -0.5534
   46MOL   C83349523   1.730   4.097   7.833  0.5892  0.0589  0.0966
   46MOL   C83449524   1.665   4.186   7.919 -0.1492  0.0030 -0.1538
   46MOL   O83549525   1.527   4.211   7.922 -0.1934 -0.1373  0.2332
   46MOL   C83649526   1.746   4.257   8.009 -0.1480 -0.3685  0.3828
   46MOL   C83749527   1.884   4.241   8.006 -0.2172 -0.0578 -0.1654
   46MOL   C83849528   2.149   4.106   7.668 -0.2384 -0.2700  1.1515
   46MOL   C83949529   2.185   4.023   7.560 -0.2466  0.1320  0.5054
   46MOL   C84049530   2.508   3.915   7.444  0.3754 -0.1357 -1.5790
   46MOL   C84149531   2.644   3.895   7.420  0.5273 -0.2261  0.3813
   46MOL   C84249532   2.886   3.915   7.149  0.5212 -0.2575 -0.3785
   46MOL   C84349533   2.942   4.028   7.084  0.5208  0.7467 -0.6972
   46MOL   H84449534   3.145   4.152   7.328 -1.4143  0.9074  0.2379
   46MOL   H84549535   3.056   3.962   7.449 -0.3257  0.0166  0.5134
   46MOL   H84649536   2.659   3.551   7.420  0.5704  1.7039  0.0887
   46MOL   H84749537   2.409   3.589   7.430  0.9828 -0.7460 -0.8640
   46MOL   H84849538   2.263   3.738   7.720 -1.8789 -1.2852 -0.8863
   46MOL   H84949539   2.197   3.872   7.910 -0.7213  1.9087  0.5835
   46MOL   H85049540   2.243   4.031   8.051  0.0178  1.0035 -3.0848
   46MOL   H85149541   2.079   3.976   8.068 -0.1003 -1.0513 -0.0383
   46MOL   H85249542   2.125   4.119   8.142 -0.9217  0.8694 -0.4251
   46MOL   H85349543   2.276   4.286   7.911 -0.2576  1.6263  1.4624
   46MOL   H85449544   2.123   4.334   7.844 -0.5430 -1.9494 -0.3859
   46MOL   H85549545   2.155   4.326   8.024 -0.7130 -2.0584  1.0883
   46MOL   H85649546   1.900   4.004   7.762 -1.9558 -1.7154  0.1598
   46MOL   H85749547   1.672   4.030   7.772  1.5008  0.0703 -0.7886
   46MOL   H85849548   1.700   4.315   8.088  1.0164 -2.7068  2.8860
   46MOL   H85949549   1.946   4.299   8.073 -2.9814  2.4880  0.2858
   46MOL   H86049550   2.132   4.212   7.659  2.2592 -0.0197 -0.9538
   46MOL   H86149551   2.185   4.065   7.460  1.5705 -1.4881 -0.2050
   46MOL   H86249552   2.469   4.016   7.451 -0.5238 -0.4663 -1.7963
   46MOL   H86349553   2.710   3.981   7.418  0.2722 -0.0180  0.8161
   46MOL   H86449554   2.811   3.855   7.099 -0.8824  1.9205 -0.9801
   46MOL   H86549555   2.928   4.045   6.978 -1.4720  0.7379 -0.4661
   46MOL   C86649556   1.442   4.124   7.859 -0.0926 -0.3987  0.5255
   46MOL   C86749557   1.429   3.984   7.885  0.3669  0.2246  0.0233
   46MOL   C86849558   1.331   3.902   7.821  0.4816 -0.2471  0.1909
   46MOL   C86949559   1.242   3.969   7.735  0.4679 -0.5867  0.0001
   46MOL   S87049560   1.122   3.877   7.648  0.2387 -0.3752  0.0119
   46MOL   O87149561   1.030   3.971   7.579  0.4372  0.9499  0.3214
   46MOL   O87249562   1.070   3.772   7.733  0.4096  0.9644 -0.5613
   46MOL   C87349563   1.223   3.798   7.523 -0.3039  0.0759 -0.1090
   46MOL   C87449564   1.338   3.865   7.466 -0.4714 -0.8316 -0.9808
   46MOL   C87549565   1.417   3.799   7.365 -0.2653  0.1829 -0.1054
   46MOL   C87649566   1.375   3.674   7.310  0.3023  0.3770 -0.0968
   46MOL   O87749567   1.445   3.616   7.202 -0.0979  0.2919  0.0771
   46MOL   C87849568   1.530   3.511   7.225  0.4042 -0.2026  0.4901
   46MOL   C87949569   1.600   3.498   7.344  0.2399 -0.6660 -0.0778
   46MOL   C88049570   1.692   3.390   7.363 -0.0861 -0.5108  0.6045
   46MOL   C88149571   1.714   3.299   7.252  0.3299 -0.5055 -1.0534
   46MOL   C88249572   1.828   3.190   7.245 -0.1636 -0.2011  0.2904
   46MOL   C88349573   1.953   3.264   7.204 -0.0025 -0.1568  0.8580
   46MOL   C88449574   1.854   3.143   7.386 -0.2139  0.6438 -0.2191
   46MOL   C88549575   1.777   3.073   7.157 -0.4295  0.7049  0.2178
   46MOL   C88649576   1.675   2.988   7.198 -0.0769 -0.2503  0.2465
   46MOL   C88749577   1.627   2.877   7.121  0.3822 -0.1882 -0.1385
   46MOL   C88849578   1.687   2.860   6.992  0.3128  0.6413  0.1756
   46MOL   O88949579   1.627   2.760   6.910 -0.1550 -0.4117  0.6360
   46MOL   C89049580   1.794   2.938   6.949  0.1397 -0.2346  0.2848
   46MOL   C89149581   1.842   3.050   7.030  0.8686  0.0100  0.1254
   46MOL   C89249582   1.636   3.315   7.137  0.6938 -0.1346 -0.5360
   46MOL   C89349583   1.539   3.414   7.124 -0.0103  0.6654  0.0912
   46MOL   C89449584   1.255   3.608   7.361  0.0567 -0.3689 -0.1021
   46MOL   C89549585   1.183   3.672   7.463  0.0702  0.7779 -0.0765
   46MOL   C89649586   1.252   4.110   7.718  0.8399  0.1654  0.0974
   46MOL   C89749587   1.346   4.189   7.780  0.0807 -0.1851 -0.9836
   46MOL   H89849588   1.497   3.943   7.959  0.4866  0.5609  0.0996
   46MOL   H89949589   1.326   3.800   7.857  2.4656 -1.0935 -1.8236
   46MOL   H90049590   1.369   3.966   7.488 -0.2637 -1.5752  2.3281
   46MOL   H90149591   1.501   3.858   7.330  1.5426 -3.3517 -1.9522
   46MOL   H90249592   1.586   3.574   7.419  2.7907  0.1411 -0.3757
   46MOL   H90349593   1.754   3.380   7.451 -0.0533 -0.5187  0.5802
   46MOL   H90449594   1.996   3.321   7.286 -1.5084 -1.0344  2.2970
   46MOL   H90549595   1.931   3.332   7.122 -0.3519 -0.4246  0.7270
   46MOL   H90649596   2.033   3.205   7.159  0.0177  1.0876 -0.7749
   46MOL   H90749597   1.891   3.216   7.459 -1.6836 -0.4024  1.6179
   46MOL   H90849598   1.765   3.106   7.438 -0.3013  0.3310 -0.5929
   46MOL   H90949599   1.926   3.063   7.405  0.6147  1.6285  0.9269
   46MOL   H91049600   1.620   3.011   7.288  1.0628  1.3722  0.5420
   46MOL   H91149601   1.545   2.815   7.151  0.3090 -0.3358 -0.6435
   46MOL   H91249602   1.839   2.915   6.854  0.9802  2.7173 -0.0826
   46MOL   H91349603   1.922   3.112   6.993  0.4727  0.2548 -0.3415
   46MOL   H91449604   1.659   3.252   7.052 -0.3399 -1.4662  0.1601
   46MOL   H91549605   1.479   3.421   7.034  1.9834 -3.2630 -1.6266
   46MOL   H91649606   1.230   3.515   7.313 -0.7443 -0.1261 -0.1617
   46MOL   H91749607   1.105   3.618   7.513  1.0375 -2.8465 -2.2891
   46MOL   H91849608   1.195   4.164   7.643  2.1733 -1.1313 -1.8871
   46MOL   H91949609   1.347   4.295   7.763  0.8047 -0.3388 -1.9523
   46MOL   C92049610   1.709   2.656   6.876 -0.8400  0.8128  0.8321
   46MOL   C92149611   1.757   2.581   6.976 -0.0388  0.2361 -0.0619
   46MOL   C92249612   1.835   2.462   6.947 -0.0746 -0.4195 -0.0807
   46MOL   C92349613   1.851   2.424   6.813 -0.3251 -0.1371  0.1631
   46MOL   S92449614   1.927   2.261   6.770  0.1602  0.3469 -0.2542
   46MOL   O92549615   1.845   2.153   6.832  0.4936  0.4541  0.5858
   46MOL   O92649616   2.068   2.271   6.804 -0.0059  0.8800 -0.8266
   46MOL   C92749617   1.912   2.239   6.597 -0.2520 -0.1503  0.6006
   46MOL   C92849618   1.781   2.214   6.544  0.0467  0.7929 -1.0071
   46MOL   C92949619   1.768   2.196   6.410  0.1557  0.4665  0.1184
   46MOL   C93049620   1.879   2.192   6.327 -0.8627  0.0374  0.2354
   46MOL   O93149621   1.856   2.188   6.194  0.1947 -0.4074  0.0807
   46MOL   C93249622   1.863   2.064   6.130  0.3990  0.2555  0.2373
   46MOL   C93349623   1.744   2.022   6.072 -0.4627 -0.4221  0.4582
   46MOL   C93449624   1.734   1.900   6.013  0.3556 -0.9265  0.4565
   46MOL   C93549625   1.850   1.815   6.004  0.0983 -0.5803  0.8143
   46MOL   C93649626   1.854   1.686   5.922  0.5310 -0.1132 -0.2570
   46MOL   C93749627   1.724   1.671   5.842 -0.4363  0.6378 -0.0117
   46MOL   C93849628   1.977   1.701   5.832 -0.4100 -0.5905 -0.2943
   46MOL   C93949629   1.860   1.557   6.009 -0.8008  0.8619  0.0295
   46MOL   C94049630   1.804   1.552   6.141 -0.3979 -0.1839 -0.5049
   46MOL   C94149631   1.827   1.440   6.221  0.0829  0.2440 -0.3311
   46MOL   C94249632   1.896   1.325   6.178  0.4184 -0.1904 -0.4747
   46MOL   O94349633   1.918   1.228   6.271 -0.4012  0.3635  0.4882
   46MOL   C94449634   1.963   1.336   6.047  0.1717 -0.3212 -0.1804
   46MOL   C94549635   1.935   1.449   5.968  0.5727  0.3260  0.0223
   46MOL   C94649636   1.969   1.859   6.066 -0.0140 -0.8136  0.0119
   46MOL   C94749637   1.976   1.981   6.134 -0.8356 -0.5433 -0.1822
   46MOL   C94849638   2.010   2.210   6.374  0.2438 -0.1408 -0.0927
   46MOL   C94949639   2.020   2.236   6.514 -0.1639 -0.5465 -0.1083
   46MOL   C95049640   1.807   2.508   6.710  0.6718 -0.6237 -0.3553
   46MOL   C95149641   1.735   2.624   6.744 -0.0782  0.0194  0.1520
   46MOL   H95249642   1.728   2.599   7.078 -1.3582  0.3602 -0.4577
   46MOL   H95349643   1.857   2.392   7.026 -0.1543 -0.7035 -0.3084
   46MOL   H95449644   1.709   2.224   6.624  3.3190  1.3772  2.0202
   46MOL   H95549645   1.673   2.177   6.362 -0.4763 -0.9960  1.9312
   46MOL   H95649646   1.659   2.088   6.067 -0.4291 -0.5291 -1.9893
   46MOL   H95749647   1.643   1.886   5.957  0.1867 -1.5927  0.9010
   46MOL   H95849648   1.726   1.578   5.785  1.0586  0.3552  0.4679
   46MOL   H95949649   1.705   1.749   5.767 -3.3613  0.1521  0.1731
   46MOL   H96049650   1.635   1.676   5.903 -3.4254  1.9863 -4.2301
   46MOL   H96149651   1.976   1.628   5.752  0.8612 -3.4926  2.2470
   46MOL   H96249652   1.980   1.804   5.796  0.1889 -0.4805  0.0473
   46MOL   H96349653   2.069   1.675   5.885 -1.0142 -1.8189  0.1761
   46MOL   H96449654   1.736   1.632   6.166  0.6012  0.9182 -1.2848
   46MOL   H96549655   1.795   1.445   6.324 -1.6376  0.0652 -0.8399
   46MOL   H96649656   2.026   1.262   6.001  1.0549 -0.9838  2.0178
   46MOL   H96749657   1.972   1.446   5.866  1.0735  0.9349  0.1865
   46MOL   H96849658   2.058   1.800   6.075 -0.1975 -0.8066  2.0412
   46MOL   H96949659   2.069   2.001   6.184 -0.4245 -1.0705 -0.7240
   46MOL   H97049660   2.094   2.215   6.306  1.9228 -0.3624  1.9313
   46MOL   H97149661   2.119   2.255   6.553 -0.9979  0.6351  1.5119
   46MOL   H97249662   1.817   2.471   6.609  1.7370 -0.2240 -0.4060
   46MOL   H97349663   1.700   2.696   6.671 -1.8132 -0.5522  0.3839
   46MOL   C97449664   1.954   1.105   6.219  0.0579 -0.1392 -0.0108
   46MOL   C97549665   2.086   1.068   6.238 -0.2439 -0.4973  0.6875
   46MOL   C97649666   2.131   0.944   6.191  0.8587  0.2957 -0.3264
   46MOL   C97749667   2.046   0.868   6.113  0.7777 -0.0883  0.3219
   46MOL   S97849668   2.106   0.716   6.029  0.0645 -0.4344 -0.5631
   46MOL   O97949669   2.252   0.721   6.012 -0.0355 -1.0115  1.0279
   46MOL   O98049670   2.026   0.692   5.910 -0.2168  0.0562  0.1743
   46MOL   C98149671   2.069   0.588   6.146 -0.4607 -0.9070  0.2909
   46MOL   C98249672   2.025   0.462   6.100 -0.3810  0.1510  1.1513
   46MOL   C98349673   2.005   0.358   6.185 -0.2708 -0.7138 -0.0554
   46MOL   C98449674   2.021   0.375   6.325 -0.1477  0.4225  0.8338
   46MOL   O98549675   1.987   0.276   6.407  0.2896  0.3536 -0.1311
   46MOL   C98649676   1.857   0.254   6.450  0.1806  0.3051  0.6399
   46MOL   C98749677   1.759   0.354   6.458  0.2872  0.2006  0.6174
   46MOL   C98849678   1.623   0.319   6.488 -0.4945  0.6018 -0.7419
   46MOL   C98949679   1.588   0.189   6.528  0.1297 -0.3077  1.0084
   46MOL   C99049680   1.442   0.157   6.565  0.1587  0.3026  0.1111
   46MOL   C99149681   1.346   0.177   6.441 -0.1734 -0.5526  0.4533
   46MOL   C99249682   1.428   0.012   6.613  0.5728 -0.0060 -0.0959
   46MOL   C99349683   1.389   0.253   6.676 -0.0189 -0.7786  0.0970
   46MOL   C99449684   1.477   0.340   6.755 -0.1549 -0.2576 -0.2693
   46MOL   C99549685   1.420   0.435   6.841 -0.5138 -0.2560 -0.2133
   46MOL   C99649686   1.281   0.449   6.848  0.4327  0.1995 -0.2484
   46MOL   O99749687   1.230   0.552   6.922 -0.2027  0.2189  0.1388
   46MOL   C99849688   1.195   0.356   6.790  0.1794 -0.1326 -0.0324
   46MOL   C99949689   1.251   0.264   6.699 -0.5345 -0.6032 -0.2959
   46MOL     C149690   1.692   0.088   6.522  0.6810 -0.6674  0.4261
   46MOL     C249691   1.824   0.127   6.483  0.0440  0.1898 -0.1200
   46MOL     C349692   2.051   0.506   6.378  0.0341  0.9293 -0.1718
   46MOL     C449693   2.083   0.604   6.285  0.1787 -0.2285  1.3772
   46MOL     C549694   1.924   0.917   6.073  0.7175  0.3577  0.1822
   46MOL     C649695   1.878   1.032   6.133  0.0993  0.0661 -0.4841
   46MOL     H749696   2.148   1.130   6.301  3.0444 -1.0720 -1.8476
   46MOL     H849697   2.230   0.906   6.207  1.0245  0.9186  0.1256
   46MOL     H949698   2.008   0.458   5.993  1.1500 -3.9380  0.9661
   46MOL    H1049699   1.975   0.264   6.141  0.5446 -0.3880 -1.3215
   46MOL    H1149700   1.790   0.454   6.434 -0.5298  0.1836 -0.5661
   46MOL    H1249701   1.550   0.397   6.508 -2.8304 -1.2293 -1.8442
   46MOL    H1349702   1.246   0.138   6.459 -0.5330 -1.4106 -3.1252
   46MOL    H1449703   1.390   0.128   6.354 -1.8255  0.0172 -0.7308
   46MOL    H1549704   1.336   0.278   6.401  1.8400 -0.8086 -0.7774
   46MOL    H1649705   1.320   8.253   6.621  0.5974  0.2994  0.8122
   46MOL    H1749706   1.463   8.197   6.536  0.1644 -0.1015 -0.1970
   46MOL    H1849707   1.478   8.235   6.705  1.8156  0.5573 -0.5655
   46MOL    H1949708   1.584   0.327   6.757 -0.4108 -2.4238  0.8783
   46MOL    H2049709   1.480   0.506   6.896 -0.2374  0.3416 -1.2691
   46MOL    H2149710   1.090   0.363   6.817 -0.0309 -0.3200 -0.7994
   46MOL    H2249711   1.189   0.192   6.648 -0.0333 -1.1785 -0.1057
   46MOL    H2349712   1.662   8.239   6.533  0.3964 -0.5911  0.3683
   46MOL    H2449713   1.892   0.043   6.474  0.7959  0.4957  2.3506
   46MOL    H2549714   2.062   0.527   6.483  2.9765 -1.1393  0.0134
   46MOL    H2649715   2.119   0.701   6.316 -2.6910  1.3199  0.1005
   46MOL    H2749716   1.855   0.854   6.020  1.9673 -0.3229 -0.6583
   46MOL    H2849717   1.781   1.075   6.114  0.1170  0.1005 -0.4959
   46MOL    C2949718   1.154   0.652   6.864  0.1906 -0.0598 -0.7343
   46MOL    C3049719   1.066   0.641   6.751 -0.0185 -0.0673 -0.3367
   46MOL    C3149720   0.981   0.748   6.720  0.3678 -0.3347  0.2025
   46MOL    C3249721   0.997   0.871   6.789 -0.0363  0.6125 -0.8329
   46MOL    S3349722   0.887   1.007   6.731  0.4094 -0.0088  0.1474
   46MOL    O3449723   0.779   0.959   6.646 -0.1342  0.2689  0.2536
   46MOL    O3549724   0.975   1.117   6.688 -0.1070  0.3728 -0.3714
   46MOL    C3649725   0.816   1.060   6.888 -0.4915  0.1826  0.1568
   46MOL    C3749726   0.705   0.985   6.915  0.1128  0.5308 -0.2959
   46MOL    C3849727   0.650   1.009   7.044  0.4483  0.6278  0.0214
   46MOL    C3949728   0.691   1.108   7.133  0.1822 -0.1948  0.4659
   46MOL    O4049729   0.626   1.116   7.252 -0.6541 -0.2027 -0.4138
   46MOL    C4149730   0.633   1.235   7.322  0.0601 -0.0532 -0.0024
   46MOL    C4249731   0.695   1.226   7.448 -0.4779 -0.2238 -0.0124
   46MOL    C4349732   0.687   1.334   7.535  0.1393  0.3496 -0.4394
   46MOL    C4449733   0.622   1.453   7.500  0.5605  0.3294 -0.8165
   46MOL    C4549734   0.616   1.575   7.598  0.2127  0.3748 -0.3964
   46MOL    C4649735   0.574   1.712   7.526 -0.8077 -0.0686 -0.2489
   46MOL    C4749736   0.506   1.540   7.704 -0.1412 -0.1902  0.8435
   46MOL    C4849737   0.755   1.592   7.654 -0.3875 -0.5584 -0.2627
   46MOL    C4949738   0.870   1.613   7.571 -0.9014  0.1957 -0.5361
   46MOL    C5049739   0.996   1.643   7.621  0.3072  0.4299 -0.1521
   46MOL    C5149740   1.015   1.642   7.759 -0.6437  0.5052 -0.3350
   46MOL    O5249741   1.140   1.677   7.805  0.0546 -0.3218 -0.1228
   46MOL    C5349742   0.916   1.603   7.846 -0.1188 -0.5613  0.7923
   46MOL    C5449743   0.781   1.589   7.795  0.8429 -0.0184  0.1649
   46MOL    C5549744   0.560   1.459   7.370  0.4353 -0.1748  0.3960
   46MOL    C5649745   0.558   1.346   7.285 -0.9031  0.1406 -0.5169
   46MOL    C5749746   0.805   1.186   7.097 -0.8632 -0.0423 -0.6305
   46MOL    C5849747   0.867   1.160   6.972  0.4262  0.0231  0.1839
   46MOL    C5949748   1.077   0.888   6.904 -0.1872  0.2445  0.2449
   46MOL    C6049749   1.157   0.777   6.935  0.2830 -0.3771 -0.1754
   46MOL    H6149750   1.057   0.544   6.704  2.1695 -0.3185 -0.2917
   46MOL    H6249751   0.919   0.739   6.631 -0.5270  0.0425  0.7793
   46MOL    H6349752   0.669   0.908   6.848 -0.1975 -1.3585  1.9946
   46MOL    H6449753   0.563   0.950   7.068 -0.9950  1.8495 -1.9983
   46MOL    H6549754   0.745   1.135   7.477 -0.9214 -0.2130  0.8154
   46MOL    H6649755   0.735   1.331   7.632  0.7373 -0.3180 -0.7523
   46MOL    H6749756   0.472   1.719   7.489 -1.0328 -0.9139  0.2117
   46MOL    H6849757   0.643   1.737   7.446  1.2788  0.2689  1.5889
   46MOL    H6949758   0.589   1.793   7.599 -1.2154  0.2230 -0.4882
   46MOL    H7049759   0.490   1.627   7.768  1.7016  1.6748 -1.1720
   46MOL    H7149760   0.415   1.525   7.646  2.3043 -2.3525 -2.6253
   46MOL    H7249761   0.536   1.456   7.767  0.7905 -1.3788 -1.1355
   46MOL    H7349762   0.846   1.612   7.465 -0.7829  0.1708 -0.5627
   46MOL    H7449763   1.080   1.662   7.556  0.3113  0.7558 -0.0531
   46MOL    H7549764   0.921   1.590   7.954 -0.8049  0.5720  0.9771
   46MOL    H7649765   0.700   1.576   7.866  1.0788 -0.9019  0.2795
   46MOL    H7749766   0.502   1.547   7.346  0.3888 -0.9977 -2.7024
   46MOL    H7849767   0.517   1.342   7.185  2.2423 -1.0021 -1.8146
   46MOL    H7949768   0.847   1.256   7.168 -0.6425 -1.5184  0.7325
   46MOL    H8049769   0.958   1.210   6.939  0.6815 -1.0699 -0.7738
   46MOL    H8149770   1.075   0.977   6.966  0.8493 -0.0695  0.7502
   46MOL    H8249771   1.227   0.778   7.018  0.4249 -0.4431 -0.2946
   46MOL    H8349772   1.148   1.772   7.805 -1.5839 -0.1488 -1.1716
   8.25327   8.25327   8.25327
