;
; Gromacs include topology (itp) file.
; For Molecular Group XYZ
; Force field scheme: opls2005
; Produced from DL_FIELD v4.11
;


[ moleculetype ]
; name    nrexcl
XYZ    3

[ atoms ]
; nr   type   resnr   residu    atom    cgnr    charge    mass
    1        CA    1  MOL      C1     1  -0.1150000   12.0115
    2        CA    1  MOL      C2     2  -0.1150000   12.0115
    3        CA    1  MOL      C3     3  -0.1150000   12.0115
    4        CA    1  MOL      C4     4   0.1380000   12.0115
    5        SY    1  MOL      S5     5   0.7840000   32.0610
    6        OY    1  MOL      O6     6  -0.5300000   15.9994
    7        OY    1  MOL      O7     7  -0.5300000   15.9994
    8        CA    1  MOL      C8     8   0.1380000   12.0115
    9        CA    1  MOL      C9     9  -0.1150000   12.0115
   10        CA    1  MOL     C10    10  -0.1150000   12.0115
   11        CA    1  MOL     C11    11   0.0850000   12.0115
   12        OS    1  MOL     O12    12  -0.1700000   15.9994
   13        CA    1  MOL     C13    13   0.0850000   12.0115
   14        CA    1  MOL     C14    14  -0.1150000   12.0115
   15        CA    1  MOL     C15    15  -0.1150000   12.0115
   16        CA    1  MOL     C16    16  -0.1150000   12.0115
   17        CT    1  MOL     C17    17   0.2300000   12.0115
   18        CT    1  MOL     C18    18  -0.1800000   12.0115
   19        CT    1  MOL     C19    19  -0.1800000   12.0115
   20        CA    1  MOL     C20    20  -0.1150000   12.0115
   21        CA    1  MOL     C21    21  -0.1150000   12.0115
   22        CA    1  MOL     C22    22  -0.1150000   12.0115
   23        CA    1  MOL     C23    23   0.0850000   12.0115
   24        OS    1  MOL     O24    24  -0.1700000   15.9994
   25        CA    1  MOL     C25    25  -0.1150000   12.0115
   26        CA    1  MOL     C26    26  -0.1150000   12.0115
   27        CA    1  MOL     C27    27  -0.1150000   12.0115
   28        CA    1  MOL     C28    28  -0.1150000   12.0115
   29        CA    1  MOL     C29    29  -0.1150000   12.0115
   30        CA    1  MOL     C30    30  -0.1150000   12.0115
   31        CA    1  MOL     C31    31  -0.1150000   12.0115
   32        CA    1  MOL     C32    32  -0.1150000   12.0115
   33        HA    1  MOL     H33    33   0.1150000    1.0080
   34        HA    1  MOL     H34    34   0.1150000    1.0080
   35        HA    1  MOL     H35    35   0.1150000    1.0080
   36        HA    1  MOL     H36    36   0.1150000    1.0080
   37        HA    1  MOL     H37    37   0.1150000    1.0080
   38        HA    1  MOL     H38    38   0.1150000    1.0080
   39        HC    1  MOL     H39    39   0.0600000    1.0080
   40        HC    1  MOL     H40    40   0.0600000    1.0080
   41        HC    1  MOL     H41    41   0.0600000    1.0080
   42        HC    1  MOL     H42    42   0.0600000    1.0080
   43        HC    1  MOL     H43    43   0.0600000    1.0080
   44        HC    1  MOL     H44    44   0.0600000    1.0080
   45        HA    1  MOL     H45    45   0.1150000    1.0080
   46        HA    1  MOL     H46    46   0.1150000    1.0080
   47        HA    1  MOL     H47    47   0.1150000    1.0080
   48        HA    1  MOL     H48    48   0.1150000    1.0080
   49        HA    1  MOL     H49    49   0.1150000    1.0080
   50        HA    1  MOL     H50    50   0.1150000    1.0080
   51        HA    1  MOL     H51    51   0.1150000    1.0080
   52        HA    1  MOL     H52    52   0.1150000    1.0080
   53        HA    1  MOL     H53    53   0.1150000    1.0080
   54        HA    1  MOL     H54    54   0.1150000    1.0080
   55        HA    1  MOL     H55    55   0.1150000    1.0080
   56        CA    1  MOL     C56    56   0.0850000   12.0115
   57        CA    1  MOL     C57    57  -0.1150000   12.0115
   58        CA    1  MOL     C58    58  -0.1150000   12.0115
   59        CA    1  MOL     C59    59   0.1380000   12.0115
   60        SY    1  MOL     S60    60   0.7840000   32.0610
   61        OY    1  MOL     O61    61  -0.5300000   15.9994
   62        OY    1  MOL     O62    62  -0.5300000   15.9994
   63        CA    1  MOL     C63    63   0.1380000   12.0115
   64        CA    1  MOL     C64    64  -0.1150000   12.0115
   65        CA    1  MOL     C65    65  -0.1150000   12.0115
   66        CA    1  MOL     C66    66   0.0850000   12.0115
   67        OS    1  MOL     O67    67  -0.1700000   15.9994
   68        CA    1  MOL     C68    68   0.0850000   12.0115
   69        CA    1  MOL     C69    69  -0.1150000   12.0115
   70        CA    1  MOL     C70    70  -0.1150000   12.0115
   71        CA    1  MOL     C71    71  -0.1150000   12.0115
   72        CT    1  MOL     C72    72   0.2300000   12.0115
   73        CT    1  MOL     C73    73  -0.1800000   12.0115
   74        CT    1  MOL     C74    74  -0.1800000   12.0115
   75        CA    1  MOL     C75    75  -0.1150000   12.0115
   76        CA    1  MOL     C76    76  -0.1150000   12.0115
   77        CA    1  MOL     C77    77  -0.1150000   12.0115
   78        CA    1  MOL     C78    78   0.0850000   12.0115
   79        OS    1  MOL     O79    79  -0.1700000   15.9994
   80        CA    1  MOL     C80    80  -0.1150000   12.0115
   81        CA    1  MOL     C81    81  -0.1150000   12.0115
   82        CA    1  MOL     C82    82  -0.1150000   12.0115
   83        CA    1  MOL     C83    83  -0.1150000   12.0115
   84        CA    1  MOL     C84    84  -0.1150000   12.0115
   85        CA    1  MOL     C85    85  -0.1150000   12.0115
   86        CA    1  MOL     C86    86  -0.1150000   12.0115
   87        CA    1  MOL     C87    87  -0.1150000   12.0115
   88        HA    1  MOL     H88    88   0.1150000    1.0080
   89        HA    1  MOL     H89    89   0.1150000    1.0080
   90        HA    1  MOL     H90    90   0.1150000    1.0080
   91        HA    1  MOL     H91    91   0.1150000    1.0080
   92        HA    1  MOL     H92    92   0.1150000    1.0080
   93        HA    1  MOL     H93    93   0.1150000    1.0080
   94        HC    1  MOL     H94    94   0.0600000    1.0080
   95        HC    1  MOL     H95    95   0.0600000    1.0080
   96        HC    1  MOL     H96    96   0.0600000    1.0080
   97        HC    1  MOL     H97    97   0.0600000    1.0080
   98        HC    1  MOL     H98    98   0.0600000    1.0080
   99        HC    1  MOL     H99    99   0.0600000    1.0080
  100        HA    1  MOL    H100   100   0.1150000    1.0080
  101        HA    1  MOL    H101   101   0.1150000    1.0080
  102        HA    1  MOL    H102   102   0.1150000    1.0080
  103        HA    1  MOL    H103   103   0.1150000    1.0080
  104        HA    1  MOL    H104   104   0.1150000    1.0080
  105        HA    1  MOL    H105   105   0.1150000    1.0080
  106        HA    1  MOL    H106   106   0.1150000    1.0080
  107        HA    1  MOL    H107   107   0.1150000    1.0080
  108        HA    1  MOL    H108   108   0.1150000    1.0080
  109        HA    1  MOL    H109   109   0.1150000    1.0080
  110        CA    1  MOL    C110   110   0.0850000   12.0115
  111        CA    1  MOL    C111   111  -0.1150000   12.0115
  112        CA    1  MOL    C112   112  -0.1150000   12.0115
  113        CA    1  MOL    C113   113   0.1380000   12.0115
  114        SY    1  MOL    S114   114   0.7840000   32.0610
  115        OY    1  MOL    O115   115  -0.5300000   15.9994
  116        OY    1  MOL    O116   116  -0.5300000   15.9994
  117        CA    1  MOL    C117   117   0.1380000   12.0115
  118        CA    1  MOL    C118   118  -0.1150000   12.0115
  119        CA    1  MOL    C119   119  -0.1150000   12.0115
  120        CA    1  MOL    C120   120   0.0850000   12.0115
  121        OS    1  MOL    O121   121  -0.1700000   15.9994
  122        CA    1  MOL    C122   122   0.0850000   12.0115
  123        CA    1  MOL    C123   123  -0.1150000   12.0115
  124        CA    1  MOL    C124   124  -0.1150000   12.0115
  125        CA    1  MOL    C125   125  -0.1150000   12.0115
  126        CT    1  MOL    C126   126   0.2300000   12.0115
  127        CT    1  MOL    C127   127  -0.1800000   12.0115
  128        CT    1  MOL    C128   128  -0.1800000   12.0115
  129        CA    1  MOL    C129   129  -0.1150000   12.0115
  130        CA    1  MOL    C130   130  -0.1150000   12.0115
  131        CA    1  MOL    C131   131  -0.1150000   12.0115
  132        CA    1  MOL    C132   132   0.0850000   12.0115
  133        OS    1  MOL    O133   133  -0.1700000   15.9994
  134        CA    1  MOL    C134   134  -0.1150000   12.0115
  135        CA    1  MOL    C135   135  -0.1150000   12.0115
  136        CA    1  MOL    C136   136  -0.1150000   12.0115
  137        CA    1  MOL    C137   137  -0.1150000   12.0115
  138        CA    1  MOL    C138   138  -0.1150000   12.0115
  139        CA    1  MOL    C139   139  -0.1150000   12.0115
  140        CA    1  MOL    C140   140  -0.1150000   12.0115
  141        CA    1  MOL    C141   141  -0.1150000   12.0115
  142        HA    1  MOL    H142   142   0.1150000    1.0080
  143        HA    1  MOL    H143   143   0.1150000    1.0080
  144        HA    1  MOL    H144   144   0.1150000    1.0080
  145        HA    1  MOL    H145   145   0.1150000    1.0080
  146        HA    1  MOL    H146   146   0.1150000    1.0080
  147        HA    1  MOL    H147   147   0.1150000    1.0080
  148        HC    1  MOL    H148   148   0.0600000    1.0080
  149        HC    1  MOL    H149   149   0.0600000    1.0080
  150        HC    1  MOL    H150   150   0.0600000    1.0080
  151        HC    1  MOL    H151   151   0.0600000    1.0080
  152        HC    1  MOL    H152   152   0.0600000    1.0080
  153        HC    1  MOL    H153   153   0.0600000    1.0080
  154        HA    1  MOL    H154   154   0.1150000    1.0080
  155        HA    1  MOL    H155   155   0.1150000    1.0080
  156        HA    1  MOL    H156   156   0.1150000    1.0080
  157        HA    1  MOL    H157   157   0.1150000    1.0080
  158        HA    1  MOL    H158   158   0.1150000    1.0080
  159        HA    1  MOL    H159   159   0.1150000    1.0080
  160        HA    1  MOL    H160   160   0.1150000    1.0080
  161        HA    1  MOL    H161   161   0.1150000    1.0080
  162        HA    1  MOL    H162   162   0.1150000    1.0080
  163        HA    1  MOL    H163   163   0.1150000    1.0080
  164        CA    1  MOL    C164   164   0.0850000   12.0115
  165        CA    1  MOL    C165   165  -0.1150000   12.0115
  166        CA    1  MOL    C166   166  -0.1150000   12.0115
  167        CA    1  MOL    C167   167   0.1380000   12.0115
  168        SY    1  MOL    S168   168   0.7840000   32.0610
  169        OY    1  MOL    O169   169  -0.5300000   15.9994
  170        OY    1  MOL    O170   170  -0.5300000   15.9994
  171        CA    1  MOL    C171   171   0.1380000   12.0115
  172        CA    1  MOL    C172   172  -0.1150000   12.0115
  173        CA    1  MOL    C173   173  -0.1150000   12.0115
  174        CA    1  MOL    C174   174   0.0850000   12.0115
  175        OS    1  MOL    O175   175  -0.1700000   15.9994
  176        CA    1  MOL    C176   176   0.0850000   12.0115
  177        CA    1  MOL    C177   177  -0.1150000   12.0115
  178        CA    1  MOL    C178   178  -0.1150000   12.0115
  179        CA    1  MOL    C179   179  -0.1150000   12.0115
  180        CT    1  MOL    C180   180   0.2300000   12.0115
  181        CT    1  MOL    C181   181  -0.1800000   12.0115
  182        CT    1  MOL    C182   182  -0.1800000   12.0115
  183        CA    1  MOL    C183   183  -0.1150000   12.0115
  184        CA    1  MOL    C184   184  -0.1150000   12.0115
  185        CA    1  MOL    C185   185  -0.1150000   12.0115
  186        CA    1  MOL    C186   186   0.0850000   12.0115
  187        OS    1  MOL    O187   187  -0.1700000   15.9994
  188        CA    1  MOL    C188   188  -0.1150000   12.0115
  189        CA    1  MOL    C189   189  -0.1150000   12.0115
  190        CA    1  MOL    C190   190  -0.1150000   12.0115
  191        CA    1  MOL    C191   191  -0.1150000   12.0115
  192        CA    1  MOL    C192   192  -0.1150000   12.0115
  193        CA    1  MOL    C193   193  -0.1150000   12.0115
  194        CA    1  MOL    C194   194  -0.1150000   12.0115
  195        CA    1  MOL    C195   195  -0.1150000   12.0115
  196        HA    1  MOL    H196   196   0.1150000    1.0080
  197        HA    1  MOL    H197   197   0.1150000    1.0080
  198        HA    1  MOL    H198   198   0.1150000    1.0080
  199        HA    1  MOL    H199   199   0.1150000    1.0080
  200        HA    1  MOL    H200   200   0.1150000    1.0080
  201        HA    1  MOL    H201   201   0.1150000    1.0080
  202        HC    1  MOL    H202   202   0.0600000    1.0080
  203        HC    1  MOL    H203   203   0.0600000    1.0080
  204        HC    1  MOL    H204   204   0.0600000    1.0080
  205        HC    1  MOL    H205   205   0.0600000    1.0080
  206        HC    1  MOL    H206   206   0.0600000    1.0080
  207        HC    1  MOL    H207   207   0.0600000    1.0080
  208        HA    1  MOL    H208   208   0.1150000    1.0080
  209        HA    1  MOL    H209   209   0.1150000    1.0080
  210        HA    1  MOL    H210   210   0.1150000    1.0080
  211        HA    1  MOL    H211   211   0.1150000    1.0080
  212        HA    1  MOL    H212   212   0.1150000    1.0080
  213        HA    1  MOL    H213   213   0.1150000    1.0080
  214        HA    1  MOL    H214   214   0.1150000    1.0080
  215        HA    1  MOL    H215   215   0.1150000    1.0080
  216        HA    1  MOL    H216   216   0.1150000    1.0080
  217        HA    1  MOL    H217   217   0.1150000    1.0080
  218        CA    1  MOL    C218   218   0.0850000   12.0115
  219        CA    1  MOL    C219   219  -0.1150000   12.0115
  220        CA    1  MOL    C220   220  -0.1150000   12.0115
  221        CA    1  MOL    C221   221   0.1380000   12.0115
  222        SY    1  MOL    S222   222   0.7840000   32.0610
  223        OY    1  MOL    O223   223  -0.5300000   15.9994
  224        OY    1  MOL    O224   224  -0.5300000   15.9994
  225        CA    1  MOL    C225   225   0.1380000   12.0115
  226        CA    1  MOL    C226   226  -0.1150000   12.0115
  227        CA    1  MOL    C227   227  -0.1150000   12.0115
  228        CA    1  MOL    C228   228   0.0850000   12.0115
  229        OS    1  MOL    O229   229  -0.1700000   15.9994
  230        CA    1  MOL    C230   230   0.0850000   12.0115
  231        CA    1  MOL    C231   231  -0.1150000   12.0115
  232        CA    1  MOL    C232   232  -0.1150000   12.0115
  233        CA    1  MOL    C233   233  -0.1150000   12.0115
  234        CT    1  MOL    C234   234   0.2300000   12.0115
  235        CT    1  MOL    C235   235  -0.1800000   12.0115
  236        CT    1  MOL    C236   236  -0.1800000   12.0115
  237        CA    1  MOL    C237   237  -0.1150000   12.0115
  238        CA    1  MOL    C238   238  -0.1150000   12.0115
  239        CA    1  MOL    C239   239  -0.1150000   12.0115
  240        CA    1  MOL    C240   240   0.0850000   12.0115
  241        OS    1  MOL    O241   241  -0.1700000   15.9994
  242        CA    1  MOL    C242   242  -0.1150000   12.0115
  243        CA    1  MOL    C243   243  -0.1150000   12.0115
  244        CA    1  MOL    C244   244  -0.1150000   12.0115
  245        CA    1  MOL    C245   245  -0.1150000   12.0115
  246        CA    1  MOL    C246   246  -0.1150000   12.0115
  247        CA    1  MOL    C247   247  -0.1150000   12.0115
  248        CA    1  MOL    C248   248  -0.1150000   12.0115
  249        CA    1  MOL    C249   249  -0.1150000   12.0115
  250        HA    1  MOL    H250   250   0.1150000    1.0080
  251        HA    1  MOL    H251   251   0.1150000    1.0080
  252        HA    1  MOL    H252   252   0.1150000    1.0080
  253        HA    1  MOL    H253   253   0.1150000    1.0080
  254        HA    1  MOL    H254   254   0.1150000    1.0080
  255        HA    1  MOL    H255   255   0.1150000    1.0080
  256        HC    1  MOL    H256   256   0.0600000    1.0080
  257        HC    1  MOL    H257   257   0.0600000    1.0080
  258        HC    1  MOL    H258   258   0.0600000    1.0080
  259        HC    1  MOL    H259   259   0.0600000    1.0080
  260        HC    1  MOL    H260   260   0.0600000    1.0080
  261        HC    1  MOL    H261   261   0.0600000    1.0080
  262        HA    1  MOL    H262   262   0.1150000    1.0080
  263        HA    1  MOL    H263   263   0.1150000    1.0080
  264        HA    1  MOL    H264   264   0.1150000    1.0080
  265        HA    1  MOL    H265   265   0.1150000    1.0080
  266        HA    1  MOL    H266   266   0.1150000    1.0080
  267        HA    1  MOL    H267   267   0.1150000    1.0080
  268        HA    1  MOL    H268   268   0.1150000    1.0080
  269        HA    1  MOL    H269   269   0.1150000    1.0080
  270        HA    1  MOL    H270   270   0.1150000    1.0080
  271        HA    1  MOL    H271   271   0.1150000    1.0080
  272        CA    1  MOL    C272   272   0.0850000   12.0115
  273        CA    1  MOL    C273   273  -0.1150000   12.0115
  274        CA    1  MOL    C274   274  -0.1150000   12.0115
  275        CA    1  MOL    C275   275   0.1380000   12.0115
  276        SY    1  MOL    S276   276   0.7840000   32.0610
  277        OY    1  MOL    O277   277  -0.5300000   15.9994
  278        OY    1  MOL    O278   278  -0.5300000   15.9994
  279        CA    1  MOL    C279   279   0.1380000   12.0115
  280        CA    1  MOL    C280   280  -0.1150000   12.0115
  281        CA    1  MOL    C281   281  -0.1150000   12.0115
  282        CA    1  MOL    C282   282   0.0850000   12.0115
  283        OS    1  MOL    O283   283  -0.1700000   15.9994
  284        CA    1  MOL    C284   284   0.0850000   12.0115
  285        CA    1  MOL    C285   285  -0.1150000   12.0115
  286        CA    1  MOL    C286   286  -0.1150000   12.0115
  287        CA    1  MOL    C287   287  -0.1150000   12.0115
  288        CT    1  MOL    C288   288   0.2300000   12.0115
  289        CT    1  MOL    C289   289  -0.1800000   12.0115
  290        CT    1  MOL    C290   290  -0.1800000   12.0115
  291        CA    1  MOL    C291   291  -0.1150000   12.0115
  292        CA    1  MOL    C292   292  -0.1150000   12.0115
  293        CA    1  MOL    C293   293  -0.1150000   12.0115
  294        CA    1  MOL    C294   294   0.0850000   12.0115
  295        OS    1  MOL    O295   295  -0.1700000   15.9994
  296        CA    1  MOL    C296   296  -0.1150000   12.0115
  297        CA    1  MOL    C297   297  -0.1150000   12.0115
  298        CA    1  MOL    C298   298  -0.1150000   12.0115
  299        CA    1  MOL    C299   299  -0.1150000   12.0115
  300        CA    1  MOL    C300   300  -0.1150000   12.0115
  301        CA    1  MOL    C301   301  -0.1150000   12.0115
  302        CA    1  MOL    C302   302  -0.1150000   12.0115
  303        CA    1  MOL    C303   303  -0.1150000   12.0115
  304        HA    1  MOL    H304   304   0.1150000    1.0080
  305        HA    1  MOL    H305   305   0.1150000    1.0080
  306        HA    1  MOL    H306   306   0.1150000    1.0080
  307        HA    1  MOL    H307   307   0.1150000    1.0080
  308        HA    1  MOL    H308   308   0.1150000    1.0080
  309        HA    1  MOL    H309   309   0.1150000    1.0080
  310        HC    1  MOL    H310   310   0.0600000    1.0080
  311        HC    1  MOL    H311   311   0.0600000    1.0080
  312        HC    1  MOL    H312   312   0.0600000    1.0080
  313        HC    1  MOL    H313   313   0.0600000    1.0080
  314        HC    1  MOL    H314   314   0.0600000    1.0080
  315        HC    1  MOL    H315   315   0.0600000    1.0080
  316        HA    1  MOL    H316   316   0.1150000    1.0080
  317        HA    1  MOL    H317   317   0.1150000    1.0080
  318        HA    1  MOL    H318   318   0.1150000    1.0080
  319        HA    1  MOL    H319   319   0.1150000    1.0080
  320        HA    1  MOL    H320   320   0.1150000    1.0080
  321        HA    1  MOL    H321   321   0.1150000    1.0080
  322        HA    1  MOL    H322   322   0.1150000    1.0080
  323        HA    1  MOL    H323   323   0.1150000    1.0080
  324        HA    1  MOL    H324   324   0.1150000    1.0080
  325        HA    1  MOL    H325   325   0.1150000    1.0080
  326        CA    1  MOL    C326   326   0.0850000   12.0115
  327        CA    1  MOL    C327   327  -0.1150000   12.0115
  328        CA    1  MOL    C328   328  -0.1150000   12.0115
  329        CA    1  MOL    C329   329   0.1380000   12.0115
  330        SY    1  MOL    S330   330   0.7840000   32.0610
  331        OY    1  MOL    O331   331  -0.5300000   15.9994
  332        OY    1  MOL    O332   332  -0.5300000   15.9994
  333        CA    1  MOL    C333   333   0.1380000   12.0115
  334        CA    1  MOL    C334   334  -0.1150000   12.0115
  335        CA    1  MOL    C335   335  -0.1150000   12.0115
  336        CA    1  MOL    C336   336   0.0850000   12.0115
  337        OS    1  MOL    O337   337  -0.1700000   15.9994
  338        CA    1  MOL    C338   338   0.0850000   12.0115
  339        CA    1  MOL    C339   339  -0.1150000   12.0115
  340        CA    1  MOL    C340   340  -0.1150000   12.0115
  341        CA    1  MOL    C341   341  -0.1150000   12.0115
  342        CT    1  MOL    C342   342   0.2300000   12.0115
  343        CT    1  MOL    C343   343  -0.1800000   12.0115
  344        CT    1  MOL    C344   344  -0.1800000   12.0115
  345        CA    1  MOL    C345   345  -0.1150000   12.0115
  346        CA    1  MOL    C346   346  -0.1150000   12.0115
  347        CA    1  MOL    C347   347  -0.1150000   12.0115
  348        CA    1  MOL    C348   348   0.0850000   12.0115
  349        OS    1  MOL    O349   349  -0.1700000   15.9994
  350        CA    1  MOL    C350   350  -0.1150000   12.0115
  351        CA    1  MOL    C351   351  -0.1150000   12.0115
  352        CA    1  MOL    C352   352  -0.1150000   12.0115
  353        CA    1  MOL    C353   353  -0.1150000   12.0115
  354        CA    1  MOL    C354   354  -0.1150000   12.0115
  355        CA    1  MOL    C355   355  -0.1150000   12.0115
  356        CA    1  MOL    C356   356  -0.1150000   12.0115
  357        CA    1  MOL    C357   357  -0.1150000   12.0115
  358        HA    1  MOL    H358   358   0.1150000    1.0080
  359        HA    1  MOL    H359   359   0.1150000    1.0080
  360        HA    1  MOL    H360   360   0.1150000    1.0080
  361        HA    1  MOL    H361   361   0.1150000    1.0080
  362        HA    1  MOL    H362   362   0.1150000    1.0080
  363        HA    1  MOL    H363   363   0.1150000    1.0080
  364        HC    1  MOL    H364   364   0.0600000    1.0080
  365        HC    1  MOL    H365   365   0.0600000    1.0080
  366        HC    1  MOL    H366   366   0.0600000    1.0080
  367        HC    1  MOL    H367   367   0.0600000    1.0080
  368        HC    1  MOL    H368   368   0.0600000    1.0080
  369        HC    1  MOL    H369   369   0.0600000    1.0080
  370        HA    1  MOL    H370   370   0.1150000    1.0080
  371        HA    1  MOL    H371   371   0.1150000    1.0080
  372        HA    1  MOL    H372   372   0.1150000    1.0080
  373        HA    1  MOL    H373   373   0.1150000    1.0080
  374        HA    1  MOL    H374   374   0.1150000    1.0080
  375        HA    1  MOL    H375   375   0.1150000    1.0080
  376        HA    1  MOL    H376   376   0.1150000    1.0080
  377        HA    1  MOL    H377   377   0.1150000    1.0080
  378        HA    1  MOL    H378   378   0.1150000    1.0080
  379        HA    1  MOL    H379   379   0.1150000    1.0080
  380        CA    1  MOL    C380   380   0.0850000   12.0115
  381        CA    1  MOL    C381   381  -0.1150000   12.0115
  382        CA    1  MOL    C382   382  -0.1150000   12.0115
  383        CA    1  MOL    C383   383   0.1380000   12.0115
  384        SY    1  MOL    S384   384   0.7840000   32.0610
  385        OY    1  MOL    O385   385  -0.5300000   15.9994
  386        OY    1  MOL    O386   386  -0.5300000   15.9994
  387        CA    1  MOL    C387   387   0.1380000   12.0115
  388        CA    1  MOL    C388   388  -0.1150000   12.0115
  389        CA    1  MOL    C389   389  -0.1150000   12.0115
  390        CA    1  MOL    C390   390   0.0850000   12.0115
  391        OS    1  MOL    O391   391  -0.1700000   15.9994
  392        CA    1  MOL    C392   392   0.0850000   12.0115
  393        CA    1  MOL    C393   393  -0.1150000   12.0115
  394        CA    1  MOL    C394   394  -0.1150000   12.0115
  395        CA    1  MOL    C395   395  -0.1150000   12.0115
  396        CT    1  MOL    C396   396   0.2300000   12.0115
  397        CT    1  MOL    C397   397  -0.1800000   12.0115
  398        CT    1  MOL    C398   398  -0.1800000   12.0115
  399        CA    1  MOL    C399   399  -0.1150000   12.0115
  400        CA    1  MOL    C400   400  -0.1150000   12.0115
  401        CA    1  MOL    C401   401  -0.1150000   12.0115
  402        CA    1  MOL    C402   402   0.0850000   12.0115
  403        OS    1  MOL    O403   403  -0.1700000   15.9994
  404        CA    1  MOL    C404   404  -0.1150000   12.0115
  405        CA    1  MOL    C405   405  -0.1150000   12.0115
  406        CA    1  MOL    C406   406  -0.1150000   12.0115
  407        CA    1  MOL    C407   407  -0.1150000   12.0115
  408        CA    1  MOL    C408   408  -0.1150000   12.0115
  409        CA    1  MOL    C409   409  -0.1150000   12.0115
  410        CA    1  MOL    C410   410  -0.1150000   12.0115
  411        CA    1  MOL    C411   411  -0.1150000   12.0115
  412        HA    1  MOL    H412   412   0.1150000    1.0080
  413        HA    1  MOL    H413   413   0.1150000    1.0080
  414        HA    1  MOL    H414   414   0.1150000    1.0080
  415        HA    1  MOL    H415   415   0.1150000    1.0080
  416        HA    1  MOL    H416   416   0.1150000    1.0080
  417        HA    1  MOL    H417   417   0.1150000    1.0080
  418        HC    1  MOL    H418   418   0.0600000    1.0080
  419        HC    1  MOL    H419   419   0.0600000    1.0080
  420        HC    1  MOL    H420   420   0.0600000    1.0080
  421        HC    1  MOL    H421   421   0.0600000    1.0080
  422        HC    1  MOL    H422   422   0.0600000    1.0080
  423        HC    1  MOL    H423   423   0.0600000    1.0080
  424        HA    1  MOL    H424   424   0.1150000    1.0080
  425        HA    1  MOL    H425   425   0.1150000    1.0080
  426        HA    1  MOL    H426   426   0.1150000    1.0080
  427        HA    1  MOL    H427   427   0.1150000    1.0080
  428        HA    1  MOL    H428   428   0.1150000    1.0080
  429        HA    1  MOL    H429   429   0.1150000    1.0080
  430        HA    1  MOL    H430   430   0.1150000    1.0080
  431        HA    1  MOL    H431   431   0.1150000    1.0080
  432        HA    1  MOL    H432   432   0.1150000    1.0080
  433        HA    1  MOL    H433   433   0.1150000    1.0080
  434        CA    1  MOL    C434   434   0.0850000   12.0115
  435        CA    1  MOL    C435   435  -0.1150000   12.0115
  436        CA    1  MOL    C436   436  -0.1150000   12.0115
  437        CA    1  MOL    C437   437   0.1380000   12.0115
  438        SY    1  MOL    S438   438   0.7840000   32.0610
  439        OY    1  MOL    O439   439  -0.5300000   15.9994
  440        OY    1  MOL    O440   440  -0.5300000   15.9994
  441        CA    1  MOL    C441   441   0.1380000   12.0115
  442        CA    1  MOL    C442   442  -0.1150000   12.0115
  443        CA    1  MOL    C443   443  -0.1150000   12.0115
  444        CA    1  MOL    C444   444   0.0850000   12.0115
  445        OS    1  MOL    O445   445  -0.1700000   15.9994
  446        CA    1  MOL    C446   446   0.0850000   12.0115
  447        CA    1  MOL    C447   447  -0.1150000   12.0115
  448        CA    1  MOL    C448   448  -0.1150000   12.0115
  449        CA    1  MOL    C449   449  -0.1150000   12.0115
  450        CT    1  MOL    C450   450   0.2300000   12.0115
  451        CT    1  MOL    C451   451  -0.1800000   12.0115
  452        CT    1  MOL    C452   452  -0.1800000   12.0115
  453        CA    1  MOL    C453   453  -0.1150000   12.0115
  454        CA    1  MOL    C454   454  -0.1150000   12.0115
  455        CA    1  MOL    C455   455  -0.1150000   12.0115
  456        CA    1  MOL    C456   456   0.0850000   12.0115
  457        OS    1  MOL    O457   457  -0.1700000   15.9994
  458        CA    1  MOL    C458   458  -0.1150000   12.0115
  459        CA    1  MOL    C459   459  -0.1150000   12.0115
  460        CA    1  MOL    C460   460  -0.1150000   12.0115
  461        CA    1  MOL    C461   461  -0.1150000   12.0115
  462        CA    1  MOL    C462   462  -0.1150000   12.0115
  463        CA    1  MOL    C463   463  -0.1150000   12.0115
  464        CA    1  MOL    C464   464  -0.1150000   12.0115
  465        CA    1  MOL    C465   465  -0.1150000   12.0115
  466        HA    1  MOL    H466   466   0.1150000    1.0080
  467        HA    1  MOL    H467   467   0.1150000    1.0080
  468        HA    1  MOL    H468   468   0.1150000    1.0080
  469        HA    1  MOL    H469   469   0.1150000    1.0080
  470        HA    1  MOL    H470   470   0.1150000    1.0080
  471        HA    1  MOL    H471   471   0.1150000    1.0080
  472        HC    1  MOL    H472   472   0.0600000    1.0080
  473        HC    1  MOL    H473   473   0.0600000    1.0080
  474        HC    1  MOL    H474   474   0.0600000    1.0080
  475        HC    1  MOL    H475   475   0.0600000    1.0080
  476        HC    1  MOL    H476   476   0.0600000    1.0080
  477        HC    1  MOL    H477   477   0.0600000    1.0080
  478        HA    1  MOL    H478   478   0.1150000    1.0080
  479        HA    1  MOL    H479   479   0.1150000    1.0080
  480        HA    1  MOL    H480   480   0.1150000    1.0080
  481        HA    1  MOL    H481   481   0.1150000    1.0080
  482        HA    1  MOL    H482   482   0.1150000    1.0080
  483        HA    1  MOL    H483   483   0.1150000    1.0080
  484        HA    1  MOL    H484   484   0.1150000    1.0080
  485        HA    1  MOL    H485   485   0.1150000    1.0080
  486        HA    1  MOL    H486   486   0.1150000    1.0080
  487        HA    1  MOL    H487   487   0.1150000    1.0080
  488        CA    1  MOL    C488   488   0.0850000   12.0115
  489        CA    1  MOL    C489   489  -0.1150000   12.0115
  490        CA    1  MOL    C490   490  -0.1150000   12.0115
  491        CA    1  MOL    C491   491   0.1380000   12.0115
  492        SY    1  MOL    S492   492   0.7840000   32.0610
  493        OY    1  MOL    O493   493  -0.5300000   15.9994
  494        OY    1  MOL    O494   494  -0.5300000   15.9994
  495        CA    1  MOL    C495   495   0.1380000   12.0115
  496        CA    1  MOL    C496   496  -0.1150000   12.0115
  497        CA    1  MOL    C497   497  -0.1150000   12.0115
  498        CA    1  MOL    C498   498   0.0850000   12.0115
  499        OS    1  MOL    O499   499  -0.1700000   15.9994
  500        CA    1  MOL    C500   500   0.0850000   12.0115
  501        CA    1  MOL    C501   501  -0.1150000   12.0115
  502        CA    1  MOL    C502   502  -0.1150000   12.0115
  503        CA    1  MOL    C503   503  -0.1150000   12.0115
  504        CT    1  MOL    C504   504   0.2300000   12.0115
  505        CT    1  MOL    C505   505  -0.1800000   12.0115
  506        CT    1  MOL    C506   506  -0.1800000   12.0115
  507        CA    1  MOL    C507   507  -0.1150000   12.0115
  508        CA    1  MOL    C508   508  -0.1150000   12.0115
  509        CA    1  MOL    C509   509  -0.1150000   12.0115
  510        CA    1  MOL    C510   510   0.0850000   12.0115
  511        OS    1  MOL    O511   511  -0.1700000   15.9994
  512        CA    1  MOL    C512   512  -0.1150000   12.0115
  513        CA    1  MOL    C513   513  -0.1150000   12.0115
  514        CA    1  MOL    C514   514  -0.1150000   12.0115
  515        CA    1  MOL    C515   515  -0.1150000   12.0115
  516        CA    1  MOL    C516   516  -0.1150000   12.0115
  517        CA    1  MOL    C517   517  -0.1150000   12.0115
  518        CA    1  MOL    C518   518  -0.1150000   12.0115
  519        CA    1  MOL    C519   519  -0.1150000   12.0115
  520        HA    1  MOL    H520   520   0.1150000    1.0080
  521        HA    1  MOL    H521   521   0.1150000    1.0080
  522        HA    1  MOL    H522   522   0.1150000    1.0080
  523        HA    1  MOL    H523   523   0.1150000    1.0080
  524        HA    1  MOL    H524   524   0.1150000    1.0080
  525        HA    1  MOL    H525   525   0.1150000    1.0080
  526        HC    1  MOL    H526   526   0.0600000    1.0080
  527        HC    1  MOL    H527   527   0.0600000    1.0080
  528        HC    1  MOL    H528   528   0.0600000    1.0080
  529        HC    1  MOL    H529   529   0.0600000    1.0080
  530        HC    1  MOL    H530   530   0.0600000    1.0080
  531        HC    1  MOL    H531   531   0.0600000    1.0080
  532        HA    1  MOL    H532   532   0.1150000    1.0080
  533        HA    1  MOL    H533   533   0.1150000    1.0080
  534        HA    1  MOL    H534   534   0.1150000    1.0080
  535        HA    1  MOL    H535   535   0.1150000    1.0080
  536        HA    1  MOL    H536   536   0.1150000    1.0080
  537        HA    1  MOL    H537   537   0.1150000    1.0080
  538        HA    1  MOL    H538   538   0.1150000    1.0080
  539        HA    1  MOL    H539   539   0.1150000    1.0080
  540        HA    1  MOL    H540   540   0.1150000    1.0080
  541        HA    1  MOL    H541   541   0.1150000    1.0080
  542        CA    1  MOL    C542   542   0.0850000   12.0115
  543        CA    1  MOL    C543   543  -0.1150000   12.0115
  544        CA    1  MOL    C544   544  -0.1150000   12.0115
  545        CA    1  MOL    C545   545   0.1380000   12.0115
  546        SY    1  MOL    S546   546   0.7840000   32.0610
  547        OY    1  MOL    O547   547  -0.5300000   15.9994
  548        OY    1  MOL    O548   548  -0.5300000   15.9994
  549        CA    1  MOL    C549   549   0.1380000   12.0115
  550        CA    1  MOL    C550   550  -0.1150000   12.0115
  551        CA    1  MOL    C551   551  -0.1150000   12.0115
  552        CA    1  MOL    C552   552   0.0850000   12.0115
  553        OS    1  MOL    O553   553  -0.1700000   15.9994
  554        CA    1  MOL    C554   554   0.0850000   12.0115
  555        CA    1  MOL    C555   555  -0.1150000   12.0115
  556        CA    1  MOL    C556   556  -0.1150000   12.0115
  557        CA    1  MOL    C557   557  -0.1150000   12.0115
  558        CT    1  MOL    C558   558   0.2300000   12.0115
  559        CT    1  MOL    C559   559  -0.1800000   12.0115
  560        CT    1  MOL    C560   560  -0.1800000   12.0115
  561        CA    1  MOL    C561   561  -0.1150000   12.0115
  562        CA    1  MOL    C562   562  -0.1150000   12.0115
  563        CA    1  MOL    C563   563  -0.1150000   12.0115
  564        CA    1  MOL    C564   564   0.0850000   12.0115
  565        OS    1  MOL    O565   565  -0.1700000   15.9994
  566        CA    1  MOL    C566   566  -0.1150000   12.0115
  567        CA    1  MOL    C567   567  -0.1150000   12.0115
  568        CA    1  MOL    C568   568  -0.1150000   12.0115
  569        CA    1  MOL    C569   569  -0.1150000   12.0115
  570        CA    1  MOL    C570   570  -0.1150000   12.0115
  571        CA    1  MOL    C571   571  -0.1150000   12.0115
  572        CA    1  MOL    C572   572  -0.1150000   12.0115
  573        CA    1  MOL    C573   573  -0.1150000   12.0115
  574        HA    1  MOL    H574   574   0.1150000    1.0080
  575        HA    1  MOL    H575   575   0.1150000    1.0080
  576        HA    1  MOL    H576   576   0.1150000    1.0080
  577        HA    1  MOL    H577   577   0.1150000    1.0080
  578        HA    1  MOL    H578   578   0.1150000    1.0080
  579        HA    1  MOL    H579   579   0.1150000    1.0080
  580        HC    1  MOL    H580   580   0.0600000    1.0080
  581        HC    1  MOL    H581   581   0.0600000    1.0080
  582        HC    1  MOL    H582   582   0.0600000    1.0080
  583        HC    1  MOL    H583   583   0.0600000    1.0080
  584        HC    1  MOL    H584   584   0.0600000    1.0080
  585        HC    1  MOL    H585   585   0.0600000    1.0080
  586        HA    1  MOL    H586   586   0.1150000    1.0080
  587        HA    1  MOL    H587   587   0.1150000    1.0080
  588        HA    1  MOL    H588   588   0.1150000    1.0080
  589        HA    1  MOL    H589   589   0.1150000    1.0080
  590        HA    1  MOL    H590   590   0.1150000    1.0080
  591        HA    1  MOL    H591   591   0.1150000    1.0080
  592        HA    1  MOL    H592   592   0.1150000    1.0080
  593        HA    1  MOL    H593   593   0.1150000    1.0080
  594        HA    1  MOL    H594   594   0.1150000    1.0080
  595        HA    1  MOL    H595   595   0.1150000    1.0080
  596        CA    1  MOL    C596   596   0.0850000   12.0115
  597        CA    1  MOL    C597   597  -0.1150000   12.0115
  598        CA    1  MOL    C598   598  -0.1150000   12.0115
  599        CA    1  MOL    C599   599   0.1380000   12.0115
  600        SY    1  MOL    S600   600   0.7840000   32.0610
  601        OY    1  MOL    O601   601  -0.5300000   15.9994
  602        OY    1  MOL    O602   602  -0.5300000   15.9994
  603        CA    1  MOL    C603   603   0.1380000   12.0115
  604        CA    1  MOL    C604   604  -0.1150000   12.0115
  605        CA    1  MOL    C605   605  -0.1150000   12.0115
  606        CA    1  MOL    C606   606   0.0850000   12.0115
  607        OS    1  MOL    O607   607  -0.1700000   15.9994
  608        CA    1  MOL    C608   608   0.0850000   12.0115
  609        CA    1  MOL    C609   609  -0.1150000   12.0115
  610        CA    1  MOL    C610   610  -0.1150000   12.0115
  611        CA    1  MOL    C611   611  -0.1150000   12.0115
  612        CT    1  MOL    C612   612   0.2300000   12.0115
  613        CT    1  MOL    C613   613  -0.1800000   12.0115
  614        CT    1  MOL    C614   614  -0.1800000   12.0115
  615        CA    1  MOL    C615   615  -0.1150000   12.0115
  616        CA    1  MOL    C616   616  -0.1150000   12.0115
  617        CA    1  MOL    C617   617  -0.1150000   12.0115
  618        CA    1  MOL    C618   618   0.0850000   12.0115
  619        OS    1  MOL    O619   619  -0.1700000   15.9994
  620        CA    1  MOL    C620   620  -0.1150000   12.0115
  621        CA    1  MOL    C621   621  -0.1150000   12.0115
  622        CA    1  MOL    C622   622  -0.1150000   12.0115
  623        CA    1  MOL    C623   623  -0.1150000   12.0115
  624        CA    1  MOL    C624   624  -0.1150000   12.0115
  625        CA    1  MOL    C625   625  -0.1150000   12.0115
  626        CA    1  MOL    C626   626  -0.1150000   12.0115
  627        CA    1  MOL    C627   627  -0.1150000   12.0115
  628        HA    1  MOL    H628   628   0.1150000    1.0080
  629        HA    1  MOL    H629   629   0.1150000    1.0080
  630        HA    1  MOL    H630   630   0.1150000    1.0080
  631        HA    1  MOL    H631   631   0.1150000    1.0080
  632        HA    1  MOL    H632   632   0.1150000    1.0080
  633        HA    1  MOL    H633   633   0.1150000    1.0080
  634        HC    1  MOL    H634   634   0.0600000    1.0080
  635        HC    1  MOL    H635   635   0.0600000    1.0080
  636        HC    1  MOL    H636   636   0.0600000    1.0080
  637        HC    1  MOL    H637   637   0.0600000    1.0080
  638        HC    1  MOL    H638   638   0.0600000    1.0080
  639        HC    1  MOL    H639   639   0.0600000    1.0080
  640        HA    1  MOL    H640   640   0.1150000    1.0080
  641        HA    1  MOL    H641   641   0.1150000    1.0080
  642        HA    1  MOL    H642   642   0.1150000    1.0080
  643        HA    1  MOL    H643   643   0.1150000    1.0080
  644        HA    1  MOL    H644   644   0.1150000    1.0080
  645        HA    1  MOL    H645   645   0.1150000    1.0080
  646        HA    1  MOL    H646   646   0.1150000    1.0080
  647        HA    1  MOL    H647   647   0.1150000    1.0080
  648        HA    1  MOL    H648   648   0.1150000    1.0080
  649        HA    1  MOL    H649   649   0.1150000    1.0080
  650        CA    1  MOL    C650   650   0.0850000   12.0115
  651        CA    1  MOL    C651   651  -0.1150000   12.0115
  652        CA    1  MOL    C652   652  -0.1150000   12.0115
  653        CA    1  MOL    C653   653   0.1380000   12.0115
  654        SY    1  MOL    S654   654   0.7840000   32.0610
  655        OY    1  MOL    O655   655  -0.5300000   15.9994
  656        OY    1  MOL    O656   656  -0.5300000   15.9994
  657        CA    1  MOL    C657   657   0.1380000   12.0115
  658        CA    1  MOL    C658   658  -0.1150000   12.0115
  659        CA    1  MOL    C659   659  -0.1150000   12.0115
  660        CA    1  MOL    C660   660   0.0850000   12.0115
  661        OS    1  MOL    O661   661  -0.1700000   15.9994
  662        CA    1  MOL    C662   662   0.0850000   12.0115
  663        CA    1  MOL    C663   663  -0.1150000   12.0115
  664        CA    1  MOL    C664   664  -0.1150000   12.0115
  665        CA    1  MOL    C665   665  -0.1150000   12.0115
  666        CT    1  MOL    C666   666   0.2300000   12.0115
  667        CT    1  MOL    C667   667  -0.1800000   12.0115
  668        CT    1  MOL    C668   668  -0.1800000   12.0115
  669        CA    1  MOL    C669   669  -0.1150000   12.0115
  670        CA    1  MOL    C670   670  -0.1150000   12.0115
  671        CA    1  MOL    C671   671  -0.1150000   12.0115
  672        CA    1  MOL    C672   672   0.0850000   12.0115
  673        OS    1  MOL    O673   673  -0.1700000   15.9994
  674        CA    1  MOL    C674   674  -0.1150000   12.0115
  675        CA    1  MOL    C675   675  -0.1150000   12.0115
  676        CA    1  MOL    C676   676  -0.1150000   12.0115
  677        CA    1  MOL    C677   677  -0.1150000   12.0115
  678        CA    1  MOL    C678   678  -0.1150000   12.0115
  679        CA    1  MOL    C679   679  -0.1150000   12.0115
  680        CA    1  MOL    C680   680  -0.1150000   12.0115
  681        CA    1  MOL    C681   681  -0.1150000   12.0115
  682        HA    1  MOL    H682   682   0.1150000    1.0080
  683        HA    1  MOL    H683   683   0.1150000    1.0080
  684        HA    1  MOL    H684   684   0.1150000    1.0080
  685        HA    1  MOL    H685   685   0.1150000    1.0080
  686        HA    1  MOL    H686   686   0.1150000    1.0080
  687        HA    1  MOL    H687   687   0.1150000    1.0080
  688        HC    1  MOL    H688   688   0.0600000    1.0080
  689        HC    1  MOL    H689   689   0.0600000    1.0080
  690        HC    1  MOL    H690   690   0.0600000    1.0080
  691        HC    1  MOL    H691   691   0.0600000    1.0080
  692        HC    1  MOL    H692   692   0.0600000    1.0080
  693        HC    1  MOL    H693   693   0.0600000    1.0080
  694        HA    1  MOL    H694   694   0.1150000    1.0080
  695        HA    1  MOL    H695   695   0.1150000    1.0080
  696        HA    1  MOL    H696   696   0.1150000    1.0080
  697        HA    1  MOL    H697   697   0.1150000    1.0080
  698        HA    1  MOL    H698   698   0.1150000    1.0080
  699        HA    1  MOL    H699   699   0.1150000    1.0080
  700        HA    1  MOL    H700   700   0.1150000    1.0080
  701        HA    1  MOL    H701   701   0.1150000    1.0080
  702        HA    1  MOL    H702   702   0.1150000    1.0080
  703        HA    1  MOL    H703   703   0.1150000    1.0080
  704        CA    1  MOL    C704   704   0.0850000   12.0115
  705        CA    1  MOL    C705   705  -0.1150000   12.0115
  706        CA    1  MOL    C706   706  -0.1150000   12.0115
  707        CA    1  MOL    C707   707   0.1380000   12.0115
  708        SY    1  MOL    S708   708   0.7840000   32.0610
  709        OY    1  MOL    O709   709  -0.5300000   15.9994
  710        OY    1  MOL    O710   710  -0.5300000   15.9994
  711        CA    1  MOL    C711   711   0.1380000   12.0115
  712        CA    1  MOL    C712   712  -0.1150000   12.0115
  713        CA    1  MOL    C713   713  -0.1150000   12.0115
  714        CA    1  MOL    C714   714   0.0850000   12.0115
  715        OS    1  MOL    O715   715  -0.1700000   15.9994
  716        CA    1  MOL    C716   716   0.0850000   12.0115
  717        CA    1  MOL    C717   717  -0.1150000   12.0115
  718        CA    1  MOL    C718   718  -0.1150000   12.0115
  719        CA    1  MOL    C719   719  -0.1150000   12.0115
  720        CT    1  MOL    C720   720   0.2300000   12.0115
  721        CT    1  MOL    C721   721  -0.1800000   12.0115
  722        CT    1  MOL    C722   722  -0.1800000   12.0115
  723        CA    1  MOL    C723   723  -0.1150000   12.0115
  724        CA    1  MOL    C724   724  -0.1150000   12.0115
  725        CA    1  MOL    C725   725  -0.1150000   12.0115
  726        CA    1  MOL    C726   726   0.0850000   12.0115
  727        OS    1  MOL    O727   727  -0.1700000   15.9994
  728        CA    1  MOL    C728   728  -0.1150000   12.0115
  729        CA    1  MOL    C729   729  -0.1150000   12.0115
  730        CA    1  MOL    C730   730  -0.1150000   12.0115
  731        CA    1  MOL    C731   731  -0.1150000   12.0115
  732        CA    1  MOL    C732   732  -0.1150000   12.0115
  733        CA    1  MOL    C733   733  -0.1150000   12.0115
  734        CA    1  MOL    C734   734  -0.1150000   12.0115
  735        CA    1  MOL    C735   735  -0.1150000   12.0115
  736        HA    1  MOL    H736   736   0.1150000    1.0080
  737        HA    1  MOL    H737   737   0.1150000    1.0080
  738        HA    1  MOL    H738   738   0.1150000    1.0080
  739        HA    1  MOL    H739   739   0.1150000    1.0080
  740        HA    1  MOL    H740   740   0.1150000    1.0080
  741        HA    1  MOL    H741   741   0.1150000    1.0080
  742        HC    1  MOL    H742   742   0.0600000    1.0080
  743        HC    1  MOL    H743   743   0.0600000    1.0080
  744        HC    1  MOL    H744   744   0.0600000    1.0080
  745        HC    1  MOL    H745   745   0.0600000    1.0080
  746        HC    1  MOL    H746   746   0.0600000    1.0080
  747        HC    1  MOL    H747   747   0.0600000    1.0080
  748        HA    1  MOL    H748   748   0.1150000    1.0080
  749        HA    1  MOL    H749   749   0.1150000    1.0080
  750        HA    1  MOL    H750   750   0.1150000    1.0080
  751        HA    1  MOL    H751   751   0.1150000    1.0080
  752        HA    1  MOL    H752   752   0.1150000    1.0080
  753        HA    1  MOL    H753   753   0.1150000    1.0080
  754        HA    1  MOL    H754   754   0.1150000    1.0080
  755        HA    1  MOL    H755   755   0.1150000    1.0080
  756        HA    1  MOL    H756   756   0.1150000    1.0080
  757        HA    1  MOL    H757   757   0.1150000    1.0080
  758        CA    1  MOL    C758   758   0.0850000   12.0115
  759        CA    1  MOL    C759   759  -0.1150000   12.0115
  760        CA    1  MOL    C760   760  -0.1150000   12.0115
  761        CA    1  MOL    C761   761   0.1380000   12.0115
  762        SY    1  MOL    S762   762   0.7840000   32.0610
  763        OY    1  MOL    O763   763  -0.5300000   15.9994
  764        OY    1  MOL    O764   764  -0.5300000   15.9994
  765        CA    1  MOL    C765   765   0.1380000   12.0115
  766        CA    1  MOL    C766   766  -0.1150000   12.0115
  767        CA    1  MOL    C767   767  -0.1150000   12.0115
  768        CA    1  MOL    C768   768   0.0850000   12.0115
  769        OS    1  MOL    O769   769  -0.1700000   15.9994
  770        CA    1  MOL    C770   770   0.0850000   12.0115
  771        CA    1  MOL    C771   771  -0.1150000   12.0115
  772        CA    1  MOL    C772   772  -0.1150000   12.0115
  773        CA    1  MOL    C773   773  -0.1150000   12.0115
  774        CT    1  MOL    C774   774   0.2300000   12.0115
  775        CT    1  MOL    C775   775  -0.1800000   12.0115
  776        CT    1  MOL    C776   776  -0.1800000   12.0115
  777        CA    1  MOL    C777   777  -0.1150000   12.0115
  778        CA    1  MOL    C778   778  -0.1150000   12.0115
  779        CA    1  MOL    C779   779  -0.1150000   12.0115
  780        CA    1  MOL    C780   780   0.0850000   12.0115
  781        OS    1  MOL    O781   781  -0.1700000   15.9994
  782        CA    1  MOL    C782   782  -0.1150000   12.0115
  783        CA    1  MOL    C783   783  -0.1150000   12.0115
  784        CA    1  MOL    C784   784  -0.1150000   12.0115
  785        CA    1  MOL    C785   785  -0.1150000   12.0115
  786        CA    1  MOL    C786   786  -0.1150000   12.0115
  787        CA    1  MOL    C787   787  -0.1150000   12.0115
  788        CA    1  MOL    C788   788  -0.1150000   12.0115
  789        CA    1  MOL    C789   789  -0.1150000   12.0115
  790        HA    1  MOL    H790   790   0.1150000    1.0080
  791        HA    1  MOL    H791   791   0.1150000    1.0080
  792        HA    1  MOL    H792   792   0.1150000    1.0080
  793        HA    1  MOL    H793   793   0.1150000    1.0080
  794        HA    1  MOL    H794   794   0.1150000    1.0080
  795        HA    1  MOL    H795   795   0.1150000    1.0080
  796        HC    1  MOL    H796   796   0.0600000    1.0080
  797        HC    1  MOL    H797   797   0.0600000    1.0080
  798        HC    1  MOL    H798   798   0.0600000    1.0080
  799        HC    1  MOL    H799   799   0.0600000    1.0080
  800        HC    1  MOL    H800   800   0.0600000    1.0080
  801        HC    1  MOL    H801   801   0.0600000    1.0080
  802        HA    1  MOL    H802   802   0.1150000    1.0080
  803        HA    1  MOL    H803   803   0.1150000    1.0080
  804        HA    1  MOL    H804   804   0.1150000    1.0080
  805        HA    1  MOL    H805   805   0.1150000    1.0080
  806        HA    1  MOL    H806   806   0.1150000    1.0080
  807        HA    1  MOL    H807   807   0.1150000    1.0080
  808        HA    1  MOL    H808   808   0.1150000    1.0080
  809        HA    1  MOL    H809   809   0.1150000    1.0080
  810        HA    1  MOL    H810   810   0.1150000    1.0080
  811        HA    1  MOL    H811   811   0.1150000    1.0080
  812        CA    1  MOL    C812   812   0.0850000   12.0115
  813        CA    1  MOL    C813   813  -0.1150000   12.0115
  814        CA    1  MOL    C814   814  -0.1150000   12.0115
  815        CA    1  MOL    C815   815   0.1380000   12.0115
  816        SY    1  MOL    S816   816   0.7840000   32.0610
  817        OY    1  MOL    O817   817  -0.5300000   15.9994
  818        OY    1  MOL    O818   818  -0.5300000   15.9994
  819        CA    1  MOL    C819   819   0.1380000   12.0115
  820        CA    1  MOL    C820   820  -0.1150000   12.0115
  821        CA    1  MOL    C821   821  -0.1150000   12.0115
  822        CA    1  MOL    C822   822   0.0850000   12.0115
  823        OS    1  MOL    O823   823  -0.1700000   15.9994
  824        CA    1  MOL    C824   824   0.0850000   12.0115
  825        CA    1  MOL    C825   825  -0.1150000   12.0115
  826        CA    1  MOL    C826   826  -0.1150000   12.0115
  827        CA    1  MOL    C827   827  -0.1150000   12.0115
  828        CT    1  MOL    C828   828   0.2300000   12.0115
  829        CT    1  MOL    C829   829  -0.1800000   12.0115
  830        CT    1  MOL    C830   830  -0.1800000   12.0115
  831        CA    1  MOL    C831   831  -0.1150000   12.0115
  832        CA    1  MOL    C832   832  -0.1150000   12.0115
  833        CA    1  MOL    C833   833  -0.1150000   12.0115
  834        CA    1  MOL    C834   834   0.0850000   12.0115
  835        OS    1  MOL    O835   835  -0.1700000   15.9994
  836        CA    1  MOL    C836   836  -0.1150000   12.0115
  837        CA    1  MOL    C837   837  -0.1150000   12.0115
  838        CA    1  MOL    C838   838  -0.1150000   12.0115
  839        CA    1  MOL    C839   839  -0.1150000   12.0115
  840        CA    1  MOL    C840   840  -0.1150000   12.0115
  841        CA    1  MOL    C841   841  -0.1150000   12.0115
  842        CA    1  MOL    C842   842  -0.1150000   12.0115
  843        CA    1  MOL    C843   843  -0.1150000   12.0115
  844        HA    1  MOL    H844   844   0.1150000    1.0080
  845        HA    1  MOL    H845   845   0.1150000    1.0080
  846        HA    1  MOL    H846   846   0.1150000    1.0080
  847        HA    1  MOL    H847   847   0.1150000    1.0080
  848        HA    1  MOL    H848   848   0.1150000    1.0080
  849        HA    1  MOL    H849   849   0.1150000    1.0080
  850        HC    1  MOL    H850   850   0.0600000    1.0080
  851        HC    1  MOL    H851   851   0.0600000    1.0080
  852        HC    1  MOL    H852   852   0.0600000    1.0080
  853        HC    1  MOL    H853   853   0.0600000    1.0080
  854        HC    1  MOL    H854   854   0.0600000    1.0080
  855        HC    1  MOL    H855   855   0.0600000    1.0080
  856        HA    1  MOL    H856   856   0.1150000    1.0080
  857        HA    1  MOL    H857   857   0.1150000    1.0080
  858        HA    1  MOL    H858   858   0.1150000    1.0080
  859        HA    1  MOL    H859   859   0.1150000    1.0080
  860        HA    1  MOL    H860   860   0.1150000    1.0080
  861        HA    1  MOL    H861   861   0.1150000    1.0080
  862        HA    1  MOL    H862   862   0.1150000    1.0080
  863        HA    1  MOL    H863   863   0.1150000    1.0080
  864        HA    1  MOL    H864   864   0.1150000    1.0080
  865        HA    1  MOL    H865   865   0.1150000    1.0080
  866        CA    1  MOL    C866   866   0.0850000   12.0115
  867        CA    1  MOL    C867   867  -0.1150000   12.0115
  868        CA    1  MOL    C868   868  -0.1150000   12.0115
  869        CA    1  MOL    C869   869   0.1380000   12.0115
  870        SY    1  MOL    S870   870   0.7840000   32.0610
  871        OY    1  MOL    O871   871  -0.5300000   15.9994
  872        OY    1  MOL    O872   872  -0.5300000   15.9994
  873        CA    1  MOL    C873   873   0.1380000   12.0115
  874        CA    1  MOL    C874   874  -0.1150000   12.0115
  875        CA    1  MOL    C875   875  -0.1150000   12.0115
  876        CA    1  MOL    C876   876   0.0850000   12.0115
  877        OS    1  MOL    O877   877  -0.1700000   15.9994
  878        CA    1  MOL    C878   878   0.0850000   12.0115
  879        CA    1  MOL    C879   879  -0.1150000   12.0115
  880        CA    1  MOL    C880   880  -0.1150000   12.0115
  881        CA    1  MOL    C881   881  -0.1150000   12.0115
  882        CT    1  MOL    C882   882   0.2300000   12.0115
  883        CT    1  MOL    C883   883  -0.1800000   12.0115
  884        CT    1  MOL    C884   884  -0.1800000   12.0115
  885        CA    1  MOL    C885   885  -0.1150000   12.0115
  886        CA    1  MOL    C886   886  -0.1150000   12.0115
  887        CA    1  MOL    C887   887  -0.1150000   12.0115
  888        CA    1  MOL    C888   888   0.0850000   12.0115
  889        OS    1  MOL    O889   889  -0.1700000   15.9994
  890        CA    1  MOL    C890   890  -0.1150000   12.0115
  891        CA    1  MOL    C891   891  -0.1150000   12.0115
  892        CA    1  MOL    C892   892  -0.1150000   12.0115
  893        CA    1  MOL    C893   893  -0.1150000   12.0115
  894        CA    1  MOL    C894   894  -0.1150000   12.0115
  895        CA    1  MOL    C895   895  -0.1150000   12.0115
  896        CA    1  MOL    C896   896  -0.1150000   12.0115
  897        CA    1  MOL    C897   897  -0.1150000   12.0115
  898        HA    1  MOL    H898   898   0.1150000    1.0080
  899        HA    1  MOL    H899   899   0.1150000    1.0080
  900        HA    1  MOL    H900   900   0.1150000    1.0080
  901        HA    1  MOL    H901   901   0.1150000    1.0080
  902        HA    1  MOL    H902   902   0.1150000    1.0080
  903        HA    1  MOL    H903   903   0.1150000    1.0080
  904        HC    1  MOL    H904   904   0.0600000    1.0080
  905        HC    1  MOL    H905   905   0.0600000    1.0080
  906        HC    1  MOL    H906   906   0.0600000    1.0080
  907        HC    1  MOL    H907   907   0.0600000    1.0080
  908        HC    1  MOL    H908   908   0.0600000    1.0080
  909        HC    1  MOL    H909   909   0.0600000    1.0080
  910        HA    1  MOL    H910   910   0.1150000    1.0080
  911        HA    1  MOL    H911   911   0.1150000    1.0080
  912        HA    1  MOL    H912   912   0.1150000    1.0080
  913        HA    1  MOL    H913   913   0.1150000    1.0080
  914        HA    1  MOL    H914   914   0.1150000    1.0080
  915        HA    1  MOL    H915   915   0.1150000    1.0080
  916        HA    1  MOL    H916   916   0.1150000    1.0080
  917        HA    1  MOL    H917   917   0.1150000    1.0080
  918        HA    1  MOL    H918   918   0.1150000    1.0080
  919        HA    1  MOL    H919   919   0.1150000    1.0080
  920        CA    1  MOL    C920   920   0.0850000   12.0115
  921        CA    1  MOL    C921   921  -0.1150000   12.0115
  922        CA    1  MOL    C922   922  -0.1150000   12.0115
  923        CA    1  MOL    C923   923   0.1380000   12.0115
  924        SY    1  MOL    S924   924   0.7840000   32.0610
  925        OY    1  MOL    O925   925  -0.5300000   15.9994
  926        OY    1  MOL    O926   926  -0.5300000   15.9994
  927        CA    1  MOL    C927   927   0.1380000   12.0115
  928        CA    1  MOL    C928   928  -0.1150000   12.0115
  929        CA    1  MOL    C929   929  -0.1150000   12.0115
  930        CA    1  MOL    C930   930   0.0850000   12.0115
  931        OS    1  MOL    O931   931  -0.1700000   15.9994
  932        CA    1  MOL    C932   932   0.0850000   12.0115
  933        CA    1  MOL    C933   933  -0.1150000   12.0115
  934        CA    1  MOL    C934   934  -0.1150000   12.0115
  935        CA    1  MOL    C935   935  -0.1150000   12.0115
  936        CT    1  MOL    C936   936   0.2300000   12.0115
  937        CT    1  MOL    C937   937  -0.1800000   12.0115
  938        CT    1  MOL    C938   938  -0.1800000   12.0115
  939        CA    1  MOL    C939   939  -0.1150000   12.0115
  940        CA    1  MOL    C940   940  -0.1150000   12.0115
  941        CA    1  MOL    C941   941  -0.1150000   12.0115
  942        CA    1  MOL    C942   942   0.0850000   12.0115
  943        OS    1  MOL    O943   943  -0.1700000   15.9994
  944        CA    1  MOL    C944   944  -0.1150000   12.0115
  945        CA    1  MOL    C945   945  -0.1150000   12.0115
  946        CA    1  MOL    C946   946  -0.1150000   12.0115
  947        CA    1  MOL    C947   947  -0.1150000   12.0115
  948        CA    1  MOL    C948   948  -0.1150000   12.0115
  949        CA    1  MOL    C949   949  -0.1150000   12.0115
  950        CA    1  MOL    C950   950  -0.1150000   12.0115
  951        CA    1  MOL    C951   951  -0.1150000   12.0115
  952        HA    1  MOL    H952   952   0.1150000    1.0080
  953        HA    1  MOL    H953   953   0.1150000    1.0080
  954        HA    1  MOL    H954   954   0.1150000    1.0080
  955        HA    1  MOL    H955   955   0.1150000    1.0080
  956        HA    1  MOL    H956   956   0.1150000    1.0080
  957        HA    1  MOL    H957   957   0.1150000    1.0080
  958        HC    1  MOL    H958   958   0.0600000    1.0080
  959        HC    1  MOL    H959   959   0.0600000    1.0080
  960        HC    1  MOL    H960   960   0.0600000    1.0080
  961        HC    1  MOL    H961   961   0.0600000    1.0080
  962        HC    1  MOL    H962   962   0.0600000    1.0080
  963        HC    1  MOL    H963   963   0.0600000    1.0080
  964        HA    1  MOL    H964   964   0.1150000    1.0080
  965        HA    1  MOL    H965   965   0.1150000    1.0080
  966        HA    1  MOL    H966   966   0.1150000    1.0080
  967        HA    1  MOL    H967   967   0.1150000    1.0080
  968        HA    1  MOL    H968   968   0.1150000    1.0080
  969        HA    1  MOL    H969   969   0.1150000    1.0080
  970        HA    1  MOL    H970   970   0.1150000    1.0080
  971        HA    1  MOL    H971   971   0.1150000    1.0080
  972        HA    1  MOL    H972   972   0.1150000    1.0080
  973        HA    1  MOL    H973   973   0.1150000    1.0080
  974        CA    1  MOL    C974   974   0.0850000   12.0115
  975        CA    1  MOL    C975   975  -0.1150000   12.0115
  976        CA    1  MOL    C976   976  -0.1150000   12.0115
  977        CA    1  MOL    C977   977   0.1380000   12.0115
  978        SY    1  MOL    S978   978   0.7840000   32.0610
  979        OY    1  MOL    O979   979  -0.5300000   15.9994
  980        OY    1  MOL    O980   980  -0.5300000   15.9994
  981        CA    1  MOL    C981   981   0.1380000   12.0115
  982        CA    1  MOL    C982   982  -0.1150000   12.0115
  983        CA    1  MOL    C983   983  -0.1150000   12.0115
  984        CA    1  MOL    C984   984   0.0850000   12.0115
  985        OS    1  MOL    O985   985  -0.1700000   15.9994
  986        CA    1  MOL    C986   986   0.0850000   12.0115
  987        CA    1  MOL    C987   987  -0.1150000   12.0115
  988        CA    1  MOL    C988   988  -0.1150000   12.0115
  989        CA    1  MOL    C989   989  -0.1150000   12.0115
  990        CT    1  MOL    C990   990   0.2300000   12.0115
  991        CT    1  MOL    C991   991  -0.1800000   12.0115
  992        CT    1  MOL    C992   992  -0.1800000   12.0115
  993        CA    1  MOL    C993   993  -0.1150000   12.0115
  994        CA    1  MOL    C994   994  -0.1150000   12.0115
  995        CA    1  MOL    C995   995  -0.1150000   12.0115
  996        CA    1  MOL    C996   996   0.0850000   12.0115
  997        OS    1  MOL    O997   997  -0.1700000   15.9994
  998        CA    1  MOL    C998   998  -0.1150000   12.0115
  999        CA    1  MOL    C999   999  -0.1150000   12.0115
 1000        CA    1  MOL      C1  1000  -0.1150000   12.0115
 1001        CA    1  MOL      C2  1001  -0.1150000   12.0115
 1002        CA    1  MOL      C3  1002  -0.1150000   12.0115
 1003        CA    1  MOL      C4  1003  -0.1150000   12.0115
 1004        CA    1  MOL      C5  1004  -0.1150000   12.0115
 1005        CA    1  MOL      C6  1005  -0.1150000   12.0115
 1006        HA    1  MOL      H7  1006   0.1150000    1.0080
 1007        HA    1  MOL      H8  1007   0.1150000    1.0080
 1008        HA    1  MOL      H9  1008   0.1150000    1.0080
 1009        HA    1  MOL     H10  1009   0.1150000    1.0080
 1010        HA    1  MOL     H11  1010   0.1150000    1.0080
 1011        HA    1  MOL     H12  1011   0.1150000    1.0080
 1012        HC    1  MOL     H13  1012   0.0600000    1.0080
 1013        HC    1  MOL     H14  1013   0.0600000    1.0080
 1014        HC    1  MOL     H15  1014   0.0600000    1.0080
 1015        HC    1  MOL     H16  1015   0.0600000    1.0080
 1016        HC    1  MOL     H17  1016   0.0600000    1.0080
 1017        HC    1  MOL     H18  1017   0.0600000    1.0080
 1018        HA    1  MOL     H19  1018   0.1150000    1.0080
 1019        HA    1  MOL     H20  1019   0.1150000    1.0080
 1020        HA    1  MOL     H21  1020   0.1150000    1.0080
 1021        HA    1  MOL     H22  1021   0.1150000    1.0080
 1022        HA    1  MOL     H23  1022   0.1150000    1.0080
 1023        HA    1  MOL     H24  1023   0.1150000    1.0080
 1024        HA    1  MOL     H25  1024   0.1150000    1.0080
 1025        HA    1  MOL     H26  1025   0.1150000    1.0080
 1026        HA    1  MOL     H27  1026   0.1150000    1.0080
 1027        HA    1  MOL     H28  1027   0.1150000    1.0080
 1028        CA    1  MOL     C29  1028   0.0850000   12.0115
 1029        CA    1  MOL     C30  1029  -0.1150000   12.0115
 1030        CA    1  MOL     C31  1030  -0.1150000   12.0115
 1031        CA    1  MOL     C32  1031   0.1380000   12.0115
 1032        SY    1  MOL     S33  1032   0.7840000   32.0610
 1033        OY    1  MOL     O34  1033  -0.5300000   15.9994
 1034        OY    1  MOL     O35  1034  -0.5300000   15.9994
 1035        CA    1  MOL     C36  1035   0.1380000   12.0115
 1036        CA    1  MOL     C37  1036  -0.1150000   12.0115
 1037        CA    1  MOL     C38  1037  -0.1150000   12.0115
 1038        CA    1  MOL     C39  1038   0.0850000   12.0115
 1039        OS    1  MOL     O40  1039  -0.1700000   15.9994
 1040        CA    1  MOL     C41  1040   0.0850000   12.0115
 1041        CA    1  MOL     C42  1041  -0.1150000   12.0115
 1042        CA    1  MOL     C43  1042  -0.1150000   12.0115
 1043        CA    1  MOL     C44  1043  -0.1150000   12.0115
 1044        CT    1  MOL     C45  1044   0.2300000   12.0115
 1045        CT    1  MOL     C46  1045  -0.1800000   12.0115
 1046        CT    1  MOL     C47  1046  -0.1800000   12.0115
 1047        CA    1  MOL     C48  1047  -0.1150000   12.0115
 1048        CA    1  MOL     C49  1048  -0.1150000   12.0115
 1049        CA    1  MOL     C50  1049  -0.1150000   12.0115
 1050        CA    1  MOL     C51  1050   0.1500000   12.0115
 1051       OHP    1  MOL     O52  1051  -0.5850000   15.9994
 1052        CA    1  MOL     C53  1052  -0.1150000   12.0115
 1053        CA    1  MOL     C54  1053  -0.1150000   12.0115
 1054        CA    1  MOL     C55  1054  -0.1150000   12.0115
 1055        CA    1  MOL     C56  1055  -0.1150000   12.0115
 1056        CA    1  MOL     C57  1056  -0.1150000   12.0115
 1057        CA    1  MOL     C58  1057  -0.1150000   12.0115
 1058        CA    1  MOL     C59  1058  -0.1150000   12.0115
 1059        CA    1  MOL     C60  1059  -0.1150000   12.0115
 1060        HA    1  MOL     H61  1060   0.1150000    1.0080
 1061        HA    1  MOL     H62  1061   0.1150000    1.0080
 1062        HA    1  MOL     H63  1062   0.1150000    1.0080
 1063        HA    1  MOL     H64  1063   0.1150000    1.0080
 1064        HA    1  MOL     H65  1064   0.1150000    1.0080
 1065        HA    1  MOL     H66  1065   0.1150000    1.0080
 1066        HC    1  MOL     H67  1066   0.0600000    1.0080
 1067        HC    1  MOL     H68  1067   0.0600000    1.0080
 1068        HC    1  MOL     H69  1068   0.0600000    1.0080
 1069        HC    1  MOL     H70  1069   0.0600000    1.0080
 1070        HC    1  MOL     H71  1070   0.0600000    1.0080
 1071        HC    1  MOL     H72  1071   0.0600000    1.0080
 1072        HA    1  MOL     H73  1072   0.1150000    1.0080
 1073        HA    1  MOL     H74  1073   0.1150000    1.0080
 1074        HA    1  MOL     H75  1074   0.1150000    1.0080
 1075        HA    1  MOL     H76  1075   0.1150000    1.0080
 1076        HA    1  MOL     H77  1076   0.1150000    1.0080
 1077        HA    1  MOL     H78  1077   0.1150000    1.0080
 1078        HA    1  MOL     H79  1078   0.1150000    1.0080
 1079        HA    1  MOL     H80  1079   0.1150000    1.0080
 1080        HA    1  MOL     H81  1080   0.1150000    1.0080
 1081        HA    1  MOL     H82  1081   0.1150000    1.0080
 1082        HO    1  MOL     H83  1082   0.4350000    1.0080

[ bonds ]
      1      2   1      0.1400 392459.2000
      1     32   1      0.1400 392459.2000
      1     55   1      0.1080 307105.6000
      2      3   1      0.1400 392459.2000
      2     33   1      0.1080 307105.6000
      3      4   1      0.1400 392459.2000
      3     34   1      0.1080 307105.6000
      4      5   1      0.1779 188280.0000
      4     31   1      0.1400 392459.2000
      5      6   1      0.1471 615048.0000
      5      7   1      0.1471 615048.0000
      5      8   1      0.1779 188280.0000
      8      9   1      0.1400 392459.2000
      8     30   1      0.1400 392459.2000
      9     10   1      0.1400 392459.2000
      9     35   1      0.1080 307105.6000
     10     11   1      0.1400 392459.2000
     10     36   1      0.1080 307105.6000
     11     12   1      0.1364 376560.0000
     11     29   1      0.1400 392459.2000
     12     13   1      0.1364 376560.0000
     13     14   1      0.1400 392459.2000
     13     28   1      0.1400 392459.2000
     14     15   1      0.1400 392459.2000
     14     37   1      0.1080 307105.6000
     15     16   1      0.1400 392459.2000
     15     38   1      0.1080 307105.6000
     16     17   1      0.1510 265265.6000
     16     27   1      0.1400 392459.2000
     17     18   1      0.1529 224262.4000
     17     19   1      0.1529 224262.4000
     17     20   1      0.1510 265265.6000
     18     39   1      0.1090 284512.0000
     18     40   1      0.1090 284512.0000
     18     41   1      0.1090 284512.0000
     19     42   1      0.1090 284512.0000
     19     43   1      0.1090 284512.0000
     19     44   1      0.1090 284512.0000
     20     21   1      0.1400 392459.2000
     20     26   1      0.1400 392459.2000
     21     22   1      0.1400 392459.2000
     21     45   1      0.1080 307105.6000
     22     23   1      0.1400 392459.2000
     22     46   1      0.1080 307105.6000
     23     24   1      0.1364 376560.0000
     23     25   1      0.1400 392459.2000
     24     56   1      0.1364 376560.0000
     25     26   1      0.1400 392459.2000
     25     47   1      0.1080 307105.6000
     26     48   1      0.1080 307105.6000
     27     28   1      0.1400 392459.2000
     27     49   1      0.1080 307105.6000
     28     50   1      0.1080 307105.6000
     29     30   1      0.1400 392459.2000
     29     51   1      0.1080 307105.6000
     30     52   1      0.1080 307105.6000
     31     32   1      0.1400 392459.2000
     31     53   1      0.1080 307105.6000
     32     54   1      0.1080 307105.6000
     56     57   1      0.1400 392459.2000
     56     87   1      0.1400 392459.2000
     57     58   1      0.1400 392459.2000
     57     88   1      0.1080 307105.6000
     58     59   1      0.1400 392459.2000
     58     89   1      0.1080 307105.6000
     59     60   1      0.1779 188280.0000
     59     86   1      0.1400 392459.2000
     60     61   1      0.1471 615048.0000
     60     62   1      0.1471 615048.0000
     60     63   1      0.1779 188280.0000
     63     64   1      0.1400 392459.2000
     63     85   1      0.1400 392459.2000
     64     65   1      0.1400 392459.2000
     64     90   1      0.1080 307105.6000
     65     66   1      0.1400 392459.2000
     65     91   1      0.1080 307105.6000
     66     67   1      0.1364 376560.0000
     66     84   1      0.1400 392459.2000
     67     68   1      0.1364 376560.0000
     68     69   1      0.1400 392459.2000
     68     83   1      0.1400 392459.2000
     69     70   1      0.1400 392459.2000
     69     92   1      0.1080 307105.6000
     70     71   1      0.1400 392459.2000
     70     93   1      0.1080 307105.6000
     71     72   1      0.1510 265265.6000
     71     82   1      0.1400 392459.2000
     72     73   1      0.1529 224262.4000
     72     74   1      0.1529 224262.4000
     72     75   1      0.1510 265265.6000
     73     94   1      0.1090 284512.0000
     73     95   1      0.1090 284512.0000
     73     96   1      0.1090 284512.0000
     74     97   1      0.1090 284512.0000
     74     98   1      0.1090 284512.0000
     74     99   1      0.1090 284512.0000
     75     76   1      0.1400 392459.2000
     75     81   1      0.1400 392459.2000
     76     77   1      0.1400 392459.2000
     76    100   1      0.1080 307105.6000
     77     78   1      0.1400 392459.2000
     77    101   1      0.1080 307105.6000
     78     79   1      0.1364 376560.0000
     78     80   1      0.1400 392459.2000
     79    110   1      0.1364 376560.0000
     80     81   1      0.1400 392459.2000
     80    102   1      0.1080 307105.6000
     81    103   1      0.1080 307105.6000
     82     83   1      0.1400 392459.2000
     82    104   1      0.1080 307105.6000
     83    105   1      0.1080 307105.6000
     84     85   1      0.1400 392459.2000
     84    106   1      0.1080 307105.6000
     85    107   1      0.1080 307105.6000
     86     87   1      0.1400 392459.2000
     86    108   1      0.1080 307105.6000
     87    109   1      0.1080 307105.6000
    110    111   1      0.1400 392459.2000
    110    141   1      0.1400 392459.2000
    111    112   1      0.1400 392459.2000
    111    142   1      0.1080 307105.6000
    112    113   1      0.1400 392459.2000
    112    143   1      0.1080 307105.6000
    113    114   1      0.1779 188280.0000
    113    140   1      0.1400 392459.2000
    114    115   1      0.1471 615048.0000
    114    116   1      0.1471 615048.0000
    114    117   1      0.1779 188280.0000
    117    118   1      0.1400 392459.2000
    117    139   1      0.1400 392459.2000
    118    119   1      0.1400 392459.2000
    118    144   1      0.1080 307105.6000
    119    120   1      0.1400 392459.2000
    119    145   1      0.1080 307105.6000
    120    121   1      0.1364 376560.0000
    120    138   1      0.1400 392459.2000
    121    122   1      0.1364 376560.0000
    122    123   1      0.1400 392459.2000
    122    137   1      0.1400 392459.2000
    123    124   1      0.1400 392459.2000
    123    146   1      0.1080 307105.6000
    124    125   1      0.1400 392459.2000
    124    147   1      0.1080 307105.6000
    125    126   1      0.1510 265265.6000
    125    136   1      0.1400 392459.2000
    126    127   1      0.1529 224262.4000
    126    128   1      0.1529 224262.4000
    126    129   1      0.1510 265265.6000
    127    148   1      0.1090 284512.0000
    127    149   1      0.1090 284512.0000
    127    150   1      0.1090 284512.0000
    128    151   1      0.1090 284512.0000
    128    152   1      0.1090 284512.0000
    128    153   1      0.1090 284512.0000
    129    130   1      0.1400 392459.2000
    129    135   1      0.1400 392459.2000
    130    131   1      0.1400 392459.2000
    130    154   1      0.1080 307105.6000
    131    132   1      0.1400 392459.2000
    131    155   1      0.1080 307105.6000
    132    133   1      0.1364 376560.0000
    132    134   1      0.1400 392459.2000
    133    164   1      0.1364 376560.0000
    134    135   1      0.1400 392459.2000
    134    156   1      0.1080 307105.6000
    135    157   1      0.1080 307105.6000
    136    137   1      0.1400 392459.2000
    136    158   1      0.1080 307105.6000
    137    159   1      0.1080 307105.6000
    138    139   1      0.1400 392459.2000
    138    160   1      0.1080 307105.6000
    139    161   1      0.1080 307105.6000
    140    141   1      0.1400 392459.2000
    140    162   1      0.1080 307105.6000
    141    163   1      0.1080 307105.6000
    164    165   1      0.1400 392459.2000
    164    195   1      0.1400 392459.2000
    165    166   1      0.1400 392459.2000
    165    196   1      0.1080 307105.6000
    166    167   1      0.1400 392459.2000
    166    197   1      0.1080 307105.6000
    167    168   1      0.1779 188280.0000
    167    194   1      0.1400 392459.2000
    168    169   1      0.1471 615048.0000
    168    170   1      0.1471 615048.0000
    168    171   1      0.1779 188280.0000
    171    172   1      0.1400 392459.2000
    171    193   1      0.1400 392459.2000
    172    173   1      0.1400 392459.2000
    172    198   1      0.1080 307105.6000
    173    174   1      0.1400 392459.2000
    173    199   1      0.1080 307105.6000
    174    175   1      0.1364 376560.0000
    174    192   1      0.1400 392459.2000
    175    176   1      0.1364 376560.0000
    176    177   1      0.1400 392459.2000
    176    191   1      0.1400 392459.2000
    177    178   1      0.1400 392459.2000
    177    200   1      0.1080 307105.6000
    178    179   1      0.1400 392459.2000
    178    201   1      0.1080 307105.6000
    179    180   1      0.1510 265265.6000
    179    190   1      0.1400 392459.2000
    180    181   1      0.1529 224262.4000
    180    182   1      0.1529 224262.4000
    180    183   1      0.1510 265265.6000
    181    202   1      0.1090 284512.0000
    181    203   1      0.1090 284512.0000
    181    204   1      0.1090 284512.0000
    182    205   1      0.1090 284512.0000
    182    206   1      0.1090 284512.0000
    182    207   1      0.1090 284512.0000
    183    184   1      0.1400 392459.2000
    183    189   1      0.1400 392459.2000
    184    185   1      0.1400 392459.2000
    184    208   1      0.1080 307105.6000
    185    186   1      0.1400 392459.2000
    185    209   1      0.1080 307105.6000
    186    187   1      0.1364 376560.0000
    186    188   1      0.1400 392459.2000
    187    218   1      0.1364 376560.0000
    188    189   1      0.1400 392459.2000
    188    210   1      0.1080 307105.6000
    189    211   1      0.1080 307105.6000
    190    191   1      0.1400 392459.2000
    190    212   1      0.1080 307105.6000
    191    213   1      0.1080 307105.6000
    192    193   1      0.1400 392459.2000
    192    214   1      0.1080 307105.6000
    193    215   1      0.1080 307105.6000
    194    195   1      0.1400 392459.2000
    194    216   1      0.1080 307105.6000
    195    217   1      0.1080 307105.6000
    218    219   1      0.1400 392459.2000
    218    249   1      0.1400 392459.2000
    219    220   1      0.1400 392459.2000
    219    250   1      0.1080 307105.6000
    220    221   1      0.1400 392459.2000
    220    251   1      0.1080 307105.6000
    221    222   1      0.1779 188280.0000
    221    248   1      0.1400 392459.2000
    222    223   1      0.1471 615048.0000
    222    224   1      0.1471 615048.0000
    222    225   1      0.1779 188280.0000
    225    226   1      0.1400 392459.2000
    225    247   1      0.1400 392459.2000
    226    227   1      0.1400 392459.2000
    226    252   1      0.1080 307105.6000
    227    228   1      0.1400 392459.2000
    227    253   1      0.1080 307105.6000
    228    229   1      0.1364 376560.0000
    228    246   1      0.1400 392459.2000
    229    230   1      0.1364 376560.0000
    230    231   1      0.1400 392459.2000
    230    245   1      0.1400 392459.2000
    231    232   1      0.1400 392459.2000
    231    254   1      0.1080 307105.6000
    232    233   1      0.1400 392459.2000
    232    255   1      0.1080 307105.6000
    233    234   1      0.1510 265265.6000
    233    244   1      0.1400 392459.2000
    234    235   1      0.1529 224262.4000
    234    236   1      0.1529 224262.4000
    234    237   1      0.1510 265265.6000
    235    256   1      0.1090 284512.0000
    235    257   1      0.1090 284512.0000
    235    258   1      0.1090 284512.0000
    236    259   1      0.1090 284512.0000
    236    260   1      0.1090 284512.0000
    236    261   1      0.1090 284512.0000
    237    238   1      0.1400 392459.2000
    237    243   1      0.1400 392459.2000
    238    239   1      0.1400 392459.2000
    238    262   1      0.1080 307105.6000
    239    240   1      0.1400 392459.2000
    239    263   1      0.1080 307105.6000
    240    241   1      0.1364 376560.0000
    240    242   1      0.1400 392459.2000
    241    272   1      0.1364 376560.0000
    242    243   1      0.1400 392459.2000
    242    264   1      0.1080 307105.6000
    243    265   1      0.1080 307105.6000
    244    245   1      0.1400 392459.2000
    244    266   1      0.1080 307105.6000
    245    267   1      0.1080 307105.6000
    246    247   1      0.1400 392459.2000
    246    268   1      0.1080 307105.6000
    247    269   1      0.1080 307105.6000
    248    249   1      0.1400 392459.2000
    248    270   1      0.1080 307105.6000
    249    271   1      0.1080 307105.6000
    272    273   1      0.1400 392459.2000
    272    303   1      0.1400 392459.2000
    273    274   1      0.1400 392459.2000
    273    304   1      0.1080 307105.6000
    274    275   1      0.1400 392459.2000
    274    305   1      0.1080 307105.6000
    275    276   1      0.1779 188280.0000
    275    302   1      0.1400 392459.2000
    276    277   1      0.1471 615048.0000
    276    278   1      0.1471 615048.0000
    276    279   1      0.1779 188280.0000
    279    280   1      0.1400 392459.2000
    279    301   1      0.1400 392459.2000
    280    281   1      0.1400 392459.2000
    280    306   1      0.1080 307105.6000
    281    282   1      0.1400 392459.2000
    281    307   1      0.1080 307105.6000
    282    283   1      0.1364 376560.0000
    282    300   1      0.1400 392459.2000
    283    284   1      0.1364 376560.0000
    284    285   1      0.1400 392459.2000
    284    299   1      0.1400 392459.2000
    285    286   1      0.1400 392459.2000
    285    308   1      0.1080 307105.6000
    286    287   1      0.1400 392459.2000
    286    309   1      0.1080 307105.6000
    287    288   1      0.1510 265265.6000
    287    298   1      0.1400 392459.2000
    288    289   1      0.1529 224262.4000
    288    290   1      0.1529 224262.4000
    288    291   1      0.1510 265265.6000
    289    310   1      0.1090 284512.0000
    289    311   1      0.1090 284512.0000
    289    312   1      0.1090 284512.0000
    290    313   1      0.1090 284512.0000
    290    314   1      0.1090 284512.0000
    290    315   1      0.1090 284512.0000
    291    292   1      0.1400 392459.2000
    291    297   1      0.1400 392459.2000
    292    293   1      0.1400 392459.2000
    292    316   1      0.1080 307105.6000
    293    294   1      0.1400 392459.2000
    293    317   1      0.1080 307105.6000
    294    295   1      0.1364 376560.0000
    294    296   1      0.1400 392459.2000
    295    326   1      0.1364 376560.0000
    296    297   1      0.1400 392459.2000
    296    318   1      0.1080 307105.6000
    297    319   1      0.1080 307105.6000
    298    299   1      0.1400 392459.2000
    298    320   1      0.1080 307105.6000
    299    321   1      0.1080 307105.6000
    300    301   1      0.1400 392459.2000
    300    322   1      0.1080 307105.6000
    301    323   1      0.1080 307105.6000
    302    303   1      0.1400 392459.2000
    302    324   1      0.1080 307105.6000
    303    325   1      0.1080 307105.6000
    326    327   1      0.1400 392459.2000
    326    357   1      0.1400 392459.2000
    327    328   1      0.1400 392459.2000
    327    358   1      0.1080 307105.6000
    328    329   1      0.1400 392459.2000
    328    359   1      0.1080 307105.6000
    329    330   1      0.1779 188280.0000
    329    356   1      0.1400 392459.2000
    330    331   1      0.1471 615048.0000
    330    332   1      0.1471 615048.0000
    330    333   1      0.1779 188280.0000
    333    334   1      0.1400 392459.2000
    333    355   1      0.1400 392459.2000
    334    335   1      0.1400 392459.2000
    334    360   1      0.1080 307105.6000
    335    336   1      0.1400 392459.2000
    335    361   1      0.1080 307105.6000
    336    337   1      0.1364 376560.0000
    336    354   1      0.1400 392459.2000
    337    338   1      0.1364 376560.0000
    338    339   1      0.1400 392459.2000
    338    353   1      0.1400 392459.2000
    339    340   1      0.1400 392459.2000
    339    362   1      0.1080 307105.6000
    340    341   1      0.1400 392459.2000
    340    363   1      0.1080 307105.6000
    341    342   1      0.1510 265265.6000
    341    352   1      0.1400 392459.2000
    342    343   1      0.1529 224262.4000
    342    344   1      0.1529 224262.4000
    342    345   1      0.1510 265265.6000
    343    364   1      0.1090 284512.0000
    343    365   1      0.1090 284512.0000
    343    366   1      0.1090 284512.0000
    344    367   1      0.1090 284512.0000
    344    368   1      0.1090 284512.0000
    344    369   1      0.1090 284512.0000
    345    346   1      0.1400 392459.2000
    345    351   1      0.1400 392459.2000
    346    347   1      0.1400 392459.2000
    346    370   1      0.1080 307105.6000
    347    348   1      0.1400 392459.2000
    347    371   1      0.1080 307105.6000
    348    349   1      0.1364 376560.0000
    348    350   1      0.1400 392459.2000
    349    380   1      0.1364 376560.0000
    350    351   1      0.1400 392459.2000
    350    372   1      0.1080 307105.6000
    351    373   1      0.1080 307105.6000
    352    353   1      0.1400 392459.2000
    352    374   1      0.1080 307105.6000
    353    375   1      0.1080 307105.6000
    354    355   1      0.1400 392459.2000
    354    376   1      0.1080 307105.6000
    355    377   1      0.1080 307105.6000
    356    357   1      0.1400 392459.2000
    356    378   1      0.1080 307105.6000
    357    379   1      0.1080 307105.6000
    380    381   1      0.1400 392459.2000
    380    411   1      0.1400 392459.2000
    381    382   1      0.1400 392459.2000
    381    412   1      0.1080 307105.6000
    382    383   1      0.1400 392459.2000
    382    413   1      0.1080 307105.6000
    383    384   1      0.1779 188280.0000
    383    410   1      0.1400 392459.2000
    384    385   1      0.1471 615048.0000
    384    386   1      0.1471 615048.0000
    384    387   1      0.1779 188280.0000
    387    388   1      0.1400 392459.2000
    387    409   1      0.1400 392459.2000
    388    389   1      0.1400 392459.2000
    388    414   1      0.1080 307105.6000
    389    390   1      0.1400 392459.2000
    389    415   1      0.1080 307105.6000
    390    391   1      0.1364 376560.0000
    390    408   1      0.1400 392459.2000
    391    392   1      0.1364 376560.0000
    392    393   1      0.1400 392459.2000
    392    407   1      0.1400 392459.2000
    393    394   1      0.1400 392459.2000
    393    416   1      0.1080 307105.6000
    394    395   1      0.1400 392459.2000
    394    417   1      0.1080 307105.6000
    395    396   1      0.1510 265265.6000
    395    406   1      0.1400 392459.2000
    396    397   1      0.1529 224262.4000
    396    398   1      0.1529 224262.4000
    396    399   1      0.1510 265265.6000
    397    418   1      0.1090 284512.0000
    397    419   1      0.1090 284512.0000
    397    420   1      0.1090 284512.0000
    398    421   1      0.1090 284512.0000
    398    422   1      0.1090 284512.0000
    398    423   1      0.1090 284512.0000
    399    400   1      0.1400 392459.2000
    399    405   1      0.1400 392459.2000
    400    401   1      0.1400 392459.2000
    400    424   1      0.1080 307105.6000
    401    402   1      0.1400 392459.2000
    401    425   1      0.1080 307105.6000
    402    403   1      0.1364 376560.0000
    402    404   1      0.1400 392459.2000
    403    434   1      0.1364 376560.0000
    404    405   1      0.1400 392459.2000
    404    426   1      0.1080 307105.6000
    405    427   1      0.1080 307105.6000
    406    407   1      0.1400 392459.2000
    406    428   1      0.1080 307105.6000
    407    429   1      0.1080 307105.6000
    408    409   1      0.1400 392459.2000
    408    430   1      0.1080 307105.6000
    409    431   1      0.1080 307105.6000
    410    411   1      0.1400 392459.2000
    410    432   1      0.1080 307105.6000
    411    433   1      0.1080 307105.6000
    434    435   1      0.1400 392459.2000
    434    465   1      0.1400 392459.2000
    435    436   1      0.1400 392459.2000
    435    466   1      0.1080 307105.6000
    436    437   1      0.1400 392459.2000
    436    467   1      0.1080 307105.6000
    437    438   1      0.1779 188280.0000
    437    464   1      0.1400 392459.2000
    438    439   1      0.1471 615048.0000
    438    440   1      0.1471 615048.0000
    438    441   1      0.1779 188280.0000
    441    442   1      0.1400 392459.2000
    441    463   1      0.1400 392459.2000
    442    443   1      0.1400 392459.2000
    442    468   1      0.1080 307105.6000
    443    444   1      0.1400 392459.2000
    443    469   1      0.1080 307105.6000
    444    445   1      0.1364 376560.0000
    444    462   1      0.1400 392459.2000
    445    446   1      0.1364 376560.0000
    446    447   1      0.1400 392459.2000
    446    461   1      0.1400 392459.2000
    447    448   1      0.1400 392459.2000
    447    470   1      0.1080 307105.6000
    448    449   1      0.1400 392459.2000
    448    471   1      0.1080 307105.6000
    449    450   1      0.1510 265265.6000
    449    460   1      0.1400 392459.2000
    450    451   1      0.1529 224262.4000
    450    452   1      0.1529 224262.4000
    450    453   1      0.1510 265265.6000
    451    472   1      0.1090 284512.0000
    451    473   1      0.1090 284512.0000
    451    474   1      0.1090 284512.0000
    452    475   1      0.1090 284512.0000
    452    476   1      0.1090 284512.0000
    452    477   1      0.1090 284512.0000
    453    454   1      0.1400 392459.2000
    453    459   1      0.1400 392459.2000
    454    455   1      0.1400 392459.2000
    454    478   1      0.1080 307105.6000
    455    456   1      0.1400 392459.2000
    455    479   1      0.1080 307105.6000
    456    457   1      0.1364 376560.0000
    456    458   1      0.1400 392459.2000
    457    488   1      0.1364 376560.0000
    458    459   1      0.1400 392459.2000
    458    480   1      0.1080 307105.6000
    459    481   1      0.1080 307105.6000
    460    461   1      0.1400 392459.2000
    460    482   1      0.1080 307105.6000
    461    483   1      0.1080 307105.6000
    462    463   1      0.1400 392459.2000
    462    484   1      0.1080 307105.6000
    463    485   1      0.1080 307105.6000
    464    465   1      0.1400 392459.2000
    464    486   1      0.1080 307105.6000
    465    487   1      0.1080 307105.6000
    488    489   1      0.1400 392459.2000
    488    519   1      0.1400 392459.2000
    489    490   1      0.1400 392459.2000
    489    520   1      0.1080 307105.6000
    490    491   1      0.1400 392459.2000
    490    521   1      0.1080 307105.6000
    491    492   1      0.1779 188280.0000
    491    518   1      0.1400 392459.2000
    492    493   1      0.1471 615048.0000
    492    494   1      0.1471 615048.0000
    492    495   1      0.1779 188280.0000
    495    496   1      0.1400 392459.2000
    495    517   1      0.1400 392459.2000
    496    497   1      0.1400 392459.2000
    496    522   1      0.1080 307105.6000
    497    498   1      0.1400 392459.2000
    497    523   1      0.1080 307105.6000
    498    499   1      0.1364 376560.0000
    498    516   1      0.1400 392459.2000
    499    500   1      0.1364 376560.0000
    500    501   1      0.1400 392459.2000
    500    515   1      0.1400 392459.2000
    501    502   1      0.1400 392459.2000
    501    524   1      0.1080 307105.6000
    502    503   1      0.1400 392459.2000
    502    525   1      0.1080 307105.6000
    503    504   1      0.1510 265265.6000
    503    514   1      0.1400 392459.2000
    504    505   1      0.1529 224262.4000
    504    506   1      0.1529 224262.4000
    504    507   1      0.1510 265265.6000
    505    526   1      0.1090 284512.0000
    505    527   1      0.1090 284512.0000
    505    528   1      0.1090 284512.0000
    506    529   1      0.1090 284512.0000
    506    530   1      0.1090 284512.0000
    506    531   1      0.1090 284512.0000
    507    508   1      0.1400 392459.2000
    507    513   1      0.1400 392459.2000
    508    509   1      0.1400 392459.2000
    508    532   1      0.1080 307105.6000
    509    510   1      0.1400 392459.2000
    509    533   1      0.1080 307105.6000
    510    511   1      0.1364 376560.0000
    510    512   1      0.1400 392459.2000
    511    542   1      0.1364 376560.0000
    512    513   1      0.1400 392459.2000
    512    534   1      0.1080 307105.6000
    513    535   1      0.1080 307105.6000
    514    515   1      0.1400 392459.2000
    514    536   1      0.1080 307105.6000
    515    537   1      0.1080 307105.6000
    516    517   1      0.1400 392459.2000
    516    538   1      0.1080 307105.6000
    517    539   1      0.1080 307105.6000
    518    519   1      0.1400 392459.2000
    518    540   1      0.1080 307105.6000
    519    541   1      0.1080 307105.6000
    542    543   1      0.1400 392459.2000
    542    573   1      0.1400 392459.2000
    543    544   1      0.1400 392459.2000
    543    574   1      0.1080 307105.6000
    544    545   1      0.1400 392459.2000
    544    575   1      0.1080 307105.6000
    545    546   1      0.1779 188280.0000
    545    572   1      0.1400 392459.2000
    546    547   1      0.1471 615048.0000
    546    548   1      0.1471 615048.0000
    546    549   1      0.1779 188280.0000
    549    550   1      0.1400 392459.2000
    549    571   1      0.1400 392459.2000
    550    551   1      0.1400 392459.2000
    550    576   1      0.1080 307105.6000
    551    552   1      0.1400 392459.2000
    551    577   1      0.1080 307105.6000
    552    553   1      0.1364 376560.0000
    552    570   1      0.1400 392459.2000
    553    554   1      0.1364 376560.0000
    554    555   1      0.1400 392459.2000
    554    569   1      0.1400 392459.2000
    555    556   1      0.1400 392459.2000
    555    578   1      0.1080 307105.6000
    556    557   1      0.1400 392459.2000
    556    579   1      0.1080 307105.6000
    557    558   1      0.1510 265265.6000
    557    568   1      0.1400 392459.2000
    558    559   1      0.1529 224262.4000
    558    560   1      0.1529 224262.4000
    558    561   1      0.1510 265265.6000
    559    580   1      0.1090 284512.0000
    559    581   1      0.1090 284512.0000
    559    582   1      0.1090 284512.0000
    560    583   1      0.1090 284512.0000
    560    584   1      0.1090 284512.0000
    560    585   1      0.1090 284512.0000
    561    562   1      0.1400 392459.2000
    561    567   1      0.1400 392459.2000
    562    563   1      0.1400 392459.2000
    562    586   1      0.1080 307105.6000
    563    564   1      0.1400 392459.2000
    563    587   1      0.1080 307105.6000
    564    565   1      0.1364 376560.0000
    564    566   1      0.1400 392459.2000
    565    596   1      0.1364 376560.0000
    566    567   1      0.1400 392459.2000
    566    588   1      0.1080 307105.6000
    567    589   1      0.1080 307105.6000
    568    569   1      0.1400 392459.2000
    568    590   1      0.1080 307105.6000
    569    591   1      0.1080 307105.6000
    570    571   1      0.1400 392459.2000
    570    592   1      0.1080 307105.6000
    571    593   1      0.1080 307105.6000
    572    573   1      0.1400 392459.2000
    572    594   1      0.1080 307105.6000
    573    595   1      0.1080 307105.6000
    596    597   1      0.1400 392459.2000
    596    627   1      0.1400 392459.2000
    597    598   1      0.1400 392459.2000
    597    628   1      0.1080 307105.6000
    598    599   1      0.1400 392459.2000
    598    629   1      0.1080 307105.6000
    599    600   1      0.1779 188280.0000
    599    626   1      0.1400 392459.2000
    600    601   1      0.1471 615048.0000
    600    602   1      0.1471 615048.0000
    600    603   1      0.1779 188280.0000
    603    604   1      0.1400 392459.2000
    603    625   1      0.1400 392459.2000
    604    605   1      0.1400 392459.2000
    604    630   1      0.1080 307105.6000
    605    606   1      0.1400 392459.2000
    605    631   1      0.1080 307105.6000
    606    607   1      0.1364 376560.0000
    606    624   1      0.1400 392459.2000
    607    608   1      0.1364 376560.0000
    608    609   1      0.1400 392459.2000
    608    623   1      0.1400 392459.2000
    609    610   1      0.1400 392459.2000
    609    632   1      0.1080 307105.6000
    610    611   1      0.1400 392459.2000
    610    633   1      0.1080 307105.6000
    611    612   1      0.1510 265265.6000
    611    622   1      0.1400 392459.2000
    612    613   1      0.1529 224262.4000
    612    614   1      0.1529 224262.4000
    612    615   1      0.1510 265265.6000
    613    634   1      0.1090 284512.0000
    613    635   1      0.1090 284512.0000
    613    636   1      0.1090 284512.0000
    614    637   1      0.1090 284512.0000
    614    638   1      0.1090 284512.0000
    614    639   1      0.1090 284512.0000
    615    616   1      0.1400 392459.2000
    615    621   1      0.1400 392459.2000
    616    617   1      0.1400 392459.2000
    616    640   1      0.1080 307105.6000
    617    618   1      0.1400 392459.2000
    617    641   1      0.1080 307105.6000
    618    619   1      0.1364 376560.0000
    618    620   1      0.1400 392459.2000
    619    650   1      0.1364 376560.0000
    620    621   1      0.1400 392459.2000
    620    642   1      0.1080 307105.6000
    621    643   1      0.1080 307105.6000
    622    623   1      0.1400 392459.2000
    622    644   1      0.1080 307105.6000
    623    645   1      0.1080 307105.6000
    624    625   1      0.1400 392459.2000
    624    646   1      0.1080 307105.6000
    625    647   1      0.1080 307105.6000
    626    627   1      0.1400 392459.2000
    626    648   1      0.1080 307105.6000
    627    649   1      0.1080 307105.6000
    650    651   1      0.1400 392459.2000
    650    681   1      0.1400 392459.2000
    651    652   1      0.1400 392459.2000
    651    682   1      0.1080 307105.6000
    652    653   1      0.1400 392459.2000
    652    683   1      0.1080 307105.6000
    653    654   1      0.1779 188280.0000
    653    680   1      0.1400 392459.2000
    654    655   1      0.1471 615048.0000
    654    656   1      0.1471 615048.0000
    654    657   1      0.1779 188280.0000
    657    658   1      0.1400 392459.2000
    657    679   1      0.1400 392459.2000
    658    659   1      0.1400 392459.2000
    658    684   1      0.1080 307105.6000
    659    660   1      0.1400 392459.2000
    659    685   1      0.1080 307105.6000
    660    661   1      0.1364 376560.0000
    660    678   1      0.1400 392459.2000
    661    662   1      0.1364 376560.0000
    662    663   1      0.1400 392459.2000
    662    677   1      0.1400 392459.2000
    663    664   1      0.1400 392459.2000
    663    686   1      0.1080 307105.6000
    664    665   1      0.1400 392459.2000
    664    687   1      0.1080 307105.6000
    665    666   1      0.1510 265265.6000
    665    676   1      0.1400 392459.2000
    666    667   1      0.1529 224262.4000
    666    668   1      0.1529 224262.4000
    666    669   1      0.1510 265265.6000
    667    688   1      0.1090 284512.0000
    667    689   1      0.1090 284512.0000
    667    690   1      0.1090 284512.0000
    668    691   1      0.1090 284512.0000
    668    692   1      0.1090 284512.0000
    668    693   1      0.1090 284512.0000
    669    670   1      0.1400 392459.2000
    669    675   1      0.1400 392459.2000
    670    671   1      0.1400 392459.2000
    670    694   1      0.1080 307105.6000
    671    672   1      0.1400 392459.2000
    671    695   1      0.1080 307105.6000
    672    673   1      0.1364 376560.0000
    672    674   1      0.1400 392459.2000
    673    704   1      0.1364 376560.0000
    674    675   1      0.1400 392459.2000
    674    696   1      0.1080 307105.6000
    675    697   1      0.1080 307105.6000
    676    677   1      0.1400 392459.2000
    676    698   1      0.1080 307105.6000
    677    699   1      0.1080 307105.6000
    678    679   1      0.1400 392459.2000
    678    700   1      0.1080 307105.6000
    679    701   1      0.1080 307105.6000
    680    681   1      0.1400 392459.2000
    680    702   1      0.1080 307105.6000
    681    703   1      0.1080 307105.6000
    704    705   1      0.1400 392459.2000
    704    735   1      0.1400 392459.2000
    705    706   1      0.1400 392459.2000
    705    736   1      0.1080 307105.6000
    706    707   1      0.1400 392459.2000
    706    737   1      0.1080 307105.6000
    707    708   1      0.1779 188280.0000
    707    734   1      0.1400 392459.2000
    708    709   1      0.1471 615048.0000
    708    710   1      0.1471 615048.0000
    708    711   1      0.1779 188280.0000
    711    712   1      0.1400 392459.2000
    711    733   1      0.1400 392459.2000
    712    713   1      0.1400 392459.2000
    712    738   1      0.1080 307105.6000
    713    714   1      0.1400 392459.2000
    713    739   1      0.1080 307105.6000
    714    715   1      0.1364 376560.0000
    714    732   1      0.1400 392459.2000
    715    716   1      0.1364 376560.0000
    716    717   1      0.1400 392459.2000
    716    731   1      0.1400 392459.2000
    717    718   1      0.1400 392459.2000
    717    740   1      0.1080 307105.6000
    718    719   1      0.1400 392459.2000
    718    741   1      0.1080 307105.6000
    719    720   1      0.1510 265265.6000
    719    730   1      0.1400 392459.2000
    720    721   1      0.1529 224262.4000
    720    722   1      0.1529 224262.4000
    720    723   1      0.1510 265265.6000
    721    742   1      0.1090 284512.0000
    721    743   1      0.1090 284512.0000
    721    744   1      0.1090 284512.0000
    722    745   1      0.1090 284512.0000
    722    746   1      0.1090 284512.0000
    722    747   1      0.1090 284512.0000
    723    724   1      0.1400 392459.2000
    723    729   1      0.1400 392459.2000
    724    725   1      0.1400 392459.2000
    724    748   1      0.1080 307105.6000
    725    726   1      0.1400 392459.2000
    725    749   1      0.1080 307105.6000
    726    727   1      0.1364 376560.0000
    726    728   1      0.1400 392459.2000
    727    758   1      0.1364 376560.0000
    728    729   1      0.1400 392459.2000
    728    750   1      0.1080 307105.6000
    729    751   1      0.1080 307105.6000
    730    731   1      0.1400 392459.2000
    730    752   1      0.1080 307105.6000
    731    753   1      0.1080 307105.6000
    732    733   1      0.1400 392459.2000
    732    754   1      0.1080 307105.6000
    733    755   1      0.1080 307105.6000
    734    735   1      0.1400 392459.2000
    734    756   1      0.1080 307105.6000
    735    757   1      0.1080 307105.6000
    758    759   1      0.1400 392459.2000
    758    789   1      0.1400 392459.2000
    759    760   1      0.1400 392459.2000
    759    790   1      0.1080 307105.6000
    760    761   1      0.1400 392459.2000
    760    791   1      0.1080 307105.6000
    761    762   1      0.1779 188280.0000
    761    788   1      0.1400 392459.2000
    762    763   1      0.1471 615048.0000
    762    764   1      0.1471 615048.0000
    762    765   1      0.1779 188280.0000
    765    766   1      0.1400 392459.2000
    765    787   1      0.1400 392459.2000
    766    767   1      0.1400 392459.2000
    766    792   1      0.1080 307105.6000
    767    768   1      0.1400 392459.2000
    767    793   1      0.1080 307105.6000
    768    769   1      0.1364 376560.0000
    768    786   1      0.1400 392459.2000
    769    770   1      0.1364 376560.0000
    770    771   1      0.1400 392459.2000
    770    785   1      0.1400 392459.2000
    771    772   1      0.1400 392459.2000
    771    794   1      0.1080 307105.6000
    772    773   1      0.1400 392459.2000
    772    795   1      0.1080 307105.6000
    773    774   1      0.1510 265265.6000
    773    784   1      0.1400 392459.2000
    774    775   1      0.1529 224262.4000
    774    776   1      0.1529 224262.4000
    774    777   1      0.1510 265265.6000
    775    796   1      0.1090 284512.0000
    775    797   1      0.1090 284512.0000
    775    798   1      0.1090 284512.0000
    776    799   1      0.1090 284512.0000
    776    800   1      0.1090 284512.0000
    776    801   1      0.1090 284512.0000
    777    778   1      0.1400 392459.2000
    777    783   1      0.1400 392459.2000
    778    779   1      0.1400 392459.2000
    778    802   1      0.1080 307105.6000
    779    780   1      0.1400 392459.2000
    779    803   1      0.1080 307105.6000
    780    781   1      0.1364 376560.0000
    780    782   1      0.1400 392459.2000
    781    812   1      0.1364 376560.0000
    782    783   1      0.1400 392459.2000
    782    804   1      0.1080 307105.6000
    783    805   1      0.1080 307105.6000
    784    785   1      0.1400 392459.2000
    784    806   1      0.1080 307105.6000
    785    807   1      0.1080 307105.6000
    786    787   1      0.1400 392459.2000
    786    808   1      0.1080 307105.6000
    787    809   1      0.1080 307105.6000
    788    789   1      0.1400 392459.2000
    788    810   1      0.1080 307105.6000
    789    811   1      0.1080 307105.6000
    812    813   1      0.1400 392459.2000
    812    843   1      0.1400 392459.2000
    813    814   1      0.1400 392459.2000
    813    844   1      0.1080 307105.6000
    814    815   1      0.1400 392459.2000
    814    845   1      0.1080 307105.6000
    815    816   1      0.1779 188280.0000
    815    842   1      0.1400 392459.2000
    816    817   1      0.1471 615048.0000
    816    818   1      0.1471 615048.0000
    816    819   1      0.1779 188280.0000
    819    820   1      0.1400 392459.2000
    819    841   1      0.1400 392459.2000
    820    821   1      0.1400 392459.2000
    820    846   1      0.1080 307105.6000
    821    822   1      0.1400 392459.2000
    821    847   1      0.1080 307105.6000
    822    823   1      0.1364 376560.0000
    822    840   1      0.1400 392459.2000
    823    824   1      0.1364 376560.0000
    824    825   1      0.1400 392459.2000
    824    839   1      0.1400 392459.2000
    825    826   1      0.1400 392459.2000
    825    848   1      0.1080 307105.6000
    826    827   1      0.1400 392459.2000
    826    849   1      0.1080 307105.6000
    827    828   1      0.1510 265265.6000
    827    838   1      0.1400 392459.2000
    828    829   1      0.1529 224262.4000
    828    830   1      0.1529 224262.4000
    828    831   1      0.1510 265265.6000
    829    850   1      0.1090 284512.0000
    829    851   1      0.1090 284512.0000
    829    852   1      0.1090 284512.0000
    830    853   1      0.1090 284512.0000
    830    854   1      0.1090 284512.0000
    830    855   1      0.1090 284512.0000
    831    832   1      0.1400 392459.2000
    831    837   1      0.1400 392459.2000
    832    833   1      0.1400 392459.2000
    832    856   1      0.1080 307105.6000
    833    834   1      0.1400 392459.2000
    833    857   1      0.1080 307105.6000
    834    835   1      0.1364 376560.0000
    834    836   1      0.1400 392459.2000
    835    866   1      0.1364 376560.0000
    836    837   1      0.1400 392459.2000
    836    858   1      0.1080 307105.6000
    837    859   1      0.1080 307105.6000
    838    839   1      0.1400 392459.2000
    838    860   1      0.1080 307105.6000
    839    861   1      0.1080 307105.6000
    840    841   1      0.1400 392459.2000
    840    862   1      0.1080 307105.6000
    841    863   1      0.1080 307105.6000
    842    843   1      0.1400 392459.2000
    842    864   1      0.1080 307105.6000
    843    865   1      0.1080 307105.6000
    866    867   1      0.1400 392459.2000
    866    897   1      0.1400 392459.2000
    867    868   1      0.1400 392459.2000
    867    898   1      0.1080 307105.6000
    868    869   1      0.1400 392459.2000
    868    899   1      0.1080 307105.6000
    869    870   1      0.1779 188280.0000
    869    896   1      0.1400 392459.2000
    870    871   1      0.1471 615048.0000
    870    872   1      0.1471 615048.0000
    870    873   1      0.1779 188280.0000
    873    874   1      0.1400 392459.2000
    873    895   1      0.1400 392459.2000
    874    875   1      0.1400 392459.2000
    874    900   1      0.1080 307105.6000
    875    876   1      0.1400 392459.2000
    875    901   1      0.1080 307105.6000
    876    877   1      0.1364 376560.0000
    876    894   1      0.1400 392459.2000
    877    878   1      0.1364 376560.0000
    878    879   1      0.1400 392459.2000
    878    893   1      0.1400 392459.2000
    879    880   1      0.1400 392459.2000
    879    902   1      0.1080 307105.6000
    880    881   1      0.1400 392459.2000
    880    903   1      0.1080 307105.6000
    881    882   1      0.1510 265265.6000
    881    892   1      0.1400 392459.2000
    882    883   1      0.1529 224262.4000
    882    884   1      0.1529 224262.4000
    882    885   1      0.1510 265265.6000
    883    904   1      0.1090 284512.0000
    883    905   1      0.1090 284512.0000
    883    906   1      0.1090 284512.0000
    884    907   1      0.1090 284512.0000
    884    908   1      0.1090 284512.0000
    884    909   1      0.1090 284512.0000
    885    886   1      0.1400 392459.2000
    885    891   1      0.1400 392459.2000
    886    887   1      0.1400 392459.2000
    886    910   1      0.1080 307105.6000
    887    888   1      0.1400 392459.2000
    887    911   1      0.1080 307105.6000
    888    889   1      0.1364 376560.0000
    888    890   1      0.1400 392459.2000
    889    920   1      0.1364 376560.0000
    890    891   1      0.1400 392459.2000
    890    912   1      0.1080 307105.6000
    891    913   1      0.1080 307105.6000
    892    893   1      0.1400 392459.2000
    892    914   1      0.1080 307105.6000
    893    915   1      0.1080 307105.6000
    894    895   1      0.1400 392459.2000
    894    916   1      0.1080 307105.6000
    895    917   1      0.1080 307105.6000
    896    897   1      0.1400 392459.2000
    896    918   1      0.1080 307105.6000
    897    919   1      0.1080 307105.6000
    920    921   1      0.1400 392459.2000
    920    951   1      0.1400 392459.2000
    921    922   1      0.1400 392459.2000
    921    952   1      0.1080 307105.6000
    922    923   1      0.1400 392459.2000
    922    953   1      0.1080 307105.6000
    923    924   1      0.1779 188280.0000
    923    950   1      0.1400 392459.2000
    924    925   1      0.1471 615048.0000
    924    926   1      0.1471 615048.0000
    924    927   1      0.1779 188280.0000
    927    928   1      0.1400 392459.2000
    927    949   1      0.1400 392459.2000
    928    929   1      0.1400 392459.2000
    928    954   1      0.1080 307105.6000
    929    930   1      0.1400 392459.2000
    929    955   1      0.1080 307105.6000
    930    931   1      0.1364 376560.0000
    930    948   1      0.1400 392459.2000
    931    932   1      0.1364 376560.0000
    932    933   1      0.1400 392459.2000
    932    947   1      0.1400 392459.2000
    933    934   1      0.1400 392459.2000
    933    956   1      0.1080 307105.6000
    934    935   1      0.1400 392459.2000
    934    957   1      0.1080 307105.6000
    935    936   1      0.1510 265265.6000
    935    946   1      0.1400 392459.2000
    936    937   1      0.1529 224262.4000
    936    938   1      0.1529 224262.4000
    936    939   1      0.1510 265265.6000
    937    958   1      0.1090 284512.0000
    937    959   1      0.1090 284512.0000
    937    960   1      0.1090 284512.0000
    938    961   1      0.1090 284512.0000
    938    962   1      0.1090 284512.0000
    938    963   1      0.1090 284512.0000
    939    940   1      0.1400 392459.2000
    939    945   1      0.1400 392459.2000
    940    941   1      0.1400 392459.2000
    940    964   1      0.1080 307105.6000
    941    942   1      0.1400 392459.2000
    941    965   1      0.1080 307105.6000
    942    943   1      0.1364 376560.0000
    942    944   1      0.1400 392459.2000
    943    974   1      0.1364 376560.0000
    944    945   1      0.1400 392459.2000
    944    966   1      0.1080 307105.6000
    945    967   1      0.1080 307105.6000
    946    947   1      0.1400 392459.2000
    946    968   1      0.1080 307105.6000
    947    969   1      0.1080 307105.6000
    948    949   1      0.1400 392459.2000
    948    970   1      0.1080 307105.6000
    949    971   1      0.1080 307105.6000
    950    951   1      0.1400 392459.2000
    950    972   1      0.1080 307105.6000
    951    973   1      0.1080 307105.6000
    974    975   1      0.1400 392459.2000
    974   1005   1      0.1400 392459.2000
    975    976   1      0.1400 392459.2000
    975   1006   1      0.1080 307105.6000
    976    977   1      0.1400 392459.2000
    976   1007   1      0.1080 307105.6000
    977    978   1      0.1779 188280.0000
    977   1004   1      0.1400 392459.2000
    978    979   1      0.1471 615048.0000
    978    980   1      0.1471 615048.0000
    978    981   1      0.1779 188280.0000
    981    982   1      0.1400 392459.2000
    981   1003   1      0.1400 392459.2000
    982    983   1      0.1400 392459.2000
    982   1008   1      0.1080 307105.6000
    983    984   1      0.1400 392459.2000
    983   1009   1      0.1080 307105.6000
    984    985   1      0.1364 376560.0000
    984   1002   1      0.1400 392459.2000
    985    986   1      0.1364 376560.0000
    986    987   1      0.1400 392459.2000
    986   1001   1      0.1400 392459.2000
    987    988   1      0.1400 392459.2000
    987   1010   1      0.1080 307105.6000
    988    989   1      0.1400 392459.2000
    988   1011   1      0.1080 307105.6000
    989    990   1      0.1510 265265.6000
    989   1000   1      0.1400 392459.2000
    990    991   1      0.1529 224262.4000
    990    992   1      0.1529 224262.4000
    990    993   1      0.1510 265265.6000
    991   1012   1      0.1090 284512.0000
    991   1013   1      0.1090 284512.0000
    991   1014   1      0.1090 284512.0000
    992   1015   1      0.1090 284512.0000
    992   1016   1      0.1090 284512.0000
    992   1017   1      0.1090 284512.0000
    993    994   1      0.1400 392459.2000
    993    999   1      0.1400 392459.2000
    994    995   1      0.1400 392459.2000
    994   1018   1      0.1080 307105.6000
    995    996   1      0.1400 392459.2000
    995   1019   1      0.1080 307105.6000
    996    997   1      0.1364 376560.0000
    996    998   1      0.1400 392459.2000
    997   1028   1      0.1364 376560.0000
    998    999   1      0.1400 392459.2000
    998   1020   1      0.1080 307105.6000
    999   1021   1      0.1080 307105.6000
   1000   1001   1      0.1400 392459.2000
   1000   1022   1      0.1080 307105.6000
   1001   1023   1      0.1080 307105.6000
   1002   1003   1      0.1400 392459.2000
   1002   1024   1      0.1080 307105.6000
   1003   1025   1      0.1080 307105.6000
   1004   1005   1      0.1400 392459.2000
   1004   1026   1      0.1080 307105.6000
   1005   1027   1      0.1080 307105.6000
   1028   1029   1      0.1400 392459.2000
   1028   1059   1      0.1400 392459.2000
   1029   1030   1      0.1400 392459.2000
   1029   1060   1      0.1080 307105.6000
   1030   1031   1      0.1400 392459.2000
   1030   1061   1      0.1080 307105.6000
   1031   1032   1      0.1779 188280.0000
   1031   1058   1      0.1400 392459.2000
   1032   1033   1      0.1471 615048.0000
   1032   1034   1      0.1471 615048.0000
   1032   1035   1      0.1779 188280.0000
   1035   1036   1      0.1400 392459.2000
   1035   1057   1      0.1400 392459.2000
   1036   1037   1      0.1400 392459.2000
   1036   1062   1      0.1080 307105.6000
   1037   1038   1      0.1400 392459.2000
   1037   1063   1      0.1080 307105.6000
   1038   1039   1      0.1364 376560.0000
   1038   1056   1      0.1400 392459.2000
   1039   1040   1      0.1364 376560.0000
   1040   1041   1      0.1400 392459.2000
   1040   1055   1      0.1400 392459.2000
   1041   1042   1      0.1400 392459.2000
   1041   1064   1      0.1080 307105.6000
   1042   1043   1      0.1400 392459.2000
   1042   1065   1      0.1080 307105.6000
   1043   1044   1      0.1510 265265.6000
   1043   1054   1      0.1400 392459.2000
   1044   1045   1      0.1529 224262.4000
   1044   1046   1      0.1529 224262.4000
   1044   1047   1      0.1510 265265.6000
   1045   1066   1      0.1090 284512.0000
   1045   1067   1      0.1090 284512.0000
   1045   1068   1      0.1090 284512.0000
   1046   1069   1      0.1090 284512.0000
   1046   1070   1      0.1090 284512.0000
   1046   1071   1      0.1090 284512.0000
   1047   1048   1      0.1400 392459.2000
   1047   1053   1      0.1400 392459.2000
   1048   1049   1      0.1400 392459.2000
   1048   1072   1      0.1080 307105.6000
   1049   1050   1      0.1400 392459.2000
   1049   1073   1      0.1080 307105.6000
   1050   1051   1      0.1364 376560.0000
   1050   1052   1      0.1400 392459.2000
   1051   1082   1      0.0945 462750.4000
   1052   1053   1      0.1400 392459.2000
   1052   1074   1      0.1080 307105.6000
   1053   1075   1      0.1080 307105.6000
   1054   1055   1      0.1400 392459.2000
   1054   1076   1      0.1080 307105.6000
   1055   1077   1      0.1080 307105.6000
   1056   1057   1      0.1400 392459.2000
   1056   1078   1      0.1080 307105.6000
   1057   1079   1      0.1080 307105.6000
   1058   1059   1      0.1400 392459.2000
   1058   1080   1      0.1080 307105.6000
   1059   1081   1      0.1080 307105.6000

[ pairs ]
; ai   aj   funct   fudge_QQ  charge_i   charge_j   c6    c12
     32      3   2   0.50000    -0.1150000   -0.1150000   1.172438e-03  2.346713e-06
     32     33   2   0.50000    -0.1150000    0.1150000   2.431434e-04  1.541678e-07
     55      3   2   0.50000     0.1150000   -0.1150000   2.431434e-04  1.541678e-07
     55     33   2   0.50000     0.1150000    0.1150000   5.042375e-05  1.012808e-08
      2     31   2   0.50000    -0.1150000   -0.1150000   1.172438e-03  2.346713e-06
      2     54   2   0.50000    -0.1150000    0.1150000   2.431434e-04  1.541678e-07
     55     31   2   0.50000     0.1150000   -0.1150000   2.431434e-04  1.541678e-07
     55     54   2   0.50000     0.1150000    0.1150000   5.042375e-05  1.012808e-08
      1      4   2   0.50000    -0.1150000    0.1380000   1.172438e-03  2.346713e-06
      1     34   2   0.50000    -0.1150000    0.1150000   2.431434e-04  1.541678e-07
     33      4   2   0.50000     0.1150000    0.1380000   2.431434e-04  1.541678e-07
     33     34   2   0.50000     0.1150000    0.1150000   5.042375e-05  1.012808e-08
      2      5   2   0.50000    -0.1150000    0.7840000   2.215699e-03  4.434870e-06
     34      5   2   0.50000     0.1150000    0.7840000   4.594978e-04  2.913497e-07
     34     31   2   0.50000     0.1150000   -0.1150000   2.431434e-04  1.541678e-07
      3      6   2   0.50000    -0.1150000   -0.5300000   1.059145e-03  1.228897e-06
      3      7   2   0.50000    -0.1150000   -0.5300000   1.059145e-03  1.228897e-06
      3      8   2   0.50000    -0.1150000    0.1380000   1.172438e-03  2.346713e-06
     31      6   2   0.50000    -0.1150000   -0.5300000   1.059145e-03  1.228897e-06
     31      7   2   0.50000    -0.1150000   -0.5300000   1.059145e-03  1.228897e-06
     31      8   2   0.50000    -0.1150000    0.1380000   1.172438e-03  2.346713e-06
      3     53   2   0.50000    -0.1150000    0.1150000   2.431434e-04  1.541678e-07
      5     32   2   0.50000     0.7840000   -0.1150000   2.215699e-03  4.434870e-06
      5     53   2   0.50000     0.7840000    0.1150000   4.594978e-04  2.913497e-07
      4      9   2   0.50000     0.1380000   -0.1150000   1.172438e-03  2.346713e-06
      4     30   2   0.50000     0.1380000   -0.1150000   1.172438e-03  2.346713e-06
      6      9   2   0.50000    -0.5300000   -0.1150000   1.059145e-03  1.228897e-06
      6     30   2   0.50000    -0.5300000   -0.1150000   1.059145e-03  1.228897e-06
      7      9   2   0.50000    -0.5300000   -0.1150000   1.059145e-03  1.228897e-06
      7     30   2   0.50000    -0.5300000   -0.1150000   1.059145e-03  1.228897e-06
      5     10   2   0.50000     0.7840000   -0.1150000   2.215699e-03  4.434870e-06
      5     35   2   0.50000     0.7840000    0.1150000   4.594978e-04  2.913497e-07
     30     10   2   0.50000    -0.1150000   -0.1150000   1.172438e-03  2.346713e-06
     30     35   2   0.50000    -0.1150000    0.1150000   2.431434e-04  1.541678e-07
      5     29   2   0.50000     0.7840000   -0.1150000   2.215699e-03  4.434870e-06
      5     52   2   0.50000     0.7840000    0.1150000   4.594978e-04  2.913497e-07
      9     29   2   0.50000    -0.1150000   -0.1150000   1.172438e-03  2.346713e-06
      9     52   2   0.50000    -0.1150000    0.1150000   2.431434e-04  1.541678e-07
      8     11   2   0.50000     0.1380000    0.0850000   1.172438e-03  2.346713e-06
      8     36   2   0.50000     0.1380000    0.1150000   2.431434e-04  1.541678e-07
     35     11   2   0.50000     0.1150000    0.0850000   2.431434e-04  1.541678e-07
     35     36   2   0.50000     0.1150000    0.1150000   5.042375e-05  1.012808e-08
      9     12   2   0.50000    -0.1150000   -0.1700000   9.038862e-04  9.862632e-07
     36     12   2   0.50000     0.1150000   -0.1700000   1.874504e-04  6.479276e-08
     36     29   2   0.50000     0.1150000   -0.1150000   2.431434e-04  1.541678e-07
     10     13   2   0.50000    -0.1150000    0.0850000   1.172438e-03  2.346713e-06
     29     13   2   0.50000    -0.1150000    0.0850000   1.172438e-03  2.346713e-06
     10     51   2   0.50000    -0.1150000    0.1150000   2.431434e-04  1.541678e-07
     12     30   2   0.50000    -0.1700000   -0.1150000   9.038862e-04  9.862632e-07
     12     51   2   0.50000    -0.1700000    0.1150000   1.874504e-04  6.479276e-08
     11     14   2   0.50000     0.0850000   -0.1150000   1.172438e-03  2.346713e-06
     11     28   2   0.50000     0.0850000   -0.1150000   1.172438e-03  2.346713e-06
     12     15   2   0.50000    -0.1700000   -0.1150000   9.038862e-04  9.862632e-07
     12     37   2   0.50000    -0.1700000    0.1150000   1.874504e-04  6.479276e-08
     28     15   2   0.50000    -0.1150000   -0.1150000   1.172438e-03  2.346713e-06
     28     37   2   0.50000    -0.1150000    0.1150000   2.431434e-04  1.541678e-07
     12     27   2   0.50000    -0.1700000   -0.1150000   9.038862e-04  9.862632e-07
     12     50   2   0.50000    -0.1700000    0.1150000   1.874504e-04  6.479276e-08
     14     27   2   0.50000    -0.1150000   -0.1150000   1.172438e-03  2.346713e-06
     14     50   2   0.50000    -0.1150000    0.1150000   2.431434e-04  1.541678e-07
     13     16   2   0.50000     0.0850000   -0.1150000   1.172438e-03  2.346713e-06
     13     38   2   0.50000     0.0850000    0.1150000   2.431434e-04  1.541678e-07
     37     16   2   0.50000     0.1150000   -0.1150000   2.431434e-04  1.541678e-07
     37     38   2   0.50000     0.1150000    0.1150000   5.042375e-05  1.012808e-08
     14     17   2   0.50000    -0.1150000    0.2300000   1.091018e-03  2.092768e-06
     38     17   2   0.50000     0.1150000    0.2300000   2.262583e-04  1.374848e-07
     38     27   2   0.50000     0.1150000   -0.1150000   2.431434e-04  1.541678e-07
     15     18   2   0.50000    -0.1150000   -0.1800000   1.091018e-03  2.092768e-06
     15     19   2   0.50000    -0.1150000   -0.1800000   1.091018e-03  2.092768e-06
     15     20   2   0.50000    -0.1150000   -0.1150000   1.172438e-03  2.346713e-06
     27     18   2   0.50000    -0.1150000   -0.1800000   1.091018e-03  2.092768e-06
     27     19   2   0.50000    -0.1150000   -0.1800000   1.091018e-03  2.092768e-06
     27     20   2   0.50000    -0.1150000   -0.1150000   1.172438e-03  2.346713e-06
     15     49   2   0.50000    -0.1150000    0.1150000   2.431434e-04  1.541678e-07
     17     28   2   0.50000     0.2300000   -0.1150000   1.091018e-03  2.092768e-06
     17     49   2   0.50000     0.2300000    0.1150000   2.262583e-04  1.374848e-07
     16     39   2   0.50000    -0.1150000    0.0600000   2.680627e-04  1.873879e-07
     16     40   2   0.50000    -0.1150000    0.0600000   2.680627e-04  1.873879e-07
     16     41   2   0.50000    -0.1150000    0.0600000   2.680627e-04  1.873879e-07
     19     39   2   0.50000    -0.1800000    0.0600000   2.494471e-04  1.671101e-07
     19     40   2   0.50000    -0.1800000    0.0600000   2.494471e-04  1.671101e-07
     19     41   2   0.50000    -0.1800000    0.0600000   2.494471e-04  1.671101e-07
     20     39   2   0.50000    -0.1150000    0.0600000   2.680627e-04  1.873879e-07
     20     40   2   0.50000    -0.1150000    0.0600000   2.680627e-04  1.873879e-07
     20     41   2   0.50000    -0.1150000    0.0600000   2.680627e-04  1.873879e-07
     16     42   2   0.50000    -0.1150000    0.0600000   2.680627e-04  1.873879e-07
     16     43   2   0.50000    -0.1150000    0.0600000   2.680627e-04  1.873879e-07
     16     44   2   0.50000    -0.1150000    0.0600000   2.680627e-04  1.873879e-07
     18     42   2   0.50000    -0.1800000    0.0600000   2.494471e-04  1.671101e-07
     18     43   2   0.50000    -0.1800000    0.0600000   2.494471e-04  1.671101e-07
     18     44   2   0.50000    -0.1800000    0.0600000   2.494471e-04  1.671101e-07
     20     42   2   0.50000    -0.1150000    0.0600000   2.680627e-04  1.873879e-07
     20     43   2   0.50000    -0.1150000    0.0600000   2.680627e-04  1.873879e-07
     20     44   2   0.50000    -0.1150000    0.0600000   2.680627e-04  1.873879e-07
     16     21   2   0.50000    -0.1150000   -0.1150000   1.172438e-03  2.346713e-06
     16     26   2   0.50000    -0.1150000   -0.1150000   1.172438e-03  2.346713e-06
     18     21   2   0.50000    -0.1800000   -0.1150000   1.091018e-03  2.092768e-06
     18     26   2   0.50000    -0.1800000   -0.1150000   1.091018e-03  2.092768e-06
     19     21   2   0.50000    -0.1800000   -0.1150000   1.091018e-03  2.092768e-06
     19     26   2   0.50000    -0.1800000   -0.1150000   1.091018e-03  2.092768e-06
     17     22   2   0.50000     0.2300000   -0.1150000   1.091018e-03  2.092768e-06
     17     45   2   0.50000     0.2300000    0.1150000   2.262583e-04  1.374848e-07
     26     22   2   0.50000    -0.1150000   -0.1150000   1.172438e-03  2.346713e-06
     26     45   2   0.50000    -0.1150000    0.1150000   2.431434e-04  1.541678e-07
     17     25   2   0.50000     0.2300000   -0.1150000   1.091018e-03  2.092768e-06
     17     48   2   0.50000     0.2300000    0.1150000   2.262583e-04  1.374848e-07
     21     25   2   0.50000    -0.1150000   -0.1150000   1.172438e-03  2.346713e-06
     21     48   2   0.50000    -0.1150000    0.1150000   2.431434e-04  1.541678e-07
     20     23   2   0.50000    -0.1150000    0.0850000   1.172438e-03  2.346713e-06
     20     46   2   0.50000    -0.1150000    0.1150000   2.431434e-04  1.541678e-07
     45     23   2   0.50000     0.1150000    0.0850000   2.431434e-04  1.541678e-07
     45     46   2   0.50000     0.1150000    0.1150000   5.042375e-05  1.012808e-08
     21     24   2   0.50000    -0.1150000   -0.1700000   9.038862e-04  9.862632e-07
     46     24   2   0.50000     0.1150000   -0.1700000   1.874504e-04  6.479276e-08
     46     25   2   0.50000     0.1150000   -0.1150000   2.431434e-04  1.541678e-07
     22     56   2   0.50000    -0.1150000    0.0850000   1.172438e-03  2.346713e-06
     25     56   2   0.50000    -0.1150000    0.0850000   1.172438e-03  2.346713e-06
     22     47   2   0.50000    -0.1150000    0.1150000   2.431434e-04  1.541678e-07
     24     26   2   0.50000    -0.1700000   -0.1150000   9.038862e-04  9.862632e-07
     24     47   2   0.50000    -0.1700000    0.1150000   1.874504e-04  6.479276e-08
     23     57   2   0.50000     0.0850000   -0.1150000   1.172438e-03  2.346713e-06
     23     87   2   0.50000     0.0850000   -0.1150000   1.172438e-03  2.346713e-06
     23     48   2   0.50000     0.0850000    0.1150000   2.431434e-04  1.541678e-07
     47     20   2   0.50000     0.1150000   -0.1150000   2.431434e-04  1.541678e-07
     47     48   2   0.50000     0.1150000    0.1150000   5.042375e-05  1.012808e-08
     16     50   2   0.50000    -0.1150000    0.1150000   2.431434e-04  1.541678e-07
     49     13   2   0.50000     0.1150000    0.0850000   2.431434e-04  1.541678e-07
     49     50   2   0.50000     0.1150000    0.1150000   5.042375e-05  1.012808e-08
     11     52   2   0.50000     0.0850000    0.1150000   2.431434e-04  1.541678e-07
     51      8   2   0.50000     0.1150000    0.1380000   2.431434e-04  1.541678e-07
     51     52   2   0.50000     0.1150000    0.1150000   5.042375e-05  1.012808e-08
      4     54   2   0.50000     0.1380000    0.1150000   2.431434e-04  1.541678e-07
     53      1   2   0.50000     0.1150000   -0.1150000   2.431434e-04  1.541678e-07
     53     54   2   0.50000     0.1150000    0.1150000   5.042375e-05  1.012808e-08
     24     58   2   0.50000    -0.1700000   -0.1150000   9.038862e-04  9.862632e-07
     24     88   2   0.50000    -0.1700000    0.1150000   1.874504e-04  6.479276e-08
     87     58   2   0.50000    -0.1150000   -0.1150000   1.172438e-03  2.346713e-06
     87     88   2   0.50000    -0.1150000    0.1150000   2.431434e-04  1.541678e-07
     24     86   2   0.50000    -0.1700000   -0.1150000   9.038862e-04  9.862632e-07
     24    109   2   0.50000    -0.1700000    0.1150000   1.874504e-04  6.479276e-08
     57     86   2   0.50000    -0.1150000   -0.1150000   1.172438e-03  2.346713e-06
     57    109   2   0.50000    -0.1150000    0.1150000   2.431434e-04  1.541678e-07
     56     59   2   0.50000     0.0850000    0.1380000   1.172438e-03  2.346713e-06
     56     89   2   0.50000     0.0850000    0.1150000   2.431434e-04  1.541678e-07
     88     59   2   0.50000     0.1150000    0.1380000   2.431434e-04  1.541678e-07
     88     89   2   0.50000     0.1150000    0.1150000   5.042375e-05  1.012808e-08
     57     60   2   0.50000    -0.1150000    0.7840000   2.215699e-03  4.434870e-06
     89     60   2   0.50000     0.1150000    0.7840000   4.594978e-04  2.913497e-07
     89     86   2   0.50000     0.1150000   -0.1150000   2.431434e-04  1.541678e-07
     58     61   2   0.50000    -0.1150000   -0.5300000   1.059145e-03  1.228897e-06
     58     62   2   0.50000    -0.1150000   -0.5300000   1.059145e-03  1.228897e-06
     58     63   2   0.50000    -0.1150000    0.1380000   1.172438e-03  2.346713e-06
     86     61   2   0.50000    -0.1150000   -0.5300000   1.059145e-03  1.228897e-06
     86     62   2   0.50000    -0.1150000   -0.5300000   1.059145e-03  1.228897e-06
     86     63   2   0.50000    -0.1150000    0.1380000   1.172438e-03  2.346713e-06
     58    108   2   0.50000    -0.1150000    0.1150000   2.431434e-04  1.541678e-07
     60     87   2   0.50000     0.7840000   -0.1150000   2.215699e-03  4.434870e-06
     60    108   2   0.50000     0.7840000    0.1150000   4.594978e-04  2.913497e-07
     59     64   2   0.50000     0.1380000   -0.1150000   1.172438e-03  2.346713e-06
     59     85   2   0.50000     0.1380000   -0.1150000   1.172438e-03  2.346713e-06
     61     64   2   0.50000    -0.5300000   -0.1150000   1.059145e-03  1.228897e-06
     61     85   2   0.50000    -0.5300000   -0.1150000   1.059145e-03  1.228897e-06
     62     64   2   0.50000    -0.5300000   -0.1150000   1.059145e-03  1.228897e-06
     62     85   2   0.50000    -0.5300000   -0.1150000   1.059145e-03  1.228897e-06
     60     65   2   0.50000     0.7840000   -0.1150000   2.215699e-03  4.434870e-06
     60     90   2   0.50000     0.7840000    0.1150000   4.594978e-04  2.913497e-07
     85     65   2   0.50000    -0.1150000   -0.1150000   1.172438e-03  2.346713e-06
     85     90   2   0.50000    -0.1150000    0.1150000   2.431434e-04  1.541678e-07
     60     84   2   0.50000     0.7840000   -0.1150000   2.215699e-03  4.434870e-06
     60    107   2   0.50000     0.7840000    0.1150000   4.594978e-04  2.913497e-07
     64     84   2   0.50000    -0.1150000   -0.1150000   1.172438e-03  2.346713e-06
     64    107   2   0.50000    -0.1150000    0.1150000   2.431434e-04  1.541678e-07
     63     66   2   0.50000     0.1380000    0.0850000   1.172438e-03  2.346713e-06
     63     91   2   0.50000     0.1380000    0.1150000   2.431434e-04  1.541678e-07
     90     66   2   0.50000     0.1150000    0.0850000   2.431434e-04  1.541678e-07
     90     91   2   0.50000     0.1150000    0.1150000   5.042375e-05  1.012808e-08
     64     67   2   0.50000    -0.1150000   -0.1700000   9.038862e-04  9.862632e-07
     91     67   2   0.50000     0.1150000   -0.1700000   1.874504e-04  6.479276e-08
     91     84   2   0.50000     0.1150000   -0.1150000   2.431434e-04  1.541678e-07
     65     68   2   0.50000    -0.1150000    0.0850000   1.172438e-03  2.346713e-06
     84     68   2   0.50000    -0.1150000    0.0850000   1.172438e-03  2.346713e-06
     65    106   2   0.50000    -0.1150000    0.1150000   2.431434e-04  1.541678e-07
     67     85   2   0.50000    -0.1700000   -0.1150000   9.038862e-04  9.862632e-07
     67    106   2   0.50000    -0.1700000    0.1150000   1.874504e-04  6.479276e-08
     66     69   2   0.50000     0.0850000   -0.1150000   1.172438e-03  2.346713e-06
     66     83   2   0.50000     0.0850000   -0.1150000   1.172438e-03  2.346713e-06
     67     70   2   0.50000    -0.1700000   -0.1150000   9.038862e-04  9.862632e-07
     67     92   2   0.50000    -0.1700000    0.1150000   1.874504e-04  6.479276e-08
     83     70   2   0.50000    -0.1150000   -0.1150000   1.172438e-03  2.346713e-06
     83     92   2   0.50000    -0.1150000    0.1150000   2.431434e-04  1.541678e-07
     67     82   2   0.50000    -0.1700000   -0.1150000   9.038862e-04  9.862632e-07
     67    105   2   0.50000    -0.1700000    0.1150000   1.874504e-04  6.479276e-08
     69     82   2   0.50000    -0.1150000   -0.1150000   1.172438e-03  2.346713e-06
     69    105   2   0.50000    -0.1150000    0.1150000   2.431434e-04  1.541678e-07
     68     71   2   0.50000     0.0850000   -0.1150000   1.172438e-03  2.346713e-06
     68     93   2   0.50000     0.0850000    0.1150000   2.431434e-04  1.541678e-07
     92     71   2   0.50000     0.1150000   -0.1150000   2.431434e-04  1.541678e-07
     92     93   2   0.50000     0.1150000    0.1150000   5.042375e-05  1.012808e-08
     69     72   2   0.50000    -0.1150000    0.2300000   1.091018e-03  2.092768e-06
     93     72   2   0.50000     0.1150000    0.2300000   2.262583e-04  1.374848e-07
     93     82   2   0.50000     0.1150000   -0.1150000   2.431434e-04  1.541678e-07
     70     73   2   0.50000    -0.1150000   -0.1800000   1.091018e-03  2.092768e-06
     70     74   2   0.50000    -0.1150000   -0.1800000   1.091018e-03  2.092768e-06
     70     75   2   0.50000    -0.1150000   -0.1150000   1.172438e-03  2.346713e-06
     82     73   2   0.50000    -0.1150000   -0.1800000   1.091018e-03  2.092768e-06
     82     74   2   0.50000    -0.1150000   -0.1800000   1.091018e-03  2.092768e-06
     82     75   2   0.50000    -0.1150000   -0.1150000   1.172438e-03  2.346713e-06
     70    104   2   0.50000    -0.1150000    0.1150000   2.431434e-04  1.541678e-07
     72     83   2   0.50000     0.2300000   -0.1150000   1.091018e-03  2.092768e-06
     72    104   2   0.50000     0.2300000    0.1150000   2.262583e-04  1.374848e-07
     71     94   2   0.50000    -0.1150000    0.0600000   2.680627e-04  1.873879e-07
     71     95   2   0.50000    -0.1150000    0.0600000   2.680627e-04  1.873879e-07
     71     96   2   0.50000    -0.1150000    0.0600000   2.680627e-04  1.873879e-07
     74     94   2   0.50000    -0.1800000    0.0600000   2.494471e-04  1.671101e-07
     74     95   2   0.50000    -0.1800000    0.0600000   2.494471e-04  1.671101e-07
     74     96   2   0.50000    -0.1800000    0.0600000   2.494471e-04  1.671101e-07
     75     94   2   0.50000    -0.1150000    0.0600000   2.680627e-04  1.873879e-07
     75     95   2   0.50000    -0.1150000    0.0600000   2.680627e-04  1.873879e-07
     75     96   2   0.50000    -0.1150000    0.0600000   2.680627e-04  1.873879e-07
     71     97   2   0.50000    -0.1150000    0.0600000   2.680627e-04  1.873879e-07
     71     98   2   0.50000    -0.1150000    0.0600000   2.680627e-04  1.873879e-07
     71     99   2   0.50000    -0.1150000    0.0600000   2.680627e-04  1.873879e-07
     73     97   2   0.50000    -0.1800000    0.0600000   2.494471e-04  1.671101e-07
     73     98   2   0.50000    -0.1800000    0.0600000   2.494471e-04  1.671101e-07
     73     99   2   0.50000    -0.1800000    0.0600000   2.494471e-04  1.671101e-07
     75     97   2   0.50000    -0.1150000    0.0600000   2.680627e-04  1.873879e-07
     75     98   2   0.50000    -0.1150000    0.0600000   2.680627e-04  1.873879e-07
     75     99   2   0.50000    -0.1150000    0.0600000   2.680627e-04  1.873879e-07
     71     76   2   0.50000    -0.1150000   -0.1150000   1.172438e-03  2.346713e-06
     71     81   2   0.50000    -0.1150000   -0.1150000   1.172438e-03  2.346713e-06
     73     76   2   0.50000    -0.1800000   -0.1150000   1.091018e-03  2.092768e-06
     73     81   2   0.50000    -0.1800000   -0.1150000   1.091018e-03  2.092768e-06
     74     76   2   0.50000    -0.1800000   -0.1150000   1.091018e-03  2.092768e-06
     74     81   2   0.50000    -0.1800000   -0.1150000   1.091018e-03  2.092768e-06
     72     77   2   0.50000     0.2300000   -0.1150000   1.091018e-03  2.092768e-06
     72    100   2   0.50000     0.2300000    0.1150000   2.262583e-04  1.374848e-07
     81     77   2   0.50000    -0.1150000   -0.1150000   1.172438e-03  2.346713e-06
     81    100   2   0.50000    -0.1150000    0.1150000   2.431434e-04  1.541678e-07
     72     80   2   0.50000     0.2300000   -0.1150000   1.091018e-03  2.092768e-06
     72    103   2   0.50000     0.2300000    0.1150000   2.262583e-04  1.374848e-07
     76     80   2   0.50000    -0.1150000   -0.1150000   1.172438e-03  2.346713e-06
     76    103   2   0.50000    -0.1150000    0.1150000   2.431434e-04  1.541678e-07
     75     78   2   0.50000    -0.1150000    0.0850000   1.172438e-03  2.346713e-06
     75    101   2   0.50000    -0.1150000    0.1150000   2.431434e-04  1.541678e-07
    100     78   2   0.50000     0.1150000    0.0850000   2.431434e-04  1.541678e-07
    100    101   2   0.50000     0.1150000    0.1150000   5.042375e-05  1.012808e-08
     76     79   2   0.50000    -0.1150000   -0.1700000   9.038862e-04  9.862632e-07
    101     79   2   0.50000     0.1150000   -0.1700000   1.874504e-04  6.479276e-08
    101     80   2   0.50000     0.1150000   -0.1150000   2.431434e-04  1.541678e-07
     77    110   2   0.50000    -0.1150000    0.0850000   1.172438e-03  2.346713e-06
     80    110   2   0.50000    -0.1150000    0.0850000   1.172438e-03  2.346713e-06
     77    102   2   0.50000    -0.1150000    0.1150000   2.431434e-04  1.541678e-07
     79     81   2   0.50000    -0.1700000   -0.1150000   9.038862e-04  9.862632e-07
     79    102   2   0.50000    -0.1700000    0.1150000   1.874504e-04  6.479276e-08
     78    111   2   0.50000     0.0850000   -0.1150000   1.172438e-03  2.346713e-06
     78    141   2   0.50000     0.0850000   -0.1150000   1.172438e-03  2.346713e-06
     78    103   2   0.50000     0.0850000    0.1150000   2.431434e-04  1.541678e-07
    102     75   2   0.50000     0.1150000   -0.1150000   2.431434e-04  1.541678e-07
    102    103   2   0.50000     0.1150000    0.1150000   5.042375e-05  1.012808e-08
     71    105   2   0.50000    -0.1150000    0.1150000   2.431434e-04  1.541678e-07
    104     68   2   0.50000     0.1150000    0.0850000   2.431434e-04  1.541678e-07
    104    105   2   0.50000     0.1150000    0.1150000   5.042375e-05  1.012808e-08
     66    107   2   0.50000     0.0850000    0.1150000   2.431434e-04  1.541678e-07
    106     63   2   0.50000     0.1150000    0.1380000   2.431434e-04  1.541678e-07
    106    107   2   0.50000     0.1150000    0.1150000   5.042375e-05  1.012808e-08
     59    109   2   0.50000     0.1380000    0.1150000   2.431434e-04  1.541678e-07
    108     56   2   0.50000     0.1150000    0.0850000   2.431434e-04  1.541678e-07
    108    109   2   0.50000     0.1150000    0.1150000   5.042375e-05  1.012808e-08
     79    112   2   0.50000    -0.1700000   -0.1150000   9.038862e-04  9.862632e-07
     79    142   2   0.50000    -0.1700000    0.1150000   1.874504e-04  6.479276e-08
    141    112   2   0.50000    -0.1150000   -0.1150000   1.172438e-03  2.346713e-06
    141    142   2   0.50000    -0.1150000    0.1150000   2.431434e-04  1.541678e-07
     79    140   2   0.50000    -0.1700000   -0.1150000   9.038862e-04  9.862632e-07
     79    163   2   0.50000    -0.1700000    0.1150000   1.874504e-04  6.479276e-08
    111    140   2   0.50000    -0.1150000   -0.1150000   1.172438e-03  2.346713e-06
    111    163   2   0.50000    -0.1150000    0.1150000   2.431434e-04  1.541678e-07
    110    113   2   0.50000     0.0850000    0.1380000   1.172438e-03  2.346713e-06
    110    143   2   0.50000     0.0850000    0.1150000   2.431434e-04  1.541678e-07
    142    113   2   0.50000     0.1150000    0.1380000   2.431434e-04  1.541678e-07
    142    143   2   0.50000     0.1150000    0.1150000   5.042375e-05  1.012808e-08
    111    114   2   0.50000    -0.1150000    0.7840000   2.215699e-03  4.434870e-06
    143    114   2   0.50000     0.1150000    0.7840000   4.594978e-04  2.913497e-07
    143    140   2   0.50000     0.1150000   -0.1150000   2.431434e-04  1.541678e-07
    112    115   2   0.50000    -0.1150000   -0.5300000   1.059145e-03  1.228897e-06
    112    116   2   0.50000    -0.1150000   -0.5300000   1.059145e-03  1.228897e-06
    112    117   2   0.50000    -0.1150000    0.1380000   1.172438e-03  2.346713e-06
    140    115   2   0.50000    -0.1150000   -0.5300000   1.059145e-03  1.228897e-06
    140    116   2   0.50000    -0.1150000   -0.5300000   1.059145e-03  1.228897e-06
    140    117   2   0.50000    -0.1150000    0.1380000   1.172438e-03  2.346713e-06
    112    162   2   0.50000    -0.1150000    0.1150000   2.431434e-04  1.541678e-07
    114    141   2   0.50000     0.7840000   -0.1150000   2.215699e-03  4.434870e-06
    114    162   2   0.50000     0.7840000    0.1150000   4.594978e-04  2.913497e-07
    113    118   2   0.50000     0.1380000   -0.1150000   1.172438e-03  2.346713e-06
    113    139   2   0.50000     0.1380000   -0.1150000   1.172438e-03  2.346713e-06
    115    118   2   0.50000    -0.5300000   -0.1150000   1.059145e-03  1.228897e-06
    115    139   2   0.50000    -0.5300000   -0.1150000   1.059145e-03  1.228897e-06
    116    118   2   0.50000    -0.5300000   -0.1150000   1.059145e-03  1.228897e-06
    116    139   2   0.50000    -0.5300000   -0.1150000   1.059145e-03  1.228897e-06
    114    119   2   0.50000     0.7840000   -0.1150000   2.215699e-03  4.434870e-06
    114    144   2   0.50000     0.7840000    0.1150000   4.594978e-04  2.913497e-07
    139    119   2   0.50000    -0.1150000   -0.1150000   1.172438e-03  2.346713e-06
    139    144   2   0.50000    -0.1150000    0.1150000   2.431434e-04  1.541678e-07
    114    138   2   0.50000     0.7840000   -0.1150000   2.215699e-03  4.434870e-06
    114    161   2   0.50000     0.7840000    0.1150000   4.594978e-04  2.913497e-07
    118    138   2   0.50000    -0.1150000   -0.1150000   1.172438e-03  2.346713e-06
    118    161   2   0.50000    -0.1150000    0.1150000   2.431434e-04  1.541678e-07
    117    120   2   0.50000     0.1380000    0.0850000   1.172438e-03  2.346713e-06
    117    145   2   0.50000     0.1380000    0.1150000   2.431434e-04  1.541678e-07
    144    120   2   0.50000     0.1150000    0.0850000   2.431434e-04  1.541678e-07
    144    145   2   0.50000     0.1150000    0.1150000   5.042375e-05  1.012808e-08
    118    121   2   0.50000    -0.1150000   -0.1700000   9.038862e-04  9.862632e-07
    145    121   2   0.50000     0.1150000   -0.1700000   1.874504e-04  6.479276e-08
    145    138   2   0.50000     0.1150000   -0.1150000   2.431434e-04  1.541678e-07
    119    122   2   0.50000    -0.1150000    0.0850000   1.172438e-03  2.346713e-06
    138    122   2   0.50000    -0.1150000    0.0850000   1.172438e-03  2.346713e-06
    119    160   2   0.50000    -0.1150000    0.1150000   2.431434e-04  1.541678e-07
    121    139   2   0.50000    -0.1700000   -0.1150000   9.038862e-04  9.862632e-07
    121    160   2   0.50000    -0.1700000    0.1150000   1.874504e-04  6.479276e-08
    120    123   2   0.50000     0.0850000   -0.1150000   1.172438e-03  2.346713e-06
    120    137   2   0.50000     0.0850000   -0.1150000   1.172438e-03  2.346713e-06
    121    124   2   0.50000    -0.1700000   -0.1150000   9.038862e-04  9.862632e-07
    121    146   2   0.50000    -0.1700000    0.1150000   1.874504e-04  6.479276e-08
    137    124   2   0.50000    -0.1150000   -0.1150000   1.172438e-03  2.346713e-06
    137    146   2   0.50000    -0.1150000    0.1150000   2.431434e-04  1.541678e-07
    121    136   2   0.50000    -0.1700000   -0.1150000   9.038862e-04  9.862632e-07
    121    159   2   0.50000    -0.1700000    0.1150000   1.874504e-04  6.479276e-08
    123    136   2   0.50000    -0.1150000   -0.1150000   1.172438e-03  2.346713e-06
    123    159   2   0.50000    -0.1150000    0.1150000   2.431434e-04  1.541678e-07
    122    125   2   0.50000     0.0850000   -0.1150000   1.172438e-03  2.346713e-06
    122    147   2   0.50000     0.0850000    0.1150000   2.431434e-04  1.541678e-07
    146    125   2   0.50000     0.1150000   -0.1150000   2.431434e-04  1.541678e-07
    146    147   2   0.50000     0.1150000    0.1150000   5.042375e-05  1.012808e-08
    123    126   2   0.50000    -0.1150000    0.2300000   1.091018e-03  2.092768e-06
    147    126   2   0.50000     0.1150000    0.2300000   2.262583e-04  1.374848e-07
    147    136   2   0.50000     0.1150000   -0.1150000   2.431434e-04  1.541678e-07
    124    127   2   0.50000    -0.1150000   -0.1800000   1.091018e-03  2.092768e-06
    124    128   2   0.50000    -0.1150000   -0.1800000   1.091018e-03  2.092768e-06
    124    129   2   0.50000    -0.1150000   -0.1150000   1.172438e-03  2.346713e-06
    136    127   2   0.50000    -0.1150000   -0.1800000   1.091018e-03  2.092768e-06
    136    128   2   0.50000    -0.1150000   -0.1800000   1.091018e-03  2.092768e-06
    136    129   2   0.50000    -0.1150000   -0.1150000   1.172438e-03  2.346713e-06
    124    158   2   0.50000    -0.1150000    0.1150000   2.431434e-04  1.541678e-07
    126    137   2   0.50000     0.2300000   -0.1150000   1.091018e-03  2.092768e-06
    126    158   2   0.50000     0.2300000    0.1150000   2.262583e-04  1.374848e-07
    125    148   2   0.50000    -0.1150000    0.0600000   2.680627e-04  1.873879e-07
    125    149   2   0.50000    -0.1150000    0.0600000   2.680627e-04  1.873879e-07
    125    150   2   0.50000    -0.1150000    0.0600000   2.680627e-04  1.873879e-07
    128    148   2   0.50000    -0.1800000    0.0600000   2.494471e-04  1.671101e-07
    128    149   2   0.50000    -0.1800000    0.0600000   2.494471e-04  1.671101e-07
    128    150   2   0.50000    -0.1800000    0.0600000   2.494471e-04  1.671101e-07
    129    148   2   0.50000    -0.1150000    0.0600000   2.680627e-04  1.873879e-07
    129    149   2   0.50000    -0.1150000    0.0600000   2.680627e-04  1.873879e-07
    129    150   2   0.50000    -0.1150000    0.0600000   2.680627e-04  1.873879e-07
    125    151   2   0.50000    -0.1150000    0.0600000   2.680627e-04  1.873879e-07
    125    152   2   0.50000    -0.1150000    0.0600000   2.680627e-04  1.873879e-07
    125    153   2   0.50000    -0.1150000    0.0600000   2.680627e-04  1.873879e-07
    127    151   2   0.50000    -0.1800000    0.0600000   2.494471e-04  1.671101e-07
    127    152   2   0.50000    -0.1800000    0.0600000   2.494471e-04  1.671101e-07
    127    153   2   0.50000    -0.1800000    0.0600000   2.494471e-04  1.671101e-07
    129    151   2   0.50000    -0.1150000    0.0600000   2.680627e-04  1.873879e-07
    129    152   2   0.50000    -0.1150000    0.0600000   2.680627e-04  1.873879e-07
    129    153   2   0.50000    -0.1150000    0.0600000   2.680627e-04  1.873879e-07
    125    130   2   0.50000    -0.1150000   -0.1150000   1.172438e-03  2.346713e-06
    125    135   2   0.50000    -0.1150000   -0.1150000   1.172438e-03  2.346713e-06
    127    130   2   0.50000    -0.1800000   -0.1150000   1.091018e-03  2.092768e-06
    127    135   2   0.50000    -0.1800000   -0.1150000   1.091018e-03  2.092768e-06
    128    130   2   0.50000    -0.1800000   -0.1150000   1.091018e-03  2.092768e-06
    128    135   2   0.50000    -0.1800000   -0.1150000   1.091018e-03  2.092768e-06
    126    131   2   0.50000     0.2300000   -0.1150000   1.091018e-03  2.092768e-06
    126    154   2   0.50000     0.2300000    0.1150000   2.262583e-04  1.374848e-07
    135    131   2   0.50000    -0.1150000   -0.1150000   1.172438e-03  2.346713e-06
    135    154   2   0.50000    -0.1150000    0.1150000   2.431434e-04  1.541678e-07
    126    134   2   0.50000     0.2300000   -0.1150000   1.091018e-03  2.092768e-06
    126    157   2   0.50000     0.2300000    0.1150000   2.262583e-04  1.374848e-07
    130    134   2   0.50000    -0.1150000   -0.1150000   1.172438e-03  2.346713e-06
    130    157   2   0.50000    -0.1150000    0.1150000   2.431434e-04  1.541678e-07
    129    132   2   0.50000    -0.1150000    0.0850000   1.172438e-03  2.346713e-06
    129    155   2   0.50000    -0.1150000    0.1150000   2.431434e-04  1.541678e-07
    154    132   2   0.50000     0.1150000    0.0850000   2.431434e-04  1.541678e-07
    154    155   2   0.50000     0.1150000    0.1150000   5.042375e-05  1.012808e-08
    130    133   2   0.50000    -0.1150000   -0.1700000   9.038862e-04  9.862632e-07
    155    133   2   0.50000     0.1150000   -0.1700000   1.874504e-04  6.479276e-08
    155    134   2   0.50000     0.1150000   -0.1150000   2.431434e-04  1.541678e-07
    131    164   2   0.50000    -0.1150000    0.0850000   1.172438e-03  2.346713e-06
    134    164   2   0.50000    -0.1150000    0.0850000   1.172438e-03  2.346713e-06
    131    156   2   0.50000    -0.1150000    0.1150000   2.431434e-04  1.541678e-07
    133    135   2   0.50000    -0.1700000   -0.1150000   9.038862e-04  9.862632e-07
    133    156   2   0.50000    -0.1700000    0.1150000   1.874504e-04  6.479276e-08
    132    165   2   0.50000     0.0850000   -0.1150000   1.172438e-03  2.346713e-06
    132    195   2   0.50000     0.0850000   -0.1150000   1.172438e-03  2.346713e-06
    132    157   2   0.50000     0.0850000    0.1150000   2.431434e-04  1.541678e-07
    156    129   2   0.50000     0.1150000   -0.1150000   2.431434e-04  1.541678e-07
    156    157   2   0.50000     0.1150000    0.1150000   5.042375e-05  1.012808e-08
    125    159   2   0.50000    -0.1150000    0.1150000   2.431434e-04  1.541678e-07
    158    122   2   0.50000     0.1150000    0.0850000   2.431434e-04  1.541678e-07
    158    159   2   0.50000     0.1150000    0.1150000   5.042375e-05  1.012808e-08
    120    161   2   0.50000     0.0850000    0.1150000   2.431434e-04  1.541678e-07
    160    117   2   0.50000     0.1150000    0.1380000   2.431434e-04  1.541678e-07
    160    161   2   0.50000     0.1150000    0.1150000   5.042375e-05  1.012808e-08
    113    163   2   0.50000     0.1380000    0.1150000   2.431434e-04  1.541678e-07
    162    110   2   0.50000     0.1150000    0.0850000   2.431434e-04  1.541678e-07
    162    163   2   0.50000     0.1150000    0.1150000   5.042375e-05  1.012808e-08
    133    166   2   0.50000    -0.1700000   -0.1150000   9.038862e-04  9.862632e-07
    133    196   2   0.50000    -0.1700000    0.1150000   1.874504e-04  6.479276e-08
    195    166   2   0.50000    -0.1150000   -0.1150000   1.172438e-03  2.346713e-06
    195    196   2   0.50000    -0.1150000    0.1150000   2.431434e-04  1.541678e-07
    133    194   2   0.50000    -0.1700000   -0.1150000   9.038862e-04  9.862632e-07
    133    217   2   0.50000    -0.1700000    0.1150000   1.874504e-04  6.479276e-08
    165    194   2   0.50000    -0.1150000   -0.1150000   1.172438e-03  2.346713e-06
    165    217   2   0.50000    -0.1150000    0.1150000   2.431434e-04  1.541678e-07
    164    167   2   0.50000     0.0850000    0.1380000   1.172438e-03  2.346713e-06
    164    197   2   0.50000     0.0850000    0.1150000   2.431434e-04  1.541678e-07
    196    167   2   0.50000     0.1150000    0.1380000   2.431434e-04  1.541678e-07
    196    197   2   0.50000     0.1150000    0.1150000   5.042375e-05  1.012808e-08
    165    168   2   0.50000    -0.1150000    0.7840000   2.215699e-03  4.434870e-06
    197    168   2   0.50000     0.1150000    0.7840000   4.594978e-04  2.913497e-07
    197    194   2   0.50000     0.1150000   -0.1150000   2.431434e-04  1.541678e-07
    166    169   2   0.50000    -0.1150000   -0.5300000   1.059145e-03  1.228897e-06
    166    170   2   0.50000    -0.1150000   -0.5300000   1.059145e-03  1.228897e-06
    166    171   2   0.50000    -0.1150000    0.1380000   1.172438e-03  2.346713e-06
    194    169   2   0.50000    -0.1150000   -0.5300000   1.059145e-03  1.228897e-06
    194    170   2   0.50000    -0.1150000   -0.5300000   1.059145e-03  1.228897e-06
    194    171   2   0.50000    -0.1150000    0.1380000   1.172438e-03  2.346713e-06
    166    216   2   0.50000    -0.1150000    0.1150000   2.431434e-04  1.541678e-07
    168    195   2   0.50000     0.7840000   -0.1150000   2.215699e-03  4.434870e-06
    168    216   2   0.50000     0.7840000    0.1150000   4.594978e-04  2.913497e-07
    167    172   2   0.50000     0.1380000   -0.1150000   1.172438e-03  2.346713e-06
    167    193   2   0.50000     0.1380000   -0.1150000   1.172438e-03  2.346713e-06
    169    172   2   0.50000    -0.5300000   -0.1150000   1.059145e-03  1.228897e-06
    169    193   2   0.50000    -0.5300000   -0.1150000   1.059145e-03  1.228897e-06
    170    172   2   0.50000    -0.5300000   -0.1150000   1.059145e-03  1.228897e-06
    170    193   2   0.50000    -0.5300000   -0.1150000   1.059145e-03  1.228897e-06
    168    173   2   0.50000     0.7840000   -0.1150000   2.215699e-03  4.434870e-06
    168    198   2   0.50000     0.7840000    0.1150000   4.594978e-04  2.913497e-07
    193    173   2   0.50000    -0.1150000   -0.1150000   1.172438e-03  2.346713e-06
    193    198   2   0.50000    -0.1150000    0.1150000   2.431434e-04  1.541678e-07
    168    192   2   0.50000     0.7840000   -0.1150000   2.215699e-03  4.434870e-06
    168    215   2   0.50000     0.7840000    0.1150000   4.594978e-04  2.913497e-07
    172    192   2   0.50000    -0.1150000   -0.1150000   1.172438e-03  2.346713e-06
    172    215   2   0.50000    -0.1150000    0.1150000   2.431434e-04  1.541678e-07
    171    174   2   0.50000     0.1380000    0.0850000   1.172438e-03  2.346713e-06
    171    199   2   0.50000     0.1380000    0.1150000   2.431434e-04  1.541678e-07
    198    174   2   0.50000     0.1150000    0.0850000   2.431434e-04  1.541678e-07
    198    199   2   0.50000     0.1150000    0.1150000   5.042375e-05  1.012808e-08
    172    175   2   0.50000    -0.1150000   -0.1700000   9.038862e-04  9.862632e-07
    199    175   2   0.50000     0.1150000   -0.1700000   1.874504e-04  6.479276e-08
    199    192   2   0.50000     0.1150000   -0.1150000   2.431434e-04  1.541678e-07
    173    176   2   0.50000    -0.1150000    0.0850000   1.172438e-03  2.346713e-06
    192    176   2   0.50000    -0.1150000    0.0850000   1.172438e-03  2.346713e-06
    173    214   2   0.50000    -0.1150000    0.1150000   2.431434e-04  1.541678e-07
    175    193   2   0.50000    -0.1700000   -0.1150000   9.038862e-04  9.862632e-07
    175    214   2   0.50000    -0.1700000    0.1150000   1.874504e-04  6.479276e-08
    174    177   2   0.50000     0.0850000   -0.1150000   1.172438e-03  2.346713e-06
    174    191   2   0.50000     0.0850000   -0.1150000   1.172438e-03  2.346713e-06
    175    178   2   0.50000    -0.1700000   -0.1150000   9.038862e-04  9.862632e-07
    175    200   2   0.50000    -0.1700000    0.1150000   1.874504e-04  6.479276e-08
    191    178   2   0.50000    -0.1150000   -0.1150000   1.172438e-03  2.346713e-06
    191    200   2   0.50000    -0.1150000    0.1150000   2.431434e-04  1.541678e-07
    175    190   2   0.50000    -0.1700000   -0.1150000   9.038862e-04  9.862632e-07
    175    213   2   0.50000    -0.1700000    0.1150000   1.874504e-04  6.479276e-08
    177    190   2   0.50000    -0.1150000   -0.1150000   1.172438e-03  2.346713e-06
    177    213   2   0.50000    -0.1150000    0.1150000   2.431434e-04  1.541678e-07
    176    179   2   0.50000     0.0850000   -0.1150000   1.172438e-03  2.346713e-06
    176    201   2   0.50000     0.0850000    0.1150000   2.431434e-04  1.541678e-07
    200    179   2   0.50000     0.1150000   -0.1150000   2.431434e-04  1.541678e-07
    200    201   2   0.50000     0.1150000    0.1150000   5.042375e-05  1.012808e-08
    177    180   2   0.50000    -0.1150000    0.2300000   1.091018e-03  2.092768e-06
    201    180   2   0.50000     0.1150000    0.2300000   2.262583e-04  1.374848e-07
    201    190   2   0.50000     0.1150000   -0.1150000   2.431434e-04  1.541678e-07
    178    181   2   0.50000    -0.1150000   -0.1800000   1.091018e-03  2.092768e-06
    178    182   2   0.50000    -0.1150000   -0.1800000   1.091018e-03  2.092768e-06
    178    183   2   0.50000    -0.1150000   -0.1150000   1.172438e-03  2.346713e-06
    190    181   2   0.50000    -0.1150000   -0.1800000   1.091018e-03  2.092768e-06
    190    182   2   0.50000    -0.1150000   -0.1800000   1.091018e-03  2.092768e-06
    190    183   2   0.50000    -0.1150000   -0.1150000   1.172438e-03  2.346713e-06
    178    212   2   0.50000    -0.1150000    0.1150000   2.431434e-04  1.541678e-07
    180    191   2   0.50000     0.2300000   -0.1150000   1.091018e-03  2.092768e-06
    180    212   2   0.50000     0.2300000    0.1150000   2.262583e-04  1.374848e-07
    179    202   2   0.50000    -0.1150000    0.0600000   2.680627e-04  1.873879e-07
    179    203   2   0.50000    -0.1150000    0.0600000   2.680627e-04  1.873879e-07
    179    204   2   0.50000    -0.1150000    0.0600000   2.680627e-04  1.873879e-07
    182    202   2   0.50000    -0.1800000    0.0600000   2.494471e-04  1.671101e-07
    182    203   2   0.50000    -0.1800000    0.0600000   2.494471e-04  1.671101e-07
    182    204   2   0.50000    -0.1800000    0.0600000   2.494471e-04  1.671101e-07
    183    202   2   0.50000    -0.1150000    0.0600000   2.680627e-04  1.873879e-07
    183    203   2   0.50000    -0.1150000    0.0600000   2.680627e-04  1.873879e-07
    183    204   2   0.50000    -0.1150000    0.0600000   2.680627e-04  1.873879e-07
    179    205   2   0.50000    -0.1150000    0.0600000   2.680627e-04  1.873879e-07
    179    206   2   0.50000    -0.1150000    0.0600000   2.680627e-04  1.873879e-07
    179    207   2   0.50000    -0.1150000    0.0600000   2.680627e-04  1.873879e-07
    181    205   2   0.50000    -0.1800000    0.0600000   2.494471e-04  1.671101e-07
    181    206   2   0.50000    -0.1800000    0.0600000   2.494471e-04  1.671101e-07
    181    207   2   0.50000    -0.1800000    0.0600000   2.494471e-04  1.671101e-07
    183    205   2   0.50000    -0.1150000    0.0600000   2.680627e-04  1.873879e-07
    183    206   2   0.50000    -0.1150000    0.0600000   2.680627e-04  1.873879e-07
    183    207   2   0.50000    -0.1150000    0.0600000   2.680627e-04  1.873879e-07
    179    184   2   0.50000    -0.1150000   -0.1150000   1.172438e-03  2.346713e-06
    179    189   2   0.50000    -0.1150000   -0.1150000   1.172438e-03  2.346713e-06
    181    184   2   0.50000    -0.1800000   -0.1150000   1.091018e-03  2.092768e-06
    181    189   2   0.50000    -0.1800000   -0.1150000   1.091018e-03  2.092768e-06
    182    184   2   0.50000    -0.1800000   -0.1150000   1.091018e-03  2.092768e-06
    182    189   2   0.50000    -0.1800000   -0.1150000   1.091018e-03  2.092768e-06
    180    185   2   0.50000     0.2300000   -0.1150000   1.091018e-03  2.092768e-06
    180    208   2   0.50000     0.2300000    0.1150000   2.262583e-04  1.374848e-07
    189    185   2   0.50000    -0.1150000   -0.1150000   1.172438e-03  2.346713e-06
    189    208   2   0.50000    -0.1150000    0.1150000   2.431434e-04  1.541678e-07
    180    188   2   0.50000     0.2300000   -0.1150000   1.091018e-03  2.092768e-06
    180    211   2   0.50000     0.2300000    0.1150000   2.262583e-04  1.374848e-07
    184    188   2   0.50000    -0.1150000   -0.1150000   1.172438e-03  2.346713e-06
    184    211   2   0.50000    -0.1150000    0.1150000   2.431434e-04  1.541678e-07
    183    186   2   0.50000    -0.1150000    0.0850000   1.172438e-03  2.346713e-06
    183    209   2   0.50000    -0.1150000    0.1150000   2.431434e-04  1.541678e-07
    208    186   2   0.50000     0.1150000    0.0850000   2.431434e-04  1.541678e-07
    208    209   2   0.50000     0.1150000    0.1150000   5.042375e-05  1.012808e-08
    184    187   2   0.50000    -0.1150000   -0.1700000   9.038862e-04  9.862632e-07
    209    187   2   0.50000     0.1150000   -0.1700000   1.874504e-04  6.479276e-08
    209    188   2   0.50000     0.1150000   -0.1150000   2.431434e-04  1.541678e-07
    185    218   2   0.50000    -0.1150000    0.0850000   1.172438e-03  2.346713e-06
    188    218   2   0.50000    -0.1150000    0.0850000   1.172438e-03  2.346713e-06
    185    210   2   0.50000    -0.1150000    0.1150000   2.431434e-04  1.541678e-07
    187    189   2   0.50000    -0.1700000   -0.1150000   9.038862e-04  9.862632e-07
    187    210   2   0.50000    -0.1700000    0.1150000   1.874504e-04  6.479276e-08
    186    219   2   0.50000     0.0850000   -0.1150000   1.172438e-03  2.346713e-06
    186    249   2   0.50000     0.0850000   -0.1150000   1.172438e-03  2.346713e-06
    186    211   2   0.50000     0.0850000    0.1150000   2.431434e-04  1.541678e-07
    210    183   2   0.50000     0.1150000   -0.1150000   2.431434e-04  1.541678e-07
    210    211   2   0.50000     0.1150000    0.1150000   5.042375e-05  1.012808e-08
    179    213   2   0.50000    -0.1150000    0.1150000   2.431434e-04  1.541678e-07
    212    176   2   0.50000     0.1150000    0.0850000   2.431434e-04  1.541678e-07
    212    213   2   0.50000     0.1150000    0.1150000   5.042375e-05  1.012808e-08
    174    215   2   0.50000     0.0850000    0.1150000   2.431434e-04  1.541678e-07
    214    171   2   0.50000     0.1150000    0.1380000   2.431434e-04  1.541678e-07
    214    215   2   0.50000     0.1150000    0.1150000   5.042375e-05  1.012808e-08
    167    217   2   0.50000     0.1380000    0.1150000   2.431434e-04  1.541678e-07
    216    164   2   0.50000     0.1150000    0.0850000   2.431434e-04  1.541678e-07
    216    217   2   0.50000     0.1150000    0.1150000   5.042375e-05  1.012808e-08
    187    220   2   0.50000    -0.1700000   -0.1150000   9.038862e-04  9.862632e-07
    187    250   2   0.50000    -0.1700000    0.1150000   1.874504e-04  6.479276e-08
    249    220   2   0.50000    -0.1150000   -0.1150000   1.172438e-03  2.346713e-06
    249    250   2   0.50000    -0.1150000    0.1150000   2.431434e-04  1.541678e-07
    187    248   2   0.50000    -0.1700000   -0.1150000   9.038862e-04  9.862632e-07
    187    271   2   0.50000    -0.1700000    0.1150000   1.874504e-04  6.479276e-08
    219    248   2   0.50000    -0.1150000   -0.1150000   1.172438e-03  2.346713e-06
    219    271   2   0.50000    -0.1150000    0.1150000   2.431434e-04  1.541678e-07
    218    221   2   0.50000     0.0850000    0.1380000   1.172438e-03  2.346713e-06
    218    251   2   0.50000     0.0850000    0.1150000   2.431434e-04  1.541678e-07
    250    221   2   0.50000     0.1150000    0.1380000   2.431434e-04  1.541678e-07
    250    251   2   0.50000     0.1150000    0.1150000   5.042375e-05  1.012808e-08
    219    222   2   0.50000    -0.1150000    0.7840000   2.215699e-03  4.434870e-06
    251    222   2   0.50000     0.1150000    0.7840000   4.594978e-04  2.913497e-07
    251    248   2   0.50000     0.1150000   -0.1150000   2.431434e-04  1.541678e-07
    220    223   2   0.50000    -0.1150000   -0.5300000   1.059145e-03  1.228897e-06
    220    224   2   0.50000    -0.1150000   -0.5300000   1.059145e-03  1.228897e-06
    220    225   2   0.50000    -0.1150000    0.1380000   1.172438e-03  2.346713e-06
    248    223   2   0.50000    -0.1150000   -0.5300000   1.059145e-03  1.228897e-06
    248    224   2   0.50000    -0.1150000   -0.5300000   1.059145e-03  1.228897e-06
    248    225   2   0.50000    -0.1150000    0.1380000   1.172438e-03  2.346713e-06
    220    270   2   0.50000    -0.1150000    0.1150000   2.431434e-04  1.541678e-07
    222    249   2   0.50000     0.7840000   -0.1150000   2.215699e-03  4.434870e-06
    222    270   2   0.50000     0.7840000    0.1150000   4.594978e-04  2.913497e-07
    221    226   2   0.50000     0.1380000   -0.1150000   1.172438e-03  2.346713e-06
    221    247   2   0.50000     0.1380000   -0.1150000   1.172438e-03  2.346713e-06
    223    226   2   0.50000    -0.5300000   -0.1150000   1.059145e-03  1.228897e-06
    223    247   2   0.50000    -0.5300000   -0.1150000   1.059145e-03  1.228897e-06
    224    226   2   0.50000    -0.5300000   -0.1150000   1.059145e-03  1.228897e-06
    224    247   2   0.50000    -0.5300000   -0.1150000   1.059145e-03  1.228897e-06
    222    227   2   0.50000     0.7840000   -0.1150000   2.215699e-03  4.434870e-06
    222    252   2   0.50000     0.7840000    0.1150000   4.594978e-04  2.913497e-07
    247    227   2   0.50000    -0.1150000   -0.1150000   1.172438e-03  2.346713e-06
    247    252   2   0.50000    -0.1150000    0.1150000   2.431434e-04  1.541678e-07
    222    246   2   0.50000     0.7840000   -0.1150000   2.215699e-03  4.434870e-06
    222    269   2   0.50000     0.7840000    0.1150000   4.594978e-04  2.913497e-07
    226    246   2   0.50000    -0.1150000   -0.1150000   1.172438e-03  2.346713e-06
    226    269   2   0.50000    -0.1150000    0.1150000   2.431434e-04  1.541678e-07
    225    228   2   0.50000     0.1380000    0.0850000   1.172438e-03  2.346713e-06
    225    253   2   0.50000     0.1380000    0.1150000   2.431434e-04  1.541678e-07
    252    228   2   0.50000     0.1150000    0.0850000   2.431434e-04  1.541678e-07
    252    253   2   0.50000     0.1150000    0.1150000   5.042375e-05  1.012808e-08
    226    229   2   0.50000    -0.1150000   -0.1700000   9.038862e-04  9.862632e-07
    253    229   2   0.50000     0.1150000   -0.1700000   1.874504e-04  6.479276e-08
    253    246   2   0.50000     0.1150000   -0.1150000   2.431434e-04  1.541678e-07
    227    230   2   0.50000    -0.1150000    0.0850000   1.172438e-03  2.346713e-06
    246    230   2   0.50000    -0.1150000    0.0850000   1.172438e-03  2.346713e-06
    227    268   2   0.50000    -0.1150000    0.1150000   2.431434e-04  1.541678e-07
    229    247   2   0.50000    -0.1700000   -0.1150000   9.038862e-04  9.862632e-07
    229    268   2   0.50000    -0.1700000    0.1150000   1.874504e-04  6.479276e-08
    228    231   2   0.50000     0.0850000   -0.1150000   1.172438e-03  2.346713e-06
    228    245   2   0.50000     0.0850000   -0.1150000   1.172438e-03  2.346713e-06
    229    232   2   0.50000    -0.1700000   -0.1150000   9.038862e-04  9.862632e-07
    229    254   2   0.50000    -0.1700000    0.1150000   1.874504e-04  6.479276e-08
    245    232   2   0.50000    -0.1150000   -0.1150000   1.172438e-03  2.346713e-06
    245    254   2   0.50000    -0.1150000    0.1150000   2.431434e-04  1.541678e-07
    229    244   2   0.50000    -0.1700000   -0.1150000   9.038862e-04  9.862632e-07
    229    267   2   0.50000    -0.1700000    0.1150000   1.874504e-04  6.479276e-08
    231    244   2   0.50000    -0.1150000   -0.1150000   1.172438e-03  2.346713e-06
    231    267   2   0.50000    -0.1150000    0.1150000   2.431434e-04  1.541678e-07
    230    233   2   0.50000     0.0850000   -0.1150000   1.172438e-03  2.346713e-06
    230    255   2   0.50000     0.0850000    0.1150000   2.431434e-04  1.541678e-07
    254    233   2   0.50000     0.1150000   -0.1150000   2.431434e-04  1.541678e-07
    254    255   2   0.50000     0.1150000    0.1150000   5.042375e-05  1.012808e-08
    231    234   2   0.50000    -0.1150000    0.2300000   1.091018e-03  2.092768e-06
    255    234   2   0.50000     0.1150000    0.2300000   2.262583e-04  1.374848e-07
    255    244   2   0.50000     0.1150000   -0.1150000   2.431434e-04  1.541678e-07
    232    235   2   0.50000    -0.1150000   -0.1800000   1.091018e-03  2.092768e-06
    232    236   2   0.50000    -0.1150000   -0.1800000   1.091018e-03  2.092768e-06
    232    237   2   0.50000    -0.1150000   -0.1150000   1.172438e-03  2.346713e-06
    244    235   2   0.50000    -0.1150000   -0.1800000   1.091018e-03  2.092768e-06
    244    236   2   0.50000    -0.1150000   -0.1800000   1.091018e-03  2.092768e-06
    244    237   2   0.50000    -0.1150000   -0.1150000   1.172438e-03  2.346713e-06
    232    266   2   0.50000    -0.1150000    0.1150000   2.431434e-04  1.541678e-07
    234    245   2   0.50000     0.2300000   -0.1150000   1.091018e-03  2.092768e-06
    234    266   2   0.50000     0.2300000    0.1150000   2.262583e-04  1.374848e-07
    233    256   2   0.50000    -0.1150000    0.0600000   2.680627e-04  1.873879e-07
    233    257   2   0.50000    -0.1150000    0.0600000   2.680627e-04  1.873879e-07
    233    258   2   0.50000    -0.1150000    0.0600000   2.680627e-04  1.873879e-07
    236    256   2   0.50000    -0.1800000    0.0600000   2.494471e-04  1.671101e-07
    236    257   2   0.50000    -0.1800000    0.0600000   2.494471e-04  1.671101e-07
    236    258   2   0.50000    -0.1800000    0.0600000   2.494471e-04  1.671101e-07
    237    256   2   0.50000    -0.1150000    0.0600000   2.680627e-04  1.873879e-07
    237    257   2   0.50000    -0.1150000    0.0600000   2.680627e-04  1.873879e-07
    237    258   2   0.50000    -0.1150000    0.0600000   2.680627e-04  1.873879e-07
    233    259   2   0.50000    -0.1150000    0.0600000   2.680627e-04  1.873879e-07
    233    260   2   0.50000    -0.1150000    0.0600000   2.680627e-04  1.873879e-07
    233    261   2   0.50000    -0.1150000    0.0600000   2.680627e-04  1.873879e-07
    235    259   2   0.50000    -0.1800000    0.0600000   2.494471e-04  1.671101e-07
    235    260   2   0.50000    -0.1800000    0.0600000   2.494471e-04  1.671101e-07
    235    261   2   0.50000    -0.1800000    0.0600000   2.494471e-04  1.671101e-07
    237    259   2   0.50000    -0.1150000    0.0600000   2.680627e-04  1.873879e-07
    237    260   2   0.50000    -0.1150000    0.0600000   2.680627e-04  1.873879e-07
    237    261   2   0.50000    -0.1150000    0.0600000   2.680627e-04  1.873879e-07
    233    238   2   0.50000    -0.1150000   -0.1150000   1.172438e-03  2.346713e-06
    233    243   2   0.50000    -0.1150000   -0.1150000   1.172438e-03  2.346713e-06
    235    238   2   0.50000    -0.1800000   -0.1150000   1.091018e-03  2.092768e-06
    235    243   2   0.50000    -0.1800000   -0.1150000   1.091018e-03  2.092768e-06
    236    238   2   0.50000    -0.1800000   -0.1150000   1.091018e-03  2.092768e-06
    236    243   2   0.50000    -0.1800000   -0.1150000   1.091018e-03  2.092768e-06
    234    239   2   0.50000     0.2300000   -0.1150000   1.091018e-03  2.092768e-06
    234    262   2   0.50000     0.2300000    0.1150000   2.262583e-04  1.374848e-07
    243    239   2   0.50000    -0.1150000   -0.1150000   1.172438e-03  2.346713e-06
    243    262   2   0.50000    -0.1150000    0.1150000   2.431434e-04  1.541678e-07
    234    242   2   0.50000     0.2300000   -0.1150000   1.091018e-03  2.092768e-06
    234    265   2   0.50000     0.2300000    0.1150000   2.262583e-04  1.374848e-07
    238    242   2   0.50000    -0.1150000   -0.1150000   1.172438e-03  2.346713e-06
    238    265   2   0.50000    -0.1150000    0.1150000   2.431434e-04  1.541678e-07
    237    240   2   0.50000    -0.1150000    0.0850000   1.172438e-03  2.346713e-06
    237    263   2   0.50000    -0.1150000    0.1150000   2.431434e-04  1.541678e-07
    262    240   2   0.50000     0.1150000    0.0850000   2.431434e-04  1.541678e-07
    262    263   2   0.50000     0.1150000    0.1150000   5.042375e-05  1.012808e-08
    238    241   2   0.50000    -0.1150000   -0.1700000   9.038862e-04  9.862632e-07
    263    241   2   0.50000     0.1150000   -0.1700000   1.874504e-04  6.479276e-08
    263    242   2   0.50000     0.1150000   -0.1150000   2.431434e-04  1.541678e-07
    239    272   2   0.50000    -0.1150000    0.0850000   1.172438e-03  2.346713e-06
    242    272   2   0.50000    -0.1150000    0.0850000   1.172438e-03  2.346713e-06
    239    264   2   0.50000    -0.1150000    0.1150000   2.431434e-04  1.541678e-07
    241    243   2   0.50000    -0.1700000   -0.1150000   9.038862e-04  9.862632e-07
    241    264   2   0.50000    -0.1700000    0.1150000   1.874504e-04  6.479276e-08
    240    273   2   0.50000     0.0850000   -0.1150000   1.172438e-03  2.346713e-06
    240    303   2   0.50000     0.0850000   -0.1150000   1.172438e-03  2.346713e-06
    240    265   2   0.50000     0.0850000    0.1150000   2.431434e-04  1.541678e-07
    264    237   2   0.50000     0.1150000   -0.1150000   2.431434e-04  1.541678e-07
    264    265   2   0.50000     0.1150000    0.1150000   5.042375e-05  1.012808e-08
    233    267   2   0.50000    -0.1150000    0.1150000   2.431434e-04  1.541678e-07
    266    230   2   0.50000     0.1150000    0.0850000   2.431434e-04  1.541678e-07
    266    267   2   0.50000     0.1150000    0.1150000   5.042375e-05  1.012808e-08
    228    269   2   0.50000     0.0850000    0.1150000   2.431434e-04  1.541678e-07
    268    225   2   0.50000     0.1150000    0.1380000   2.431434e-04  1.541678e-07
    268    269   2   0.50000     0.1150000    0.1150000   5.042375e-05  1.012808e-08
    221    271   2   0.50000     0.1380000    0.1150000   2.431434e-04  1.541678e-07
    270    218   2   0.50000     0.1150000    0.0850000   2.431434e-04  1.541678e-07
    270    271   2   0.50000     0.1150000    0.1150000   5.042375e-05  1.012808e-08
    241    274   2   0.50000    -0.1700000   -0.1150000   9.038862e-04  9.862632e-07
    241    304   2   0.50000    -0.1700000    0.1150000   1.874504e-04  6.479276e-08
    303    274   2   0.50000    -0.1150000   -0.1150000   1.172438e-03  2.346713e-06
    303    304   2   0.50000    -0.1150000    0.1150000   2.431434e-04  1.541678e-07
    241    302   2   0.50000    -0.1700000   -0.1150000   9.038862e-04  9.862632e-07
    241    325   2   0.50000    -0.1700000    0.1150000   1.874504e-04  6.479276e-08
    273    302   2   0.50000    -0.1150000   -0.1150000   1.172438e-03  2.346713e-06
    273    325   2   0.50000    -0.1150000    0.1150000   2.431434e-04  1.541678e-07
    272    275   2   0.50000     0.0850000    0.1380000   1.172438e-03  2.346713e-06
    272    305   2   0.50000     0.0850000    0.1150000   2.431434e-04  1.541678e-07
    304    275   2   0.50000     0.1150000    0.1380000   2.431434e-04  1.541678e-07
    304    305   2   0.50000     0.1150000    0.1150000   5.042375e-05  1.012808e-08
    273    276   2   0.50000    -0.1150000    0.7840000   2.215699e-03  4.434870e-06
    305    276   2   0.50000     0.1150000    0.7840000   4.594978e-04  2.913497e-07
    305    302   2   0.50000     0.1150000   -0.1150000   2.431434e-04  1.541678e-07
    274    277   2   0.50000    -0.1150000   -0.5300000   1.059145e-03  1.228897e-06
    274    278   2   0.50000    -0.1150000   -0.5300000   1.059145e-03  1.228897e-06
    274    279   2   0.50000    -0.1150000    0.1380000   1.172438e-03  2.346713e-06
    302    277   2   0.50000    -0.1150000   -0.5300000   1.059145e-03  1.228897e-06
    302    278   2   0.50000    -0.1150000   -0.5300000   1.059145e-03  1.228897e-06
    302    279   2   0.50000    -0.1150000    0.1380000   1.172438e-03  2.346713e-06
    274    324   2   0.50000    -0.1150000    0.1150000   2.431434e-04  1.541678e-07
    276    303   2   0.50000     0.7840000   -0.1150000   2.215699e-03  4.434870e-06
    276    324   2   0.50000     0.7840000    0.1150000   4.594978e-04  2.913497e-07
    275    280   2   0.50000     0.1380000   -0.1150000   1.172438e-03  2.346713e-06
    275    301   2   0.50000     0.1380000   -0.1150000   1.172438e-03  2.346713e-06
    277    280   2   0.50000    -0.5300000   -0.1150000   1.059145e-03  1.228897e-06
    277    301   2   0.50000    -0.5300000   -0.1150000   1.059145e-03  1.228897e-06
    278    280   2   0.50000    -0.5300000   -0.1150000   1.059145e-03  1.228897e-06
    278    301   2   0.50000    -0.5300000   -0.1150000   1.059145e-03  1.228897e-06
    276    281   2   0.50000     0.7840000   -0.1150000   2.215699e-03  4.434870e-06
    276    306   2   0.50000     0.7840000    0.1150000   4.594978e-04  2.913497e-07
    301    281   2   0.50000    -0.1150000   -0.1150000   1.172438e-03  2.346713e-06
    301    306   2   0.50000    -0.1150000    0.1150000   2.431434e-04  1.541678e-07
    276    300   2   0.50000     0.7840000   -0.1150000   2.215699e-03  4.434870e-06
    276    323   2   0.50000     0.7840000    0.1150000   4.594978e-04  2.913497e-07
    280    300   2   0.50000    -0.1150000   -0.1150000   1.172438e-03  2.346713e-06
    280    323   2   0.50000    -0.1150000    0.1150000   2.431434e-04  1.541678e-07
    279    282   2   0.50000     0.1380000    0.0850000   1.172438e-03  2.346713e-06
    279    307   2   0.50000     0.1380000    0.1150000   2.431434e-04  1.541678e-07
    306    282   2   0.50000     0.1150000    0.0850000   2.431434e-04  1.541678e-07
    306    307   2   0.50000     0.1150000    0.1150000   5.042375e-05  1.012808e-08
    280    283   2   0.50000    -0.1150000   -0.1700000   9.038862e-04  9.862632e-07
    307    283   2   0.50000     0.1150000   -0.1700000   1.874504e-04  6.479276e-08
    307    300   2   0.50000     0.1150000   -0.1150000   2.431434e-04  1.541678e-07
    281    284   2   0.50000    -0.1150000    0.0850000   1.172438e-03  2.346713e-06
    300    284   2   0.50000    -0.1150000    0.0850000   1.172438e-03  2.346713e-06
    281    322   2   0.50000    -0.1150000    0.1150000   2.431434e-04  1.541678e-07
    283    301   2   0.50000    -0.1700000   -0.1150000   9.038862e-04  9.862632e-07
    283    322   2   0.50000    -0.1700000    0.1150000   1.874504e-04  6.479276e-08
    282    285   2   0.50000     0.0850000   -0.1150000   1.172438e-03  2.346713e-06
    282    299   2   0.50000     0.0850000   -0.1150000   1.172438e-03  2.346713e-06
    283    286   2   0.50000    -0.1700000   -0.1150000   9.038862e-04  9.862632e-07
    283    308   2   0.50000    -0.1700000    0.1150000   1.874504e-04  6.479276e-08
    299    286   2   0.50000    -0.1150000   -0.1150000   1.172438e-03  2.346713e-06
    299    308   2   0.50000    -0.1150000    0.1150000   2.431434e-04  1.541678e-07
    283    298   2   0.50000    -0.1700000   -0.1150000   9.038862e-04  9.862632e-07
    283    321   2   0.50000    -0.1700000    0.1150000   1.874504e-04  6.479276e-08
    285    298   2   0.50000    -0.1150000   -0.1150000   1.172438e-03  2.346713e-06
    285    321   2   0.50000    -0.1150000    0.1150000   2.431434e-04  1.541678e-07
    284    287   2   0.50000     0.0850000   -0.1150000   1.172438e-03  2.346713e-06
    284    309   2   0.50000     0.0850000    0.1150000   2.431434e-04  1.541678e-07
    308    287   2   0.50000     0.1150000   -0.1150000   2.431434e-04  1.541678e-07
    308    309   2   0.50000     0.1150000    0.1150000   5.042375e-05  1.012808e-08
    285    288   2   0.50000    -0.1150000    0.2300000   1.091018e-03  2.092768e-06
    309    288   2   0.50000     0.1150000    0.2300000   2.262583e-04  1.374848e-07
    309    298   2   0.50000     0.1150000   -0.1150000   2.431434e-04  1.541678e-07
    286    289   2   0.50000    -0.1150000   -0.1800000   1.091018e-03  2.092768e-06
    286    290   2   0.50000    -0.1150000   -0.1800000   1.091018e-03  2.092768e-06
    286    291   2   0.50000    -0.1150000   -0.1150000   1.172438e-03  2.346713e-06
    298    289   2   0.50000    -0.1150000   -0.1800000   1.091018e-03  2.092768e-06
    298    290   2   0.50000    -0.1150000   -0.1800000   1.091018e-03  2.092768e-06
    298    291   2   0.50000    -0.1150000   -0.1150000   1.172438e-03  2.346713e-06
    286    320   2   0.50000    -0.1150000    0.1150000   2.431434e-04  1.541678e-07
    288    299   2   0.50000     0.2300000   -0.1150000   1.091018e-03  2.092768e-06
    288    320   2   0.50000     0.2300000    0.1150000   2.262583e-04  1.374848e-07
    287    310   2   0.50000    -0.1150000    0.0600000   2.680627e-04  1.873879e-07
    287    311   2   0.50000    -0.1150000    0.0600000   2.680627e-04  1.873879e-07
    287    312   2   0.50000    -0.1150000    0.0600000   2.680627e-04  1.873879e-07
    290    310   2   0.50000    -0.1800000    0.0600000   2.494471e-04  1.671101e-07
    290    311   2   0.50000    -0.1800000    0.0600000   2.494471e-04  1.671101e-07
    290    312   2   0.50000    -0.1800000    0.0600000   2.494471e-04  1.671101e-07
    291    310   2   0.50000    -0.1150000    0.0600000   2.680627e-04  1.873879e-07
    291    311   2   0.50000    -0.1150000    0.0600000   2.680627e-04  1.873879e-07
    291    312   2   0.50000    -0.1150000    0.0600000   2.680627e-04  1.873879e-07
    287    313   2   0.50000    -0.1150000    0.0600000   2.680627e-04  1.873879e-07
    287    314   2   0.50000    -0.1150000    0.0600000   2.680627e-04  1.873879e-07
    287    315   2   0.50000    -0.1150000    0.0600000   2.680627e-04  1.873879e-07
    289    313   2   0.50000    -0.1800000    0.0600000   2.494471e-04  1.671101e-07
    289    314   2   0.50000    -0.1800000    0.0600000   2.494471e-04  1.671101e-07
    289    315   2   0.50000    -0.1800000    0.0600000   2.494471e-04  1.671101e-07
    291    313   2   0.50000    -0.1150000    0.0600000   2.680627e-04  1.873879e-07
    291    314   2   0.50000    -0.1150000    0.0600000   2.680627e-04  1.873879e-07
    291    315   2   0.50000    -0.1150000    0.0600000   2.680627e-04  1.873879e-07
    287    292   2   0.50000    -0.1150000   -0.1150000   1.172438e-03  2.346713e-06
    287    297   2   0.50000    -0.1150000   -0.1150000   1.172438e-03  2.346713e-06
    289    292   2   0.50000    -0.1800000   -0.1150000   1.091018e-03  2.092768e-06
    289    297   2   0.50000    -0.1800000   -0.1150000   1.091018e-03  2.092768e-06
    290    292   2   0.50000    -0.1800000   -0.1150000   1.091018e-03  2.092768e-06
    290    297   2   0.50000    -0.1800000   -0.1150000   1.091018e-03  2.092768e-06
    288    293   2   0.50000     0.2300000   -0.1150000   1.091018e-03  2.092768e-06
    288    316   2   0.50000     0.2300000    0.1150000   2.262583e-04  1.374848e-07
    297    293   2   0.50000    -0.1150000   -0.1150000   1.172438e-03  2.346713e-06
    297    316   2   0.50000    -0.1150000    0.1150000   2.431434e-04  1.541678e-07
    288    296   2   0.50000     0.2300000   -0.1150000   1.091018e-03  2.092768e-06
    288    319   2   0.50000     0.2300000    0.1150000   2.262583e-04  1.374848e-07
    292    296   2   0.50000    -0.1150000   -0.1150000   1.172438e-03  2.346713e-06
    292    319   2   0.50000    -0.1150000    0.1150000   2.431434e-04  1.541678e-07
    291    294   2   0.50000    -0.1150000    0.0850000   1.172438e-03  2.346713e-06
    291    317   2   0.50000    -0.1150000    0.1150000   2.431434e-04  1.541678e-07
    316    294   2   0.50000     0.1150000    0.0850000   2.431434e-04  1.541678e-07
    316    317   2   0.50000     0.1150000    0.1150000   5.042375e-05  1.012808e-08
    292    295   2   0.50000    -0.1150000   -0.1700000   9.038862e-04  9.862632e-07
    317    295   2   0.50000     0.1150000   -0.1700000   1.874504e-04  6.479276e-08
    317    296   2   0.50000     0.1150000   -0.1150000   2.431434e-04  1.541678e-07
    293    326   2   0.50000    -0.1150000    0.0850000   1.172438e-03  2.346713e-06
    296    326   2   0.50000    -0.1150000    0.0850000   1.172438e-03  2.346713e-06
    293    318   2   0.50000    -0.1150000    0.1150000   2.431434e-04  1.541678e-07
    295    297   2   0.50000    -0.1700000   -0.1150000   9.038862e-04  9.862632e-07
    295    318   2   0.50000    -0.1700000    0.1150000   1.874504e-04  6.479276e-08
    294    327   2   0.50000     0.0850000   -0.1150000   1.172438e-03  2.346713e-06
    294    357   2   0.50000     0.0850000   -0.1150000   1.172438e-03  2.346713e-06
    294    319   2   0.50000     0.0850000    0.1150000   2.431434e-04  1.541678e-07
    318    291   2   0.50000     0.1150000   -0.1150000   2.431434e-04  1.541678e-07
    318    319   2   0.50000     0.1150000    0.1150000   5.042375e-05  1.012808e-08
    287    321   2   0.50000    -0.1150000    0.1150000   2.431434e-04  1.541678e-07
    320    284   2   0.50000     0.1150000    0.0850000   2.431434e-04  1.541678e-07
    320    321   2   0.50000     0.1150000    0.1150000   5.042375e-05  1.012808e-08
    282    323   2   0.50000     0.0850000    0.1150000   2.431434e-04  1.541678e-07
    322    279   2   0.50000     0.1150000    0.1380000   2.431434e-04  1.541678e-07
    322    323   2   0.50000     0.1150000    0.1150000   5.042375e-05  1.012808e-08
    275    325   2   0.50000     0.1380000    0.1150000   2.431434e-04  1.541678e-07
    324    272   2   0.50000     0.1150000    0.0850000   2.431434e-04  1.541678e-07
    324    325   2   0.50000     0.1150000    0.1150000   5.042375e-05  1.012808e-08
    295    328   2   0.50000    -0.1700000   -0.1150000   9.038862e-04  9.862632e-07
    295    358   2   0.50000    -0.1700000    0.1150000   1.874504e-04  6.479276e-08
    357    328   2   0.50000    -0.1150000   -0.1150000   1.172438e-03  2.346713e-06
    357    358   2   0.50000    -0.1150000    0.1150000   2.431434e-04  1.541678e-07
    295    356   2   0.50000    -0.1700000   -0.1150000   9.038862e-04  9.862632e-07
    295    379   2   0.50000    -0.1700000    0.1150000   1.874504e-04  6.479276e-08
    327    356   2   0.50000    -0.1150000   -0.1150000   1.172438e-03  2.346713e-06
    327    379   2   0.50000    -0.1150000    0.1150000   2.431434e-04  1.541678e-07
    326    329   2   0.50000     0.0850000    0.1380000   1.172438e-03  2.346713e-06
    326    359   2   0.50000     0.0850000    0.1150000   2.431434e-04  1.541678e-07
    358    329   2   0.50000     0.1150000    0.1380000   2.431434e-04  1.541678e-07
    358    359   2   0.50000     0.1150000    0.1150000   5.042375e-05  1.012808e-08
    327    330   2   0.50000    -0.1150000    0.7840000   2.215699e-03  4.434870e-06
    359    330   2   0.50000     0.1150000    0.7840000   4.594978e-04  2.913497e-07
    359    356   2   0.50000     0.1150000   -0.1150000   2.431434e-04  1.541678e-07
    328    331   2   0.50000    -0.1150000   -0.5300000   1.059145e-03  1.228897e-06
    328    332   2   0.50000    -0.1150000   -0.5300000   1.059145e-03  1.228897e-06
    328    333   2   0.50000    -0.1150000    0.1380000   1.172438e-03  2.346713e-06
    356    331   2   0.50000    -0.1150000   -0.5300000   1.059145e-03  1.228897e-06
    356    332   2   0.50000    -0.1150000   -0.5300000   1.059145e-03  1.228897e-06
    356    333   2   0.50000    -0.1150000    0.1380000   1.172438e-03  2.346713e-06
    328    378   2   0.50000    -0.1150000    0.1150000   2.431434e-04  1.541678e-07
    330    357   2   0.50000     0.7840000   -0.1150000   2.215699e-03  4.434870e-06
    330    378   2   0.50000     0.7840000    0.1150000   4.594978e-04  2.913497e-07
    329    334   2   0.50000     0.1380000   -0.1150000   1.172438e-03  2.346713e-06
    329    355   2   0.50000     0.1380000   -0.1150000   1.172438e-03  2.346713e-06
    331    334   2   0.50000    -0.5300000   -0.1150000   1.059145e-03  1.228897e-06
    331    355   2   0.50000    -0.5300000   -0.1150000   1.059145e-03  1.228897e-06
    332    334   2   0.50000    -0.5300000   -0.1150000   1.059145e-03  1.228897e-06
    332    355   2   0.50000    -0.5300000   -0.1150000   1.059145e-03  1.228897e-06
    330    335   2   0.50000     0.7840000   -0.1150000   2.215699e-03  4.434870e-06
    330    360   2   0.50000     0.7840000    0.1150000   4.594978e-04  2.913497e-07
    355    335   2   0.50000    -0.1150000   -0.1150000   1.172438e-03  2.346713e-06
    355    360   2   0.50000    -0.1150000    0.1150000   2.431434e-04  1.541678e-07
    330    354   2   0.50000     0.7840000   -0.1150000   2.215699e-03  4.434870e-06
    330    377   2   0.50000     0.7840000    0.1150000   4.594978e-04  2.913497e-07
    334    354   2   0.50000    -0.1150000   -0.1150000   1.172438e-03  2.346713e-06
    334    377   2   0.50000    -0.1150000    0.1150000   2.431434e-04  1.541678e-07
    333    336   2   0.50000     0.1380000    0.0850000   1.172438e-03  2.346713e-06
    333    361   2   0.50000     0.1380000    0.1150000   2.431434e-04  1.541678e-07
    360    336   2   0.50000     0.1150000    0.0850000   2.431434e-04  1.541678e-07
    360    361   2   0.50000     0.1150000    0.1150000   5.042375e-05  1.012808e-08
    334    337   2   0.50000    -0.1150000   -0.1700000   9.038862e-04  9.862632e-07
    361    337   2   0.50000     0.1150000   -0.1700000   1.874504e-04  6.479276e-08
    361    354   2   0.50000     0.1150000   -0.1150000   2.431434e-04  1.541678e-07
    335    338   2   0.50000    -0.1150000    0.0850000   1.172438e-03  2.346713e-06
    354    338   2   0.50000    -0.1150000    0.0850000   1.172438e-03  2.346713e-06
    335    376   2   0.50000    -0.1150000    0.1150000   2.431434e-04  1.541678e-07
    337    355   2   0.50000    -0.1700000   -0.1150000   9.038862e-04  9.862632e-07
    337    376   2   0.50000    -0.1700000    0.1150000   1.874504e-04  6.479276e-08
    336    339   2   0.50000     0.0850000   -0.1150000   1.172438e-03  2.346713e-06
    336    353   2   0.50000     0.0850000   -0.1150000   1.172438e-03  2.346713e-06
    337    340   2   0.50000    -0.1700000   -0.1150000   9.038862e-04  9.862632e-07
    337    362   2   0.50000    -0.1700000    0.1150000   1.874504e-04  6.479276e-08
    353    340   2   0.50000    -0.1150000   -0.1150000   1.172438e-03  2.346713e-06
    353    362   2   0.50000    -0.1150000    0.1150000   2.431434e-04  1.541678e-07
    337    352   2   0.50000    -0.1700000   -0.1150000   9.038862e-04  9.862632e-07
    337    375   2   0.50000    -0.1700000    0.1150000   1.874504e-04  6.479276e-08
    339    352   2   0.50000    -0.1150000   -0.1150000   1.172438e-03  2.346713e-06
    339    375   2   0.50000    -0.1150000    0.1150000   2.431434e-04  1.541678e-07
    338    341   2   0.50000     0.0850000   -0.1150000   1.172438e-03  2.346713e-06
    338    363   2   0.50000     0.0850000    0.1150000   2.431434e-04  1.541678e-07
    362    341   2   0.50000     0.1150000   -0.1150000   2.431434e-04  1.541678e-07
    362    363   2   0.50000     0.1150000    0.1150000   5.042375e-05  1.012808e-08
    339    342   2   0.50000    -0.1150000    0.2300000   1.091018e-03  2.092768e-06
    363    342   2   0.50000     0.1150000    0.2300000   2.262583e-04  1.374848e-07
    363    352   2   0.50000     0.1150000   -0.1150000   2.431434e-04  1.541678e-07
    340    343   2   0.50000    -0.1150000   -0.1800000   1.091018e-03  2.092768e-06
    340    344   2   0.50000    -0.1150000   -0.1800000   1.091018e-03  2.092768e-06
    340    345   2   0.50000    -0.1150000   -0.1150000   1.172438e-03  2.346713e-06
    352    343   2   0.50000    -0.1150000   -0.1800000   1.091018e-03  2.092768e-06
    352    344   2   0.50000    -0.1150000   -0.1800000   1.091018e-03  2.092768e-06
    352    345   2   0.50000    -0.1150000   -0.1150000   1.172438e-03  2.346713e-06
    340    374   2   0.50000    -0.1150000    0.1150000   2.431434e-04  1.541678e-07
    342    353   2   0.50000     0.2300000   -0.1150000   1.091018e-03  2.092768e-06
    342    374   2   0.50000     0.2300000    0.1150000   2.262583e-04  1.374848e-07
    341    364   2   0.50000    -0.1150000    0.0600000   2.680627e-04  1.873879e-07
    341    365   2   0.50000    -0.1150000    0.0600000   2.680627e-04  1.873879e-07
    341    366   2   0.50000    -0.1150000    0.0600000   2.680627e-04  1.873879e-07
    344    364   2   0.50000    -0.1800000    0.0600000   2.494471e-04  1.671101e-07
    344    365   2   0.50000    -0.1800000    0.0600000   2.494471e-04  1.671101e-07
    344    366   2   0.50000    -0.1800000    0.0600000   2.494471e-04  1.671101e-07
    345    364   2   0.50000    -0.1150000    0.0600000   2.680627e-04  1.873879e-07
    345    365   2   0.50000    -0.1150000    0.0600000   2.680627e-04  1.873879e-07
    345    366   2   0.50000    -0.1150000    0.0600000   2.680627e-04  1.873879e-07
    341    367   2   0.50000    -0.1150000    0.0600000   2.680627e-04  1.873879e-07
    341    368   2   0.50000    -0.1150000    0.0600000   2.680627e-04  1.873879e-07
    341    369   2   0.50000    -0.1150000    0.0600000   2.680627e-04  1.873879e-07
    343    367   2   0.50000    -0.1800000    0.0600000   2.494471e-04  1.671101e-07
    343    368   2   0.50000    -0.1800000    0.0600000   2.494471e-04  1.671101e-07
    343    369   2   0.50000    -0.1800000    0.0600000   2.494471e-04  1.671101e-07
    345    367   2   0.50000    -0.1150000    0.0600000   2.680627e-04  1.873879e-07
    345    368   2   0.50000    -0.1150000    0.0600000   2.680627e-04  1.873879e-07
    345    369   2   0.50000    -0.1150000    0.0600000   2.680627e-04  1.873879e-07
    341    346   2   0.50000    -0.1150000   -0.1150000   1.172438e-03  2.346713e-06
    341    351   2   0.50000    -0.1150000   -0.1150000   1.172438e-03  2.346713e-06
    343    346   2   0.50000    -0.1800000   -0.1150000   1.091018e-03  2.092768e-06
    343    351   2   0.50000    -0.1800000   -0.1150000   1.091018e-03  2.092768e-06
    344    346   2   0.50000    -0.1800000   -0.1150000   1.091018e-03  2.092768e-06
    344    351   2   0.50000    -0.1800000   -0.1150000   1.091018e-03  2.092768e-06
    342    347   2   0.50000     0.2300000   -0.1150000   1.091018e-03  2.092768e-06
    342    370   2   0.50000     0.2300000    0.1150000   2.262583e-04  1.374848e-07
    351    347   2   0.50000    -0.1150000   -0.1150000   1.172438e-03  2.346713e-06
    351    370   2   0.50000    -0.1150000    0.1150000   2.431434e-04  1.541678e-07
    342    350   2   0.50000     0.2300000   -0.1150000   1.091018e-03  2.092768e-06
    342    373   2   0.50000     0.2300000    0.1150000   2.262583e-04  1.374848e-07
    346    350   2   0.50000    -0.1150000   -0.1150000   1.172438e-03  2.346713e-06
    346    373   2   0.50000    -0.1150000    0.1150000   2.431434e-04  1.541678e-07
    345    348   2   0.50000    -0.1150000    0.0850000   1.172438e-03  2.346713e-06
    345    371   2   0.50000    -0.1150000    0.1150000   2.431434e-04  1.541678e-07
    370    348   2   0.50000     0.1150000    0.0850000   2.431434e-04  1.541678e-07
    370    371   2   0.50000     0.1150000    0.1150000   5.042375e-05  1.012808e-08
    346    349   2   0.50000    -0.1150000   -0.1700000   9.038862e-04  9.862632e-07
    371    349   2   0.50000     0.1150000   -0.1700000   1.874504e-04  6.479276e-08
    371    350   2   0.50000     0.1150000   -0.1150000   2.431434e-04  1.541678e-07
    347    380   2   0.50000    -0.1150000    0.0850000   1.172438e-03  2.346713e-06
    350    380   2   0.50000    -0.1150000    0.0850000   1.172438e-03  2.346713e-06
    347    372   2   0.50000    -0.1150000    0.1150000   2.431434e-04  1.541678e-07
    349    351   2   0.50000    -0.1700000   -0.1150000   9.038862e-04  9.862632e-07
    349    372   2   0.50000    -0.1700000    0.1150000   1.874504e-04  6.479276e-08
    348    381   2   0.50000     0.0850000   -0.1150000   1.172438e-03  2.346713e-06
    348    411   2   0.50000     0.0850000   -0.1150000   1.172438e-03  2.346713e-06
    348    373   2   0.50000     0.0850000    0.1150000   2.431434e-04  1.541678e-07
    372    345   2   0.50000     0.1150000   -0.1150000   2.431434e-04  1.541678e-07
    372    373   2   0.50000     0.1150000    0.1150000   5.042375e-05  1.012808e-08
    341    375   2   0.50000    -0.1150000    0.1150000   2.431434e-04  1.541678e-07
    374    338   2   0.50000     0.1150000    0.0850000   2.431434e-04  1.541678e-07
    374    375   2   0.50000     0.1150000    0.1150000   5.042375e-05  1.012808e-08
    336    377   2   0.50000     0.0850000    0.1150000   2.431434e-04  1.541678e-07
    376    333   2   0.50000     0.1150000    0.1380000   2.431434e-04  1.541678e-07
    376    377   2   0.50000     0.1150000    0.1150000   5.042375e-05  1.012808e-08
    329    379   2   0.50000     0.1380000    0.1150000   2.431434e-04  1.541678e-07
    378    326   2   0.50000     0.1150000    0.0850000   2.431434e-04  1.541678e-07
    378    379   2   0.50000     0.1150000    0.1150000   5.042375e-05  1.012808e-08
    349    382   2   0.50000    -0.1700000   -0.1150000   9.038862e-04  9.862632e-07
    349    412   2   0.50000    -0.1700000    0.1150000   1.874504e-04  6.479276e-08
    411    382   2   0.50000    -0.1150000   -0.1150000   1.172438e-03  2.346713e-06
    411    412   2   0.50000    -0.1150000    0.1150000   2.431434e-04  1.541678e-07
    349    410   2   0.50000    -0.1700000   -0.1150000   9.038862e-04  9.862632e-07
    349    433   2   0.50000    -0.1700000    0.1150000   1.874504e-04  6.479276e-08
    381    410   2   0.50000    -0.1150000   -0.1150000   1.172438e-03  2.346713e-06
    381    433   2   0.50000    -0.1150000    0.1150000   2.431434e-04  1.541678e-07
    380    383   2   0.50000     0.0850000    0.1380000   1.172438e-03  2.346713e-06
    380    413   2   0.50000     0.0850000    0.1150000   2.431434e-04  1.541678e-07
    412    383   2   0.50000     0.1150000    0.1380000   2.431434e-04  1.541678e-07
    412    413   2   0.50000     0.1150000    0.1150000   5.042375e-05  1.012808e-08
    381    384   2   0.50000    -0.1150000    0.7840000   2.215699e-03  4.434870e-06
    413    384   2   0.50000     0.1150000    0.7840000   4.594978e-04  2.913497e-07
    413    410   2   0.50000     0.1150000   -0.1150000   2.431434e-04  1.541678e-07
    382    385   2   0.50000    -0.1150000   -0.5300000   1.059145e-03  1.228897e-06
    382    386   2   0.50000    -0.1150000   -0.5300000   1.059145e-03  1.228897e-06
    382    387   2   0.50000    -0.1150000    0.1380000   1.172438e-03  2.346713e-06
    410    385   2   0.50000    -0.1150000   -0.5300000   1.059145e-03  1.228897e-06
    410    386   2   0.50000    -0.1150000   -0.5300000   1.059145e-03  1.228897e-06
    410    387   2   0.50000    -0.1150000    0.1380000   1.172438e-03  2.346713e-06
    382    432   2   0.50000    -0.1150000    0.1150000   2.431434e-04  1.541678e-07
    384    411   2   0.50000     0.7840000   -0.1150000   2.215699e-03  4.434870e-06
    384    432   2   0.50000     0.7840000    0.1150000   4.594978e-04  2.913497e-07
    383    388   2   0.50000     0.1380000   -0.1150000   1.172438e-03  2.346713e-06
    383    409   2   0.50000     0.1380000   -0.1150000   1.172438e-03  2.346713e-06
    385    388   2   0.50000    -0.5300000   -0.1150000   1.059145e-03  1.228897e-06
    385    409   2   0.50000    -0.5300000   -0.1150000   1.059145e-03  1.228897e-06
    386    388   2   0.50000    -0.5300000   -0.1150000   1.059145e-03  1.228897e-06
    386    409   2   0.50000    -0.5300000   -0.1150000   1.059145e-03  1.228897e-06
    384    389   2   0.50000     0.7840000   -0.1150000   2.215699e-03  4.434870e-06
    384    414   2   0.50000     0.7840000    0.1150000   4.594978e-04  2.913497e-07
    409    389   2   0.50000    -0.1150000   -0.1150000   1.172438e-03  2.346713e-06
    409    414   2   0.50000    -0.1150000    0.1150000   2.431434e-04  1.541678e-07
    384    408   2   0.50000     0.7840000   -0.1150000   2.215699e-03  4.434870e-06
    384    431   2   0.50000     0.7840000    0.1150000   4.594978e-04  2.913497e-07
    388    408   2   0.50000    -0.1150000   -0.1150000   1.172438e-03  2.346713e-06
    388    431   2   0.50000    -0.1150000    0.1150000   2.431434e-04  1.541678e-07
    387    390   2   0.50000     0.1380000    0.0850000   1.172438e-03  2.346713e-06
    387    415   2   0.50000     0.1380000    0.1150000   2.431434e-04  1.541678e-07
    414    390   2   0.50000     0.1150000    0.0850000   2.431434e-04  1.541678e-07
    414    415   2   0.50000     0.1150000    0.1150000   5.042375e-05  1.012808e-08
    388    391   2   0.50000    -0.1150000   -0.1700000   9.038862e-04  9.862632e-07
    415    391   2   0.50000     0.1150000   -0.1700000   1.874504e-04  6.479276e-08
    415    408   2   0.50000     0.1150000   -0.1150000   2.431434e-04  1.541678e-07
    389    392   2   0.50000    -0.1150000    0.0850000   1.172438e-03  2.346713e-06
    408    392   2   0.50000    -0.1150000    0.0850000   1.172438e-03  2.346713e-06
    389    430   2   0.50000    -0.1150000    0.1150000   2.431434e-04  1.541678e-07
    391    409   2   0.50000    -0.1700000   -0.1150000   9.038862e-04  9.862632e-07
    391    430   2   0.50000    -0.1700000    0.1150000   1.874504e-04  6.479276e-08
    390    393   2   0.50000     0.0850000   -0.1150000   1.172438e-03  2.346713e-06
    390    407   2   0.50000     0.0850000   -0.1150000   1.172438e-03  2.346713e-06
    391    394   2   0.50000    -0.1700000   -0.1150000   9.038862e-04  9.862632e-07
    391    416   2   0.50000    -0.1700000    0.1150000   1.874504e-04  6.479276e-08
    407    394   2   0.50000    -0.1150000   -0.1150000   1.172438e-03  2.346713e-06
    407    416   2   0.50000    -0.1150000    0.1150000   2.431434e-04  1.541678e-07
    391    406   2   0.50000    -0.1700000   -0.1150000   9.038862e-04  9.862632e-07
    391    429   2   0.50000    -0.1700000    0.1150000   1.874504e-04  6.479276e-08
    393    406   2   0.50000    -0.1150000   -0.1150000   1.172438e-03  2.346713e-06
    393    429   2   0.50000    -0.1150000    0.1150000   2.431434e-04  1.541678e-07
    392    395   2   0.50000     0.0850000   -0.1150000   1.172438e-03  2.346713e-06
    392    417   2   0.50000     0.0850000    0.1150000   2.431434e-04  1.541678e-07
    416    395   2   0.50000     0.1150000   -0.1150000   2.431434e-04  1.541678e-07
    416    417   2   0.50000     0.1150000    0.1150000   5.042375e-05  1.012808e-08
    393    396   2   0.50000    -0.1150000    0.2300000   1.091018e-03  2.092768e-06
    417    396   2   0.50000     0.1150000    0.2300000   2.262583e-04  1.374848e-07
    417    406   2   0.50000     0.1150000   -0.1150000   2.431434e-04  1.541678e-07
    394    397   2   0.50000    -0.1150000   -0.1800000   1.091018e-03  2.092768e-06
    394    398   2   0.50000    -0.1150000   -0.1800000   1.091018e-03  2.092768e-06
    394    399   2   0.50000    -0.1150000   -0.1150000   1.172438e-03  2.346713e-06
    406    397   2   0.50000    -0.1150000   -0.1800000   1.091018e-03  2.092768e-06
    406    398   2   0.50000    -0.1150000   -0.1800000   1.091018e-03  2.092768e-06
    406    399   2   0.50000    -0.1150000   -0.1150000   1.172438e-03  2.346713e-06
    394    428   2   0.50000    -0.1150000    0.1150000   2.431434e-04  1.541678e-07
    396    407   2   0.50000     0.2300000   -0.1150000   1.091018e-03  2.092768e-06
    396    428   2   0.50000     0.2300000    0.1150000   2.262583e-04  1.374848e-07
    395    418   2   0.50000    -0.1150000    0.0600000   2.680627e-04  1.873879e-07
    395    419   2   0.50000    -0.1150000    0.0600000   2.680627e-04  1.873879e-07
    395    420   2   0.50000    -0.1150000    0.0600000   2.680627e-04  1.873879e-07
    398    418   2   0.50000    -0.1800000    0.0600000   2.494471e-04  1.671101e-07
    398    419   2   0.50000    -0.1800000    0.0600000   2.494471e-04  1.671101e-07
    398    420   2   0.50000    -0.1800000    0.0600000   2.494471e-04  1.671101e-07
    399    418   2   0.50000    -0.1150000    0.0600000   2.680627e-04  1.873879e-07
    399    419   2   0.50000    -0.1150000    0.0600000   2.680627e-04  1.873879e-07
    399    420   2   0.50000    -0.1150000    0.0600000   2.680627e-04  1.873879e-07
    395    421   2   0.50000    -0.1150000    0.0600000   2.680627e-04  1.873879e-07
    395    422   2   0.50000    -0.1150000    0.0600000   2.680627e-04  1.873879e-07
    395    423   2   0.50000    -0.1150000    0.0600000   2.680627e-04  1.873879e-07
    397    421   2   0.50000    -0.1800000    0.0600000   2.494471e-04  1.671101e-07
    397    422   2   0.50000    -0.1800000    0.0600000   2.494471e-04  1.671101e-07
    397    423   2   0.50000    -0.1800000    0.0600000   2.494471e-04  1.671101e-07
    399    421   2   0.50000    -0.1150000    0.0600000   2.680627e-04  1.873879e-07
    399    422   2   0.50000    -0.1150000    0.0600000   2.680627e-04  1.873879e-07
    399    423   2   0.50000    -0.1150000    0.0600000   2.680627e-04  1.873879e-07
    395    400   2   0.50000    -0.1150000   -0.1150000   1.172438e-03  2.346713e-06
    395    405   2   0.50000    -0.1150000   -0.1150000   1.172438e-03  2.346713e-06
    397    400   2   0.50000    -0.1800000   -0.1150000   1.091018e-03  2.092768e-06
    397    405   2   0.50000    -0.1800000   -0.1150000   1.091018e-03  2.092768e-06
    398    400   2   0.50000    -0.1800000   -0.1150000   1.091018e-03  2.092768e-06
    398    405   2   0.50000    -0.1800000   -0.1150000   1.091018e-03  2.092768e-06
    396    401   2   0.50000     0.2300000   -0.1150000   1.091018e-03  2.092768e-06
    396    424   2   0.50000     0.2300000    0.1150000   2.262583e-04  1.374848e-07
    405    401   2   0.50000    -0.1150000   -0.1150000   1.172438e-03  2.346713e-06
    405    424   2   0.50000    -0.1150000    0.1150000   2.431434e-04  1.541678e-07
    396    404   2   0.50000     0.2300000   -0.1150000   1.091018e-03  2.092768e-06
    396    427   2   0.50000     0.2300000    0.1150000   2.262583e-04  1.374848e-07
    400    404   2   0.50000    -0.1150000   -0.1150000   1.172438e-03  2.346713e-06
    400    427   2   0.50000    -0.1150000    0.1150000   2.431434e-04  1.541678e-07
    399    402   2   0.50000    -0.1150000    0.0850000   1.172438e-03  2.346713e-06
    399    425   2   0.50000    -0.1150000    0.1150000   2.431434e-04  1.541678e-07
    424    402   2   0.50000     0.1150000    0.0850000   2.431434e-04  1.541678e-07
    424    425   2   0.50000     0.1150000    0.1150000   5.042375e-05  1.012808e-08
    400    403   2   0.50000    -0.1150000   -0.1700000   9.038862e-04  9.862632e-07
    425    403   2   0.50000     0.1150000   -0.1700000   1.874504e-04  6.479276e-08
    425    404   2   0.50000     0.1150000   -0.1150000   2.431434e-04  1.541678e-07
    401    434   2   0.50000    -0.1150000    0.0850000   1.172438e-03  2.346713e-06
    404    434   2   0.50000    -0.1150000    0.0850000   1.172438e-03  2.346713e-06
    401    426   2   0.50000    -0.1150000    0.1150000   2.431434e-04  1.541678e-07
    403    405   2   0.50000    -0.1700000   -0.1150000   9.038862e-04  9.862632e-07
    403    426   2   0.50000    -0.1700000    0.1150000   1.874504e-04  6.479276e-08
    402    435   2   0.50000     0.0850000   -0.1150000   1.172438e-03  2.346713e-06
    402    465   2   0.50000     0.0850000   -0.1150000   1.172438e-03  2.346713e-06
    402    427   2   0.50000     0.0850000    0.1150000   2.431434e-04  1.541678e-07
    426    399   2   0.50000     0.1150000   -0.1150000   2.431434e-04  1.541678e-07
    426    427   2   0.50000     0.1150000    0.1150000   5.042375e-05  1.012808e-08
    395    429   2   0.50000    -0.1150000    0.1150000   2.431434e-04  1.541678e-07
    428    392   2   0.50000     0.1150000    0.0850000   2.431434e-04  1.541678e-07
    428    429   2   0.50000     0.1150000    0.1150000   5.042375e-05  1.012808e-08
    390    431   2   0.50000     0.0850000    0.1150000   2.431434e-04  1.541678e-07
    430    387   2   0.50000     0.1150000    0.1380000   2.431434e-04  1.541678e-07
    430    431   2   0.50000     0.1150000    0.1150000   5.042375e-05  1.012808e-08
    383    433   2   0.50000     0.1380000    0.1150000   2.431434e-04  1.541678e-07
    432    380   2   0.50000     0.1150000    0.0850000   2.431434e-04  1.541678e-07
    432    433   2   0.50000     0.1150000    0.1150000   5.042375e-05  1.012808e-08
    403    436   2   0.50000    -0.1700000   -0.1150000   9.038862e-04  9.862632e-07
    403    466   2   0.50000    -0.1700000    0.1150000   1.874504e-04  6.479276e-08
    465    436   2   0.50000    -0.1150000   -0.1150000   1.172438e-03  2.346713e-06
    465    466   2   0.50000    -0.1150000    0.1150000   2.431434e-04  1.541678e-07
    403    464   2   0.50000    -0.1700000   -0.1150000   9.038862e-04  9.862632e-07
    403    487   2   0.50000    -0.1700000    0.1150000   1.874504e-04  6.479276e-08
    435    464   2   0.50000    -0.1150000   -0.1150000   1.172438e-03  2.346713e-06
    435    487   2   0.50000    -0.1150000    0.1150000   2.431434e-04  1.541678e-07
    434    437   2   0.50000     0.0850000    0.1380000   1.172438e-03  2.346713e-06
    434    467   2   0.50000     0.0850000    0.1150000   2.431434e-04  1.541678e-07
    466    437   2   0.50000     0.1150000    0.1380000   2.431434e-04  1.541678e-07
    466    467   2   0.50000     0.1150000    0.1150000   5.042375e-05  1.012808e-08
    435    438   2   0.50000    -0.1150000    0.7840000   2.215699e-03  4.434870e-06
    467    438   2   0.50000     0.1150000    0.7840000   4.594978e-04  2.913497e-07
    467    464   2   0.50000     0.1150000   -0.1150000   2.431434e-04  1.541678e-07
    436    439   2   0.50000    -0.1150000   -0.5300000   1.059145e-03  1.228897e-06
    436    440   2   0.50000    -0.1150000   -0.5300000   1.059145e-03  1.228897e-06
    436    441   2   0.50000    -0.1150000    0.1380000   1.172438e-03  2.346713e-06
    464    439   2   0.50000    -0.1150000   -0.5300000   1.059145e-03  1.228897e-06
    464    440   2   0.50000    -0.1150000   -0.5300000   1.059145e-03  1.228897e-06
    464    441   2   0.50000    -0.1150000    0.1380000   1.172438e-03  2.346713e-06
    436    486   2   0.50000    -0.1150000    0.1150000   2.431434e-04  1.541678e-07
    438    465   2   0.50000     0.7840000   -0.1150000   2.215699e-03  4.434870e-06
    438    486   2   0.50000     0.7840000    0.1150000   4.594978e-04  2.913497e-07
    437    442   2   0.50000     0.1380000   -0.1150000   1.172438e-03  2.346713e-06
    437    463   2   0.50000     0.1380000   -0.1150000   1.172438e-03  2.346713e-06
    439    442   2   0.50000    -0.5300000   -0.1150000   1.059145e-03  1.228897e-06
    439    463   2   0.50000    -0.5300000   -0.1150000   1.059145e-03  1.228897e-06
    440    442   2   0.50000    -0.5300000   -0.1150000   1.059145e-03  1.228897e-06
    440    463   2   0.50000    -0.5300000   -0.1150000   1.059145e-03  1.228897e-06
    438    443   2   0.50000     0.7840000   -0.1150000   2.215699e-03  4.434870e-06
    438    468   2   0.50000     0.7840000    0.1150000   4.594978e-04  2.913497e-07
    463    443   2   0.50000    -0.1150000   -0.1150000   1.172438e-03  2.346713e-06
    463    468   2   0.50000    -0.1150000    0.1150000   2.431434e-04  1.541678e-07
    438    462   2   0.50000     0.7840000   -0.1150000   2.215699e-03  4.434870e-06
    438    485   2   0.50000     0.7840000    0.1150000   4.594978e-04  2.913497e-07
    442    462   2   0.50000    -0.1150000   -0.1150000   1.172438e-03  2.346713e-06
    442    485   2   0.50000    -0.1150000    0.1150000   2.431434e-04  1.541678e-07
    441    444   2   0.50000     0.1380000    0.0850000   1.172438e-03  2.346713e-06
    441    469   2   0.50000     0.1380000    0.1150000   2.431434e-04  1.541678e-07
    468    444   2   0.50000     0.1150000    0.0850000   2.431434e-04  1.541678e-07
    468    469   2   0.50000     0.1150000    0.1150000   5.042375e-05  1.012808e-08
    442    445   2   0.50000    -0.1150000   -0.1700000   9.038862e-04  9.862632e-07
    469    445   2   0.50000     0.1150000   -0.1700000   1.874504e-04  6.479276e-08
    469    462   2   0.50000     0.1150000   -0.1150000   2.431434e-04  1.541678e-07
    443    446   2   0.50000    -0.1150000    0.0850000   1.172438e-03  2.346713e-06
    462    446   2   0.50000    -0.1150000    0.0850000   1.172438e-03  2.346713e-06
    443    484   2   0.50000    -0.1150000    0.1150000   2.431434e-04  1.541678e-07
    445    463   2   0.50000    -0.1700000   -0.1150000   9.038862e-04  9.862632e-07
    445    484   2   0.50000    -0.1700000    0.1150000   1.874504e-04  6.479276e-08
    444    447   2   0.50000     0.0850000   -0.1150000   1.172438e-03  2.346713e-06
    444    461   2   0.50000     0.0850000   -0.1150000   1.172438e-03  2.346713e-06
    445    448   2   0.50000    -0.1700000   -0.1150000   9.038862e-04  9.862632e-07
    445    470   2   0.50000    -0.1700000    0.1150000   1.874504e-04  6.479276e-08
    461    448   2   0.50000    -0.1150000   -0.1150000   1.172438e-03  2.346713e-06
    461    470   2   0.50000    -0.1150000    0.1150000   2.431434e-04  1.541678e-07
    445    460   2   0.50000    -0.1700000   -0.1150000   9.038862e-04  9.862632e-07
    445    483   2   0.50000    -0.1700000    0.1150000   1.874504e-04  6.479276e-08
    447    460   2   0.50000    -0.1150000   -0.1150000   1.172438e-03  2.346713e-06
    447    483   2   0.50000    -0.1150000    0.1150000   2.431434e-04  1.541678e-07
    446    449   2   0.50000     0.0850000   -0.1150000   1.172438e-03  2.346713e-06
    446    471   2   0.50000     0.0850000    0.1150000   2.431434e-04  1.541678e-07
    470    449   2   0.50000     0.1150000   -0.1150000   2.431434e-04  1.541678e-07
    470    471   2   0.50000     0.1150000    0.1150000   5.042375e-05  1.012808e-08
    447    450   2   0.50000    -0.1150000    0.2300000   1.091018e-03  2.092768e-06
    471    450   2   0.50000     0.1150000    0.2300000   2.262583e-04  1.374848e-07
    471    460   2   0.50000     0.1150000   -0.1150000   2.431434e-04  1.541678e-07
    448    451   2   0.50000    -0.1150000   -0.1800000   1.091018e-03  2.092768e-06
    448    452   2   0.50000    -0.1150000   -0.1800000   1.091018e-03  2.092768e-06
    448    453   2   0.50000    -0.1150000   -0.1150000   1.172438e-03  2.346713e-06
    460    451   2   0.50000    -0.1150000   -0.1800000   1.091018e-03  2.092768e-06
    460    452   2   0.50000    -0.1150000   -0.1800000   1.091018e-03  2.092768e-06
    460    453   2   0.50000    -0.1150000   -0.1150000   1.172438e-03  2.346713e-06
    448    482   2   0.50000    -0.1150000    0.1150000   2.431434e-04  1.541678e-07
    450    461   2   0.50000     0.2300000   -0.1150000   1.091018e-03  2.092768e-06
    450    482   2   0.50000     0.2300000    0.1150000   2.262583e-04  1.374848e-07
    449    472   2   0.50000    -0.1150000    0.0600000   2.680627e-04  1.873879e-07
    449    473   2   0.50000    -0.1150000    0.0600000   2.680627e-04  1.873879e-07
    449    474   2   0.50000    -0.1150000    0.0600000   2.680627e-04  1.873879e-07
    452    472   2   0.50000    -0.1800000    0.0600000   2.494471e-04  1.671101e-07
    452    473   2   0.50000    -0.1800000    0.0600000   2.494471e-04  1.671101e-07
    452    474   2   0.50000    -0.1800000    0.0600000   2.494471e-04  1.671101e-07
    453    472   2   0.50000    -0.1150000    0.0600000   2.680627e-04  1.873879e-07
    453    473   2   0.50000    -0.1150000    0.0600000   2.680627e-04  1.873879e-07
    453    474   2   0.50000    -0.1150000    0.0600000   2.680627e-04  1.873879e-07
    449    475   2   0.50000    -0.1150000    0.0600000   2.680627e-04  1.873879e-07
    449    476   2   0.50000    -0.1150000    0.0600000   2.680627e-04  1.873879e-07
    449    477   2   0.50000    -0.1150000    0.0600000   2.680627e-04  1.873879e-07
    451    475   2   0.50000    -0.1800000    0.0600000   2.494471e-04  1.671101e-07
    451    476   2   0.50000    -0.1800000    0.0600000   2.494471e-04  1.671101e-07
    451    477   2   0.50000    -0.1800000    0.0600000   2.494471e-04  1.671101e-07
    453    475   2   0.50000    -0.1150000    0.0600000   2.680627e-04  1.873879e-07
    453    476   2   0.50000    -0.1150000    0.0600000   2.680627e-04  1.873879e-07
    453    477   2   0.50000    -0.1150000    0.0600000   2.680627e-04  1.873879e-07
    449    454   2   0.50000    -0.1150000   -0.1150000   1.172438e-03  2.346713e-06
    449    459   2   0.50000    -0.1150000   -0.1150000   1.172438e-03  2.346713e-06
    451    454   2   0.50000    -0.1800000   -0.1150000   1.091018e-03  2.092768e-06
    451    459   2   0.50000    -0.1800000   -0.1150000   1.091018e-03  2.092768e-06
    452    454   2   0.50000    -0.1800000   -0.1150000   1.091018e-03  2.092768e-06
    452    459   2   0.50000    -0.1800000   -0.1150000   1.091018e-03  2.092768e-06
    450    455   2   0.50000     0.2300000   -0.1150000   1.091018e-03  2.092768e-06
    450    478   2   0.50000     0.2300000    0.1150000   2.262583e-04  1.374848e-07
    459    455   2   0.50000    -0.1150000   -0.1150000   1.172438e-03  2.346713e-06
    459    478   2   0.50000    -0.1150000    0.1150000   2.431434e-04  1.541678e-07
    450    458   2   0.50000     0.2300000   -0.1150000   1.091018e-03  2.092768e-06
    450    481   2   0.50000     0.2300000    0.1150000   2.262583e-04  1.374848e-07
    454    458   2   0.50000    -0.1150000   -0.1150000   1.172438e-03  2.346713e-06
    454    481   2   0.50000    -0.1150000    0.1150000   2.431434e-04  1.541678e-07
    453    456   2   0.50000    -0.1150000    0.0850000   1.172438e-03  2.346713e-06
    453    479   2   0.50000    -0.1150000    0.1150000   2.431434e-04  1.541678e-07
    478    456   2   0.50000     0.1150000    0.0850000   2.431434e-04  1.541678e-07
    478    479   2   0.50000     0.1150000    0.1150000   5.042375e-05  1.012808e-08
    454    457   2   0.50000    -0.1150000   -0.1700000   9.038862e-04  9.862632e-07
    479    457   2   0.50000     0.1150000   -0.1700000   1.874504e-04  6.479276e-08
    479    458   2   0.50000     0.1150000   -0.1150000   2.431434e-04  1.541678e-07
    455    488   2   0.50000    -0.1150000    0.0850000   1.172438e-03  2.346713e-06
    458    488   2   0.50000    -0.1150000    0.0850000   1.172438e-03  2.346713e-06
    455    480   2   0.50000    -0.1150000    0.1150000   2.431434e-04  1.541678e-07
    457    459   2   0.50000    -0.1700000   -0.1150000   9.038862e-04  9.862632e-07
    457    480   2   0.50000    -0.1700000    0.1150000   1.874504e-04  6.479276e-08
    456    489   2   0.50000     0.0850000   -0.1150000   1.172438e-03  2.346713e-06
    456    519   2   0.50000     0.0850000   -0.1150000   1.172438e-03  2.346713e-06
    456    481   2   0.50000     0.0850000    0.1150000   2.431434e-04  1.541678e-07
    480    453   2   0.50000     0.1150000   -0.1150000   2.431434e-04  1.541678e-07
    480    481   2   0.50000     0.1150000    0.1150000   5.042375e-05  1.012808e-08
    449    483   2   0.50000    -0.1150000    0.1150000   2.431434e-04  1.541678e-07
    482    446   2   0.50000     0.1150000    0.0850000   2.431434e-04  1.541678e-07
    482    483   2   0.50000     0.1150000    0.1150000   5.042375e-05  1.012808e-08
    444    485   2   0.50000     0.0850000    0.1150000   2.431434e-04  1.541678e-07
    484    441   2   0.50000     0.1150000    0.1380000   2.431434e-04  1.541678e-07
    484    485   2   0.50000     0.1150000    0.1150000   5.042375e-05  1.012808e-08
    437    487   2   0.50000     0.1380000    0.1150000   2.431434e-04  1.541678e-07
    486    434   2   0.50000     0.1150000    0.0850000   2.431434e-04  1.541678e-07
    486    487   2   0.50000     0.1150000    0.1150000   5.042375e-05  1.012808e-08
    457    490   2   0.50000    -0.1700000   -0.1150000   9.038862e-04  9.862632e-07
    457    520   2   0.50000    -0.1700000    0.1150000   1.874504e-04  6.479276e-08
    519    490   2   0.50000    -0.1150000   -0.1150000   1.172438e-03  2.346713e-06
    519    520   2   0.50000    -0.1150000    0.1150000   2.431434e-04  1.541678e-07
    457    518   2   0.50000    -0.1700000   -0.1150000   9.038862e-04  9.862632e-07
    457    541   2   0.50000    -0.1700000    0.1150000   1.874504e-04  6.479276e-08
    489    518   2   0.50000    -0.1150000   -0.1150000   1.172438e-03  2.346713e-06
    489    541   2   0.50000    -0.1150000    0.1150000   2.431434e-04  1.541678e-07
    488    491   2   0.50000     0.0850000    0.1380000   1.172438e-03  2.346713e-06
    488    521   2   0.50000     0.0850000    0.1150000   2.431434e-04  1.541678e-07
    520    491   2   0.50000     0.1150000    0.1380000   2.431434e-04  1.541678e-07
    520    521   2   0.50000     0.1150000    0.1150000   5.042375e-05  1.012808e-08
    489    492   2   0.50000    -0.1150000    0.7840000   2.215699e-03  4.434870e-06
    521    492   2   0.50000     0.1150000    0.7840000   4.594978e-04  2.913497e-07
    521    518   2   0.50000     0.1150000   -0.1150000   2.431434e-04  1.541678e-07
    490    493   2   0.50000    -0.1150000   -0.5300000   1.059145e-03  1.228897e-06
    490    494   2   0.50000    -0.1150000   -0.5300000   1.059145e-03  1.228897e-06
    490    495   2   0.50000    -0.1150000    0.1380000   1.172438e-03  2.346713e-06
    518    493   2   0.50000    -0.1150000   -0.5300000   1.059145e-03  1.228897e-06
    518    494   2   0.50000    -0.1150000   -0.5300000   1.059145e-03  1.228897e-06
    518    495   2   0.50000    -0.1150000    0.1380000   1.172438e-03  2.346713e-06
    490    540   2   0.50000    -0.1150000    0.1150000   2.431434e-04  1.541678e-07
    492    519   2   0.50000     0.7840000   -0.1150000   2.215699e-03  4.434870e-06
    492    540   2   0.50000     0.7840000    0.1150000   4.594978e-04  2.913497e-07
    491    496   2   0.50000     0.1380000   -0.1150000   1.172438e-03  2.346713e-06
    491    517   2   0.50000     0.1380000   -0.1150000   1.172438e-03  2.346713e-06
    493    496   2   0.50000    -0.5300000   -0.1150000   1.059145e-03  1.228897e-06
    493    517   2   0.50000    -0.5300000   -0.1150000   1.059145e-03  1.228897e-06
    494    496   2   0.50000    -0.5300000   -0.1150000   1.059145e-03  1.228897e-06
    494    517   2   0.50000    -0.5300000   -0.1150000   1.059145e-03  1.228897e-06
    492    497   2   0.50000     0.7840000   -0.1150000   2.215699e-03  4.434870e-06
    492    522   2   0.50000     0.7840000    0.1150000   4.594978e-04  2.913497e-07
    517    497   2   0.50000    -0.1150000   -0.1150000   1.172438e-03  2.346713e-06
    517    522   2   0.50000    -0.1150000    0.1150000   2.431434e-04  1.541678e-07
    492    516   2   0.50000     0.7840000   -0.1150000   2.215699e-03  4.434870e-06
    492    539   2   0.50000     0.7840000    0.1150000   4.594978e-04  2.913497e-07
    496    516   2   0.50000    -0.1150000   -0.1150000   1.172438e-03  2.346713e-06
    496    539   2   0.50000    -0.1150000    0.1150000   2.431434e-04  1.541678e-07
    495    498   2   0.50000     0.1380000    0.0850000   1.172438e-03  2.346713e-06
    495    523   2   0.50000     0.1380000    0.1150000   2.431434e-04  1.541678e-07
    522    498   2   0.50000     0.1150000    0.0850000   2.431434e-04  1.541678e-07
    522    523   2   0.50000     0.1150000    0.1150000   5.042375e-05  1.012808e-08
    496    499   2   0.50000    -0.1150000   -0.1700000   9.038862e-04  9.862632e-07
    523    499   2   0.50000     0.1150000   -0.1700000   1.874504e-04  6.479276e-08
    523    516   2   0.50000     0.1150000   -0.1150000   2.431434e-04  1.541678e-07
    497    500   2   0.50000    -0.1150000    0.0850000   1.172438e-03  2.346713e-06
    516    500   2   0.50000    -0.1150000    0.0850000   1.172438e-03  2.346713e-06
    497    538   2   0.50000    -0.1150000    0.1150000   2.431434e-04  1.541678e-07
    499    517   2   0.50000    -0.1700000   -0.1150000   9.038862e-04  9.862632e-07
    499    538   2   0.50000    -0.1700000    0.1150000   1.874504e-04  6.479276e-08
    498    501   2   0.50000     0.0850000   -0.1150000   1.172438e-03  2.346713e-06
    498    515   2   0.50000     0.0850000   -0.1150000   1.172438e-03  2.346713e-06
    499    502   2   0.50000    -0.1700000   -0.1150000   9.038862e-04  9.862632e-07
    499    524   2   0.50000    -0.1700000    0.1150000   1.874504e-04  6.479276e-08
    515    502   2   0.50000    -0.1150000   -0.1150000   1.172438e-03  2.346713e-06
    515    524   2   0.50000    -0.1150000    0.1150000   2.431434e-04  1.541678e-07
    499    514   2   0.50000    -0.1700000   -0.1150000   9.038862e-04  9.862632e-07
    499    537   2   0.50000    -0.1700000    0.1150000   1.874504e-04  6.479276e-08
    501    514   2   0.50000    -0.1150000   -0.1150000   1.172438e-03  2.346713e-06
    501    537   2   0.50000    -0.1150000    0.1150000   2.431434e-04  1.541678e-07
    500    503   2   0.50000     0.0850000   -0.1150000   1.172438e-03  2.346713e-06
    500    525   2   0.50000     0.0850000    0.1150000   2.431434e-04  1.541678e-07
    524    503   2   0.50000     0.1150000   -0.1150000   2.431434e-04  1.541678e-07
    524    525   2   0.50000     0.1150000    0.1150000   5.042375e-05  1.012808e-08
    501    504   2   0.50000    -0.1150000    0.2300000   1.091018e-03  2.092768e-06
    525    504   2   0.50000     0.1150000    0.2300000   2.262583e-04  1.374848e-07
    525    514   2   0.50000     0.1150000   -0.1150000   2.431434e-04  1.541678e-07
    502    505   2   0.50000    -0.1150000   -0.1800000   1.091018e-03  2.092768e-06
    502    506   2   0.50000    -0.1150000   -0.1800000   1.091018e-03  2.092768e-06
    502    507   2   0.50000    -0.1150000   -0.1150000   1.172438e-03  2.346713e-06
    514    505   2   0.50000    -0.1150000   -0.1800000   1.091018e-03  2.092768e-06
    514    506   2   0.50000    -0.1150000   -0.1800000   1.091018e-03  2.092768e-06
    514    507   2   0.50000    -0.1150000   -0.1150000   1.172438e-03  2.346713e-06
    502    536   2   0.50000    -0.1150000    0.1150000   2.431434e-04  1.541678e-07
    504    515   2   0.50000     0.2300000   -0.1150000   1.091018e-03  2.092768e-06
    504    536   2   0.50000     0.2300000    0.1150000   2.262583e-04  1.374848e-07
    503    526   2   0.50000    -0.1150000    0.0600000   2.680627e-04  1.873879e-07
    503    527   2   0.50000    -0.1150000    0.0600000   2.680627e-04  1.873879e-07
    503    528   2   0.50000    -0.1150000    0.0600000   2.680627e-04  1.873879e-07
    506    526   2   0.50000    -0.1800000    0.0600000   2.494471e-04  1.671101e-07
    506    527   2   0.50000    -0.1800000    0.0600000   2.494471e-04  1.671101e-07
    506    528   2   0.50000    -0.1800000    0.0600000   2.494471e-04  1.671101e-07
    507    526   2   0.50000    -0.1150000    0.0600000   2.680627e-04  1.873879e-07
    507    527   2   0.50000    -0.1150000    0.0600000   2.680627e-04  1.873879e-07
    507    528   2   0.50000    -0.1150000    0.0600000   2.680627e-04  1.873879e-07
    503    529   2   0.50000    -0.1150000    0.0600000   2.680627e-04  1.873879e-07
    503    530   2   0.50000    -0.1150000    0.0600000   2.680627e-04  1.873879e-07
    503    531   2   0.50000    -0.1150000    0.0600000   2.680627e-04  1.873879e-07
    505    529   2   0.50000    -0.1800000    0.0600000   2.494471e-04  1.671101e-07
    505    530   2   0.50000    -0.1800000    0.0600000   2.494471e-04  1.671101e-07
    505    531   2   0.50000    -0.1800000    0.0600000   2.494471e-04  1.671101e-07
    507    529   2   0.50000    -0.1150000    0.0600000   2.680627e-04  1.873879e-07
    507    530   2   0.50000    -0.1150000    0.0600000   2.680627e-04  1.873879e-07
    507    531   2   0.50000    -0.1150000    0.0600000   2.680627e-04  1.873879e-07
    503    508   2   0.50000    -0.1150000   -0.1150000   1.172438e-03  2.346713e-06
    503    513   2   0.50000    -0.1150000   -0.1150000   1.172438e-03  2.346713e-06
    505    508   2   0.50000    -0.1800000   -0.1150000   1.091018e-03  2.092768e-06
    505    513   2   0.50000    -0.1800000   -0.1150000   1.091018e-03  2.092768e-06
    506    508   2   0.50000    -0.1800000   -0.1150000   1.091018e-03  2.092768e-06
    506    513   2   0.50000    -0.1800000   -0.1150000   1.091018e-03  2.092768e-06
    504    509   2   0.50000     0.2300000   -0.1150000   1.091018e-03  2.092768e-06
    504    532   2   0.50000     0.2300000    0.1150000   2.262583e-04  1.374848e-07
    513    509   2   0.50000    -0.1150000   -0.1150000   1.172438e-03  2.346713e-06
    513    532   2   0.50000    -0.1150000    0.1150000   2.431434e-04  1.541678e-07
    504    512   2   0.50000     0.2300000   -0.1150000   1.091018e-03  2.092768e-06
    504    535   2   0.50000     0.2300000    0.1150000   2.262583e-04  1.374848e-07
    508    512   2   0.50000    -0.1150000   -0.1150000   1.172438e-03  2.346713e-06
    508    535   2   0.50000    -0.1150000    0.1150000   2.431434e-04  1.541678e-07
    507    510   2   0.50000    -0.1150000    0.0850000   1.172438e-03  2.346713e-06
    507    533   2   0.50000    -0.1150000    0.1150000   2.431434e-04  1.541678e-07
    532    510   2   0.50000     0.1150000    0.0850000   2.431434e-04  1.541678e-07
    532    533   2   0.50000     0.1150000    0.1150000   5.042375e-05  1.012808e-08
    508    511   2   0.50000    -0.1150000   -0.1700000   9.038862e-04  9.862632e-07
    533    511   2   0.50000     0.1150000   -0.1700000   1.874504e-04  6.479276e-08
    533    512   2   0.50000     0.1150000   -0.1150000   2.431434e-04  1.541678e-07
    509    542   2   0.50000    -0.1150000    0.0850000   1.172438e-03  2.346713e-06
    512    542   2   0.50000    -0.1150000    0.0850000   1.172438e-03  2.346713e-06
    509    534   2   0.50000    -0.1150000    0.1150000   2.431434e-04  1.541678e-07
    511    513   2   0.50000    -0.1700000   -0.1150000   9.038862e-04  9.862632e-07
    511    534   2   0.50000    -0.1700000    0.1150000   1.874504e-04  6.479276e-08
    510    543   2   0.50000     0.0850000   -0.1150000   1.172438e-03  2.346713e-06
    510    573   2   0.50000     0.0850000   -0.1150000   1.172438e-03  2.346713e-06
    510    535   2   0.50000     0.0850000    0.1150000   2.431434e-04  1.541678e-07
    534    507   2   0.50000     0.1150000   -0.1150000   2.431434e-04  1.541678e-07
    534    535   2   0.50000     0.1150000    0.1150000   5.042375e-05  1.012808e-08
    503    537   2   0.50000    -0.1150000    0.1150000   2.431434e-04  1.541678e-07
    536    500   2   0.50000     0.1150000    0.0850000   2.431434e-04  1.541678e-07
    536    537   2   0.50000     0.1150000    0.1150000   5.042375e-05  1.012808e-08
    498    539   2   0.50000     0.0850000    0.1150000   2.431434e-04  1.541678e-07
    538    495   2   0.50000     0.1150000    0.1380000   2.431434e-04  1.541678e-07
    538    539   2   0.50000     0.1150000    0.1150000   5.042375e-05  1.012808e-08
    491    541   2   0.50000     0.1380000    0.1150000   2.431434e-04  1.541678e-07
    540    488   2   0.50000     0.1150000    0.0850000   2.431434e-04  1.541678e-07
    540    541   2   0.50000     0.1150000    0.1150000   5.042375e-05  1.012808e-08
    511    544   2   0.50000    -0.1700000   -0.1150000   9.038862e-04  9.862632e-07
    511    574   2   0.50000    -0.1700000    0.1150000   1.874504e-04  6.479276e-08
    573    544   2   0.50000    -0.1150000   -0.1150000   1.172438e-03  2.346713e-06
    573    574   2   0.50000    -0.1150000    0.1150000   2.431434e-04  1.541678e-07
    511    572   2   0.50000    -0.1700000   -0.1150000   9.038862e-04  9.862632e-07
    511    595   2   0.50000    -0.1700000    0.1150000   1.874504e-04  6.479276e-08
    543    572   2   0.50000    -0.1150000   -0.1150000   1.172438e-03  2.346713e-06
    543    595   2   0.50000    -0.1150000    0.1150000   2.431434e-04  1.541678e-07
    542    545   2   0.50000     0.0850000    0.1380000   1.172438e-03  2.346713e-06
    542    575   2   0.50000     0.0850000    0.1150000   2.431434e-04  1.541678e-07
    574    545   2   0.50000     0.1150000    0.1380000   2.431434e-04  1.541678e-07
    574    575   2   0.50000     0.1150000    0.1150000   5.042375e-05  1.012808e-08
    543    546   2   0.50000    -0.1150000    0.7840000   2.215699e-03  4.434870e-06
    575    546   2   0.50000     0.1150000    0.7840000   4.594978e-04  2.913497e-07
    575    572   2   0.50000     0.1150000   -0.1150000   2.431434e-04  1.541678e-07
    544    547   2   0.50000    -0.1150000   -0.5300000   1.059145e-03  1.228897e-06
    544    548   2   0.50000    -0.1150000   -0.5300000   1.059145e-03  1.228897e-06
    544    549   2   0.50000    -0.1150000    0.1380000   1.172438e-03  2.346713e-06
    572    547   2   0.50000    -0.1150000   -0.5300000   1.059145e-03  1.228897e-06
    572    548   2   0.50000    -0.1150000   -0.5300000   1.059145e-03  1.228897e-06
    572    549   2   0.50000    -0.1150000    0.1380000   1.172438e-03  2.346713e-06
    544    594   2   0.50000    -0.1150000    0.1150000   2.431434e-04  1.541678e-07
    546    573   2   0.50000     0.7840000   -0.1150000   2.215699e-03  4.434870e-06
    546    594   2   0.50000     0.7840000    0.1150000   4.594978e-04  2.913497e-07
    545    550   2   0.50000     0.1380000   -0.1150000   1.172438e-03  2.346713e-06
    545    571   2   0.50000     0.1380000   -0.1150000   1.172438e-03  2.346713e-06
    547    550   2   0.50000    -0.5300000   -0.1150000   1.059145e-03  1.228897e-06
    547    571   2   0.50000    -0.5300000   -0.1150000   1.059145e-03  1.228897e-06
    548    550   2   0.50000    -0.5300000   -0.1150000   1.059145e-03  1.228897e-06
    548    571   2   0.50000    -0.5300000   -0.1150000   1.059145e-03  1.228897e-06
    546    551   2   0.50000     0.7840000   -0.1150000   2.215699e-03  4.434870e-06
    546    576   2   0.50000     0.7840000    0.1150000   4.594978e-04  2.913497e-07
    571    551   2   0.50000    -0.1150000   -0.1150000   1.172438e-03  2.346713e-06
    571    576   2   0.50000    -0.1150000    0.1150000   2.431434e-04  1.541678e-07
    546    570   2   0.50000     0.7840000   -0.1150000   2.215699e-03  4.434870e-06
    546    593   2   0.50000     0.7840000    0.1150000   4.594978e-04  2.913497e-07
    550    570   2   0.50000    -0.1150000   -0.1150000   1.172438e-03  2.346713e-06
    550    593   2   0.50000    -0.1150000    0.1150000   2.431434e-04  1.541678e-07
    549    552   2   0.50000     0.1380000    0.0850000   1.172438e-03  2.346713e-06
    549    577   2   0.50000     0.1380000    0.1150000   2.431434e-04  1.541678e-07
    576    552   2   0.50000     0.1150000    0.0850000   2.431434e-04  1.541678e-07
    576    577   2   0.50000     0.1150000    0.1150000   5.042375e-05  1.012808e-08
    550    553   2   0.50000    -0.1150000   -0.1700000   9.038862e-04  9.862632e-07
    577    553   2   0.50000     0.1150000   -0.1700000   1.874504e-04  6.479276e-08
    577    570   2   0.50000     0.1150000   -0.1150000   2.431434e-04  1.541678e-07
    551    554   2   0.50000    -0.1150000    0.0850000   1.172438e-03  2.346713e-06
    570    554   2   0.50000    -0.1150000    0.0850000   1.172438e-03  2.346713e-06
    551    592   2   0.50000    -0.1150000    0.1150000   2.431434e-04  1.541678e-07
    553    571   2   0.50000    -0.1700000   -0.1150000   9.038862e-04  9.862632e-07
    553    592   2   0.50000    -0.1700000    0.1150000   1.874504e-04  6.479276e-08
    552    555   2   0.50000     0.0850000   -0.1150000   1.172438e-03  2.346713e-06
    552    569   2   0.50000     0.0850000   -0.1150000   1.172438e-03  2.346713e-06
    553    556   2   0.50000    -0.1700000   -0.1150000   9.038862e-04  9.862632e-07
    553    578   2   0.50000    -0.1700000    0.1150000   1.874504e-04  6.479276e-08
    569    556   2   0.50000    -0.1150000   -0.1150000   1.172438e-03  2.346713e-06
    569    578   2   0.50000    -0.1150000    0.1150000   2.431434e-04  1.541678e-07
    553    568   2   0.50000    -0.1700000   -0.1150000   9.038862e-04  9.862632e-07
    553    591   2   0.50000    -0.1700000    0.1150000   1.874504e-04  6.479276e-08
    555    568   2   0.50000    -0.1150000   -0.1150000   1.172438e-03  2.346713e-06
    555    591   2   0.50000    -0.1150000    0.1150000   2.431434e-04  1.541678e-07
    554    557   2   0.50000     0.0850000   -0.1150000   1.172438e-03  2.346713e-06
    554    579   2   0.50000     0.0850000    0.1150000   2.431434e-04  1.541678e-07
    578    557   2   0.50000     0.1150000   -0.1150000   2.431434e-04  1.541678e-07
    578    579   2   0.50000     0.1150000    0.1150000   5.042375e-05  1.012808e-08
    555    558   2   0.50000    -0.1150000    0.2300000   1.091018e-03  2.092768e-06
    579    558   2   0.50000     0.1150000    0.2300000   2.262583e-04  1.374848e-07
    579    568   2   0.50000     0.1150000   -0.1150000   2.431434e-04  1.541678e-07
    556    559   2   0.50000    -0.1150000   -0.1800000   1.091018e-03  2.092768e-06
    556    560   2   0.50000    -0.1150000   -0.1800000   1.091018e-03  2.092768e-06
    556    561   2   0.50000    -0.1150000   -0.1150000   1.172438e-03  2.346713e-06
    568    559   2   0.50000    -0.1150000   -0.1800000   1.091018e-03  2.092768e-06
    568    560   2   0.50000    -0.1150000   -0.1800000   1.091018e-03  2.092768e-06
    568    561   2   0.50000    -0.1150000   -0.1150000   1.172438e-03  2.346713e-06
    556    590   2   0.50000    -0.1150000    0.1150000   2.431434e-04  1.541678e-07
    558    569   2   0.50000     0.2300000   -0.1150000   1.091018e-03  2.092768e-06
    558    590   2   0.50000     0.2300000    0.1150000   2.262583e-04  1.374848e-07
    557    580   2   0.50000    -0.1150000    0.0600000   2.680627e-04  1.873879e-07
    557    581   2   0.50000    -0.1150000    0.0600000   2.680627e-04  1.873879e-07
    557    582   2   0.50000    -0.1150000    0.0600000   2.680627e-04  1.873879e-07
    560    580   2   0.50000    -0.1800000    0.0600000   2.494471e-04  1.671101e-07
    560    581   2   0.50000    -0.1800000    0.0600000   2.494471e-04  1.671101e-07
    560    582   2   0.50000    -0.1800000    0.0600000   2.494471e-04  1.671101e-07
    561    580   2   0.50000    -0.1150000    0.0600000   2.680627e-04  1.873879e-07
    561    581   2   0.50000    -0.1150000    0.0600000   2.680627e-04  1.873879e-07
    561    582   2   0.50000    -0.1150000    0.0600000   2.680627e-04  1.873879e-07
    557    583   2   0.50000    -0.1150000    0.0600000   2.680627e-04  1.873879e-07
    557    584   2   0.50000    -0.1150000    0.0600000   2.680627e-04  1.873879e-07
    557    585   2   0.50000    -0.1150000    0.0600000   2.680627e-04  1.873879e-07
    559    583   2   0.50000    -0.1800000    0.0600000   2.494471e-04  1.671101e-07
    559    584   2   0.50000    -0.1800000    0.0600000   2.494471e-04  1.671101e-07
    559    585   2   0.50000    -0.1800000    0.0600000   2.494471e-04  1.671101e-07
    561    583   2   0.50000    -0.1150000    0.0600000   2.680627e-04  1.873879e-07
    561    584   2   0.50000    -0.1150000    0.0600000   2.680627e-04  1.873879e-07
    561    585   2   0.50000    -0.1150000    0.0600000   2.680627e-04  1.873879e-07
    557    562   2   0.50000    -0.1150000   -0.1150000   1.172438e-03  2.346713e-06
    557    567   2   0.50000    -0.1150000   -0.1150000   1.172438e-03  2.346713e-06
    559    562   2   0.50000    -0.1800000   -0.1150000   1.091018e-03  2.092768e-06
    559    567   2   0.50000    -0.1800000   -0.1150000   1.091018e-03  2.092768e-06
    560    562   2   0.50000    -0.1800000   -0.1150000   1.091018e-03  2.092768e-06
    560    567   2   0.50000    -0.1800000   -0.1150000   1.091018e-03  2.092768e-06
    558    563   2   0.50000     0.2300000   -0.1150000   1.091018e-03  2.092768e-06
    558    586   2   0.50000     0.2300000    0.1150000   2.262583e-04  1.374848e-07
    567    563   2   0.50000    -0.1150000   -0.1150000   1.172438e-03  2.346713e-06
    567    586   2   0.50000    -0.1150000    0.1150000   2.431434e-04  1.541678e-07
    558    566   2   0.50000     0.2300000   -0.1150000   1.091018e-03  2.092768e-06
    558    589   2   0.50000     0.2300000    0.1150000   2.262583e-04  1.374848e-07
    562    566   2   0.50000    -0.1150000   -0.1150000   1.172438e-03  2.346713e-06
    562    589   2   0.50000    -0.1150000    0.1150000   2.431434e-04  1.541678e-07
    561    564   2   0.50000    -0.1150000    0.0850000   1.172438e-03  2.346713e-06
    561    587   2   0.50000    -0.1150000    0.1150000   2.431434e-04  1.541678e-07
    586    564   2   0.50000     0.1150000    0.0850000   2.431434e-04  1.541678e-07
    586    587   2   0.50000     0.1150000    0.1150000   5.042375e-05  1.012808e-08
    562    565   2   0.50000    -0.1150000   -0.1700000   9.038862e-04  9.862632e-07
    587    565   2   0.50000     0.1150000   -0.1700000   1.874504e-04  6.479276e-08
    587    566   2   0.50000     0.1150000   -0.1150000   2.431434e-04  1.541678e-07
    563    596   2   0.50000    -0.1150000    0.0850000   1.172438e-03  2.346713e-06
    566    596   2   0.50000    -0.1150000    0.0850000   1.172438e-03  2.346713e-06
    563    588   2   0.50000    -0.1150000    0.1150000   2.431434e-04  1.541678e-07
    565    567   2   0.50000    -0.1700000   -0.1150000   9.038862e-04  9.862632e-07
    565    588   2   0.50000    -0.1700000    0.1150000   1.874504e-04  6.479276e-08
    564    597   2   0.50000     0.0850000   -0.1150000   1.172438e-03  2.346713e-06
    564    627   2   0.50000     0.0850000   -0.1150000   1.172438e-03  2.346713e-06
    564    589   2   0.50000     0.0850000    0.1150000   2.431434e-04  1.541678e-07
    588    561   2   0.50000     0.1150000   -0.1150000   2.431434e-04  1.541678e-07
    588    589   2   0.50000     0.1150000    0.1150000   5.042375e-05  1.012808e-08
    557    591   2   0.50000    -0.1150000    0.1150000   2.431434e-04  1.541678e-07
    590    554   2   0.50000     0.1150000    0.0850000   2.431434e-04  1.541678e-07
    590    591   2   0.50000     0.1150000    0.1150000   5.042375e-05  1.012808e-08
    552    593   2   0.50000     0.0850000    0.1150000   2.431434e-04  1.541678e-07
    592    549   2   0.50000     0.1150000    0.1380000   2.431434e-04  1.541678e-07
    592    593   2   0.50000     0.1150000    0.1150000   5.042375e-05  1.012808e-08
    545    595   2   0.50000     0.1380000    0.1150000   2.431434e-04  1.541678e-07
    594    542   2   0.50000     0.1150000    0.0850000   2.431434e-04  1.541678e-07
    594    595   2   0.50000     0.1150000    0.1150000   5.042375e-05  1.012808e-08
    565    598   2   0.50000    -0.1700000   -0.1150000   9.038862e-04  9.862632e-07
    565    628   2   0.50000    -0.1700000    0.1150000   1.874504e-04  6.479276e-08
    627    598   2   0.50000    -0.1150000   -0.1150000   1.172438e-03  2.346713e-06
    627    628   2   0.50000    -0.1150000    0.1150000   2.431434e-04  1.541678e-07
    565    626   2   0.50000    -0.1700000   -0.1150000   9.038862e-04  9.862632e-07
    565    649   2   0.50000    -0.1700000    0.1150000   1.874504e-04  6.479276e-08
    597    626   2   0.50000    -0.1150000   -0.1150000   1.172438e-03  2.346713e-06
    597    649   2   0.50000    -0.1150000    0.1150000   2.431434e-04  1.541678e-07
    596    599   2   0.50000     0.0850000    0.1380000   1.172438e-03  2.346713e-06
    596    629   2   0.50000     0.0850000    0.1150000   2.431434e-04  1.541678e-07
    628    599   2   0.50000     0.1150000    0.1380000   2.431434e-04  1.541678e-07
    628    629   2   0.50000     0.1150000    0.1150000   5.042375e-05  1.012808e-08
    597    600   2   0.50000    -0.1150000    0.7840000   2.215699e-03  4.434870e-06
    629    600   2   0.50000     0.1150000    0.7840000   4.594978e-04  2.913497e-07
    629    626   2   0.50000     0.1150000   -0.1150000   2.431434e-04  1.541678e-07
    598    601   2   0.50000    -0.1150000   -0.5300000   1.059145e-03  1.228897e-06
    598    602   2   0.50000    -0.1150000   -0.5300000   1.059145e-03  1.228897e-06
    598    603   2   0.50000    -0.1150000    0.1380000   1.172438e-03  2.346713e-06
    626    601   2   0.50000    -0.1150000   -0.5300000   1.059145e-03  1.228897e-06
    626    602   2   0.50000    -0.1150000   -0.5300000   1.059145e-03  1.228897e-06
    626    603   2   0.50000    -0.1150000    0.1380000   1.172438e-03  2.346713e-06
    598    648   2   0.50000    -0.1150000    0.1150000   2.431434e-04  1.541678e-07
    600    627   2   0.50000     0.7840000   -0.1150000   2.215699e-03  4.434870e-06
    600    648   2   0.50000     0.7840000    0.1150000   4.594978e-04  2.913497e-07
    599    604   2   0.50000     0.1380000   -0.1150000   1.172438e-03  2.346713e-06
    599    625   2   0.50000     0.1380000   -0.1150000   1.172438e-03  2.346713e-06
    601    604   2   0.50000    -0.5300000   -0.1150000   1.059145e-03  1.228897e-06
    601    625   2   0.50000    -0.5300000   -0.1150000   1.059145e-03  1.228897e-06
    602    604   2   0.50000    -0.5300000   -0.1150000   1.059145e-03  1.228897e-06
    602    625   2   0.50000    -0.5300000   -0.1150000   1.059145e-03  1.228897e-06
    600    605   2   0.50000     0.7840000   -0.1150000   2.215699e-03  4.434870e-06
    600    630   2   0.50000     0.7840000    0.1150000   4.594978e-04  2.913497e-07
    625    605   2   0.50000    -0.1150000   -0.1150000   1.172438e-03  2.346713e-06
    625    630   2   0.50000    -0.1150000    0.1150000   2.431434e-04  1.541678e-07
    600    624   2   0.50000     0.7840000   -0.1150000   2.215699e-03  4.434870e-06
    600    647   2   0.50000     0.7840000    0.1150000   4.594978e-04  2.913497e-07
    604    624   2   0.50000    -0.1150000   -0.1150000   1.172438e-03  2.346713e-06
    604    647   2   0.50000    -0.1150000    0.1150000   2.431434e-04  1.541678e-07
    603    606   2   0.50000     0.1380000    0.0850000   1.172438e-03  2.346713e-06
    603    631   2   0.50000     0.1380000    0.1150000   2.431434e-04  1.541678e-07
    630    606   2   0.50000     0.1150000    0.0850000   2.431434e-04  1.541678e-07
    630    631   2   0.50000     0.1150000    0.1150000   5.042375e-05  1.012808e-08
    604    607   2   0.50000    -0.1150000   -0.1700000   9.038862e-04  9.862632e-07
    631    607   2   0.50000     0.1150000   -0.1700000   1.874504e-04  6.479276e-08
    631    624   2   0.50000     0.1150000   -0.1150000   2.431434e-04  1.541678e-07
    605    608   2   0.50000    -0.1150000    0.0850000   1.172438e-03  2.346713e-06
    624    608   2   0.50000    -0.1150000    0.0850000   1.172438e-03  2.346713e-06
    605    646   2   0.50000    -0.1150000    0.1150000   2.431434e-04  1.541678e-07
    607    625   2   0.50000    -0.1700000   -0.1150000   9.038862e-04  9.862632e-07
    607    646   2   0.50000    -0.1700000    0.1150000   1.874504e-04  6.479276e-08
    606    609   2   0.50000     0.0850000   -0.1150000   1.172438e-03  2.346713e-06
    606    623   2   0.50000     0.0850000   -0.1150000   1.172438e-03  2.346713e-06
    607    610   2   0.50000    -0.1700000   -0.1150000   9.038862e-04  9.862632e-07
    607    632   2   0.50000    -0.1700000    0.1150000   1.874504e-04  6.479276e-08
    623    610   2   0.50000    -0.1150000   -0.1150000   1.172438e-03  2.346713e-06
    623    632   2   0.50000    -0.1150000    0.1150000   2.431434e-04  1.541678e-07
    607    622   2   0.50000    -0.1700000   -0.1150000   9.038862e-04  9.862632e-07
    607    645   2   0.50000    -0.1700000    0.1150000   1.874504e-04  6.479276e-08
    609    622   2   0.50000    -0.1150000   -0.1150000   1.172438e-03  2.346713e-06
    609    645   2   0.50000    -0.1150000    0.1150000   2.431434e-04  1.541678e-07
    608    611   2   0.50000     0.0850000   -0.1150000   1.172438e-03  2.346713e-06
    608    633   2   0.50000     0.0850000    0.1150000   2.431434e-04  1.541678e-07
    632    611   2   0.50000     0.1150000   -0.1150000   2.431434e-04  1.541678e-07
    632    633   2   0.50000     0.1150000    0.1150000   5.042375e-05  1.012808e-08
    609    612   2   0.50000    -0.1150000    0.2300000   1.091018e-03  2.092768e-06
    633    612   2   0.50000     0.1150000    0.2300000   2.262583e-04  1.374848e-07
    633    622   2   0.50000     0.1150000   -0.1150000   2.431434e-04  1.541678e-07
    610    613   2   0.50000    -0.1150000   -0.1800000   1.091018e-03  2.092768e-06
    610    614   2   0.50000    -0.1150000   -0.1800000   1.091018e-03  2.092768e-06
    610    615   2   0.50000    -0.1150000   -0.1150000   1.172438e-03  2.346713e-06
    622    613   2   0.50000    -0.1150000   -0.1800000   1.091018e-03  2.092768e-06
    622    614   2   0.50000    -0.1150000   -0.1800000   1.091018e-03  2.092768e-06
    622    615   2   0.50000    -0.1150000   -0.1150000   1.172438e-03  2.346713e-06
    610    644   2   0.50000    -0.1150000    0.1150000   2.431434e-04  1.541678e-07
    612    623   2   0.50000     0.2300000   -0.1150000   1.091018e-03  2.092768e-06
    612    644   2   0.50000     0.2300000    0.1150000   2.262583e-04  1.374848e-07
    611    634   2   0.50000    -0.1150000    0.0600000   2.680627e-04  1.873879e-07
    611    635   2   0.50000    -0.1150000    0.0600000   2.680627e-04  1.873879e-07
    611    636   2   0.50000    -0.1150000    0.0600000   2.680627e-04  1.873879e-07
    614    634   2   0.50000    -0.1800000    0.0600000   2.494471e-04  1.671101e-07
    614    635   2   0.50000    -0.1800000    0.0600000   2.494471e-04  1.671101e-07
    614    636   2   0.50000    -0.1800000    0.0600000   2.494471e-04  1.671101e-07
    615    634   2   0.50000    -0.1150000    0.0600000   2.680627e-04  1.873879e-07
    615    635   2   0.50000    -0.1150000    0.0600000   2.680627e-04  1.873879e-07
    615    636   2   0.50000    -0.1150000    0.0600000   2.680627e-04  1.873879e-07
    611    637   2   0.50000    -0.1150000    0.0600000   2.680627e-04  1.873879e-07
    611    638   2   0.50000    -0.1150000    0.0600000   2.680627e-04  1.873879e-07
    611    639   2   0.50000    -0.1150000    0.0600000   2.680627e-04  1.873879e-07
    613    637   2   0.50000    -0.1800000    0.0600000   2.494471e-04  1.671101e-07
    613    638   2   0.50000    -0.1800000    0.0600000   2.494471e-04  1.671101e-07
    613    639   2   0.50000    -0.1800000    0.0600000   2.494471e-04  1.671101e-07
    615    637   2   0.50000    -0.1150000    0.0600000   2.680627e-04  1.873879e-07
    615    638   2   0.50000    -0.1150000    0.0600000   2.680627e-04  1.873879e-07
    615    639   2   0.50000    -0.1150000    0.0600000   2.680627e-04  1.873879e-07
    611    616   2   0.50000    -0.1150000   -0.1150000   1.172438e-03  2.346713e-06
    611    621   2   0.50000    -0.1150000   -0.1150000   1.172438e-03  2.346713e-06
    613    616   2   0.50000    -0.1800000   -0.1150000   1.091018e-03  2.092768e-06
    613    621   2   0.50000    -0.1800000   -0.1150000   1.091018e-03  2.092768e-06
    614    616   2   0.50000    -0.1800000   -0.1150000   1.091018e-03  2.092768e-06
    614    621   2   0.50000    -0.1800000   -0.1150000   1.091018e-03  2.092768e-06
    612    617   2   0.50000     0.2300000   -0.1150000   1.091018e-03  2.092768e-06
    612    640   2   0.50000     0.2300000    0.1150000   2.262583e-04  1.374848e-07
    621    617   2   0.50000    -0.1150000   -0.1150000   1.172438e-03  2.346713e-06
    621    640   2   0.50000    -0.1150000    0.1150000   2.431434e-04  1.541678e-07
    612    620   2   0.50000     0.2300000   -0.1150000   1.091018e-03  2.092768e-06
    612    643   2   0.50000     0.2300000    0.1150000   2.262583e-04  1.374848e-07
    616    620   2   0.50000    -0.1150000   -0.1150000   1.172438e-03  2.346713e-06
    616    643   2   0.50000    -0.1150000    0.1150000   2.431434e-04  1.541678e-07
    615    618   2   0.50000    -0.1150000    0.0850000   1.172438e-03  2.346713e-06
    615    641   2   0.50000    -0.1150000    0.1150000   2.431434e-04  1.541678e-07
    640    618   2   0.50000     0.1150000    0.0850000   2.431434e-04  1.541678e-07
    640    641   2   0.50000     0.1150000    0.1150000   5.042375e-05  1.012808e-08
    616    619   2   0.50000    -0.1150000   -0.1700000   9.038862e-04  9.862632e-07
    641    619   2   0.50000     0.1150000   -0.1700000   1.874504e-04  6.479276e-08
    641    620   2   0.50000     0.1150000   -0.1150000   2.431434e-04  1.541678e-07
    617    650   2   0.50000    -0.1150000    0.0850000   1.172438e-03  2.346713e-06
    620    650   2   0.50000    -0.1150000    0.0850000   1.172438e-03  2.346713e-06
    617    642   2   0.50000    -0.1150000    0.1150000   2.431434e-04  1.541678e-07
    619    621   2   0.50000    -0.1700000   -0.1150000   9.038862e-04  9.862632e-07
    619    642   2   0.50000    -0.1700000    0.1150000   1.874504e-04  6.479276e-08
    618    651   2   0.50000     0.0850000   -0.1150000   1.172438e-03  2.346713e-06
    618    681   2   0.50000     0.0850000   -0.1150000   1.172438e-03  2.346713e-06
    618    643   2   0.50000     0.0850000    0.1150000   2.431434e-04  1.541678e-07
    642    615   2   0.50000     0.1150000   -0.1150000   2.431434e-04  1.541678e-07
    642    643   2   0.50000     0.1150000    0.1150000   5.042375e-05  1.012808e-08
    611    645   2   0.50000    -0.1150000    0.1150000   2.431434e-04  1.541678e-07
    644    608   2   0.50000     0.1150000    0.0850000   2.431434e-04  1.541678e-07
    644    645   2   0.50000     0.1150000    0.1150000   5.042375e-05  1.012808e-08
    606    647   2   0.50000     0.0850000    0.1150000   2.431434e-04  1.541678e-07
    646    603   2   0.50000     0.1150000    0.1380000   2.431434e-04  1.541678e-07
    646    647   2   0.50000     0.1150000    0.1150000   5.042375e-05  1.012808e-08
    599    649   2   0.50000     0.1380000    0.1150000   2.431434e-04  1.541678e-07
    648    596   2   0.50000     0.1150000    0.0850000   2.431434e-04  1.541678e-07
    648    649   2   0.50000     0.1150000    0.1150000   5.042375e-05  1.012808e-08
    619    652   2   0.50000    -0.1700000   -0.1150000   9.038862e-04  9.862632e-07
    619    682   2   0.50000    -0.1700000    0.1150000   1.874504e-04  6.479276e-08
    681    652   2   0.50000    -0.1150000   -0.1150000   1.172438e-03  2.346713e-06
    681    682   2   0.50000    -0.1150000    0.1150000   2.431434e-04  1.541678e-07
    619    680   2   0.50000    -0.1700000   -0.1150000   9.038862e-04  9.862632e-07
    619    703   2   0.50000    -0.1700000    0.1150000   1.874504e-04  6.479276e-08
    651    680   2   0.50000    -0.1150000   -0.1150000   1.172438e-03  2.346713e-06
    651    703   2   0.50000    -0.1150000    0.1150000   2.431434e-04  1.541678e-07
    650    653   2   0.50000     0.0850000    0.1380000   1.172438e-03  2.346713e-06
    650    683   2   0.50000     0.0850000    0.1150000   2.431434e-04  1.541678e-07
    682    653   2   0.50000     0.1150000    0.1380000   2.431434e-04  1.541678e-07
    682    683   2   0.50000     0.1150000    0.1150000   5.042375e-05  1.012808e-08
    651    654   2   0.50000    -0.1150000    0.7840000   2.215699e-03  4.434870e-06
    683    654   2   0.50000     0.1150000    0.7840000   4.594978e-04  2.913497e-07
    683    680   2   0.50000     0.1150000   -0.1150000   2.431434e-04  1.541678e-07
    652    655   2   0.50000    -0.1150000   -0.5300000   1.059145e-03  1.228897e-06
    652    656   2   0.50000    -0.1150000   -0.5300000   1.059145e-03  1.228897e-06
    652    657   2   0.50000    -0.1150000    0.1380000   1.172438e-03  2.346713e-06
    680    655   2   0.50000    -0.1150000   -0.5300000   1.059145e-03  1.228897e-06
    680    656   2   0.50000    -0.1150000   -0.5300000   1.059145e-03  1.228897e-06
    680    657   2   0.50000    -0.1150000    0.1380000   1.172438e-03  2.346713e-06
    652    702   2   0.50000    -0.1150000    0.1150000   2.431434e-04  1.541678e-07
    654    681   2   0.50000     0.7840000   -0.1150000   2.215699e-03  4.434870e-06
    654    702   2   0.50000     0.7840000    0.1150000   4.594978e-04  2.913497e-07
    653    658   2   0.50000     0.1380000   -0.1150000   1.172438e-03  2.346713e-06
    653    679   2   0.50000     0.1380000   -0.1150000   1.172438e-03  2.346713e-06
    655    658   2   0.50000    -0.5300000   -0.1150000   1.059145e-03  1.228897e-06
    655    679   2   0.50000    -0.5300000   -0.1150000   1.059145e-03  1.228897e-06
    656    658   2   0.50000    -0.5300000   -0.1150000   1.059145e-03  1.228897e-06
    656    679   2   0.50000    -0.5300000   -0.1150000   1.059145e-03  1.228897e-06
    654    659   2   0.50000     0.7840000   -0.1150000   2.215699e-03  4.434870e-06
    654    684   2   0.50000     0.7840000    0.1150000   4.594978e-04  2.913497e-07
    679    659   2   0.50000    -0.1150000   -0.1150000   1.172438e-03  2.346713e-06
    679    684   2   0.50000    -0.1150000    0.1150000   2.431434e-04  1.541678e-07
    654    678   2   0.50000     0.7840000   -0.1150000   2.215699e-03  4.434870e-06
    654    701   2   0.50000     0.7840000    0.1150000   4.594978e-04  2.913497e-07
    658    678   2   0.50000    -0.1150000   -0.1150000   1.172438e-03  2.346713e-06
    658    701   2   0.50000    -0.1150000    0.1150000   2.431434e-04  1.541678e-07
    657    660   2   0.50000     0.1380000    0.0850000   1.172438e-03  2.346713e-06
    657    685   2   0.50000     0.1380000    0.1150000   2.431434e-04  1.541678e-07
    684    660   2   0.50000     0.1150000    0.0850000   2.431434e-04  1.541678e-07
    684    685   2   0.50000     0.1150000    0.1150000   5.042375e-05  1.012808e-08
    658    661   2   0.50000    -0.1150000   -0.1700000   9.038862e-04  9.862632e-07
    685    661   2   0.50000     0.1150000   -0.1700000   1.874504e-04  6.479276e-08
    685    678   2   0.50000     0.1150000   -0.1150000   2.431434e-04  1.541678e-07
    659    662   2   0.50000    -0.1150000    0.0850000   1.172438e-03  2.346713e-06
    678    662   2   0.50000    -0.1150000    0.0850000   1.172438e-03  2.346713e-06
    659    700   2   0.50000    -0.1150000    0.1150000   2.431434e-04  1.541678e-07
    661    679   2   0.50000    -0.1700000   -0.1150000   9.038862e-04  9.862632e-07
    661    700   2   0.50000    -0.1700000    0.1150000   1.874504e-04  6.479276e-08
    660    663   2   0.50000     0.0850000   -0.1150000   1.172438e-03  2.346713e-06
    660    677   2   0.50000     0.0850000   -0.1150000   1.172438e-03  2.346713e-06
    661    664   2   0.50000    -0.1700000   -0.1150000   9.038862e-04  9.862632e-07
    661    686   2   0.50000    -0.1700000    0.1150000   1.874504e-04  6.479276e-08
    677    664   2   0.50000    -0.1150000   -0.1150000   1.172438e-03  2.346713e-06
    677    686   2   0.50000    -0.1150000    0.1150000   2.431434e-04  1.541678e-07
    661    676   2   0.50000    -0.1700000   -0.1150000   9.038862e-04  9.862632e-07
    661    699   2   0.50000    -0.1700000    0.1150000   1.874504e-04  6.479276e-08
    663    676   2   0.50000    -0.1150000   -0.1150000   1.172438e-03  2.346713e-06
    663    699   2   0.50000    -0.1150000    0.1150000   2.431434e-04  1.541678e-07
    662    665   2   0.50000     0.0850000   -0.1150000   1.172438e-03  2.346713e-06
    662    687   2   0.50000     0.0850000    0.1150000   2.431434e-04  1.541678e-07
    686    665   2   0.50000     0.1150000   -0.1150000   2.431434e-04  1.541678e-07
    686    687   2   0.50000     0.1150000    0.1150000   5.042375e-05  1.012808e-08
    663    666   2   0.50000    -0.1150000    0.2300000   1.091018e-03  2.092768e-06
    687    666   2   0.50000     0.1150000    0.2300000   2.262583e-04  1.374848e-07
    687    676   2   0.50000     0.1150000   -0.1150000   2.431434e-04  1.541678e-07
    664    667   2   0.50000    -0.1150000   -0.1800000   1.091018e-03  2.092768e-06
    664    668   2   0.50000    -0.1150000   -0.1800000   1.091018e-03  2.092768e-06
    664    669   2   0.50000    -0.1150000   -0.1150000   1.172438e-03  2.346713e-06
    676    667   2   0.50000    -0.1150000   -0.1800000   1.091018e-03  2.092768e-06
    676    668   2   0.50000    -0.1150000   -0.1800000   1.091018e-03  2.092768e-06
    676    669   2   0.50000    -0.1150000   -0.1150000   1.172438e-03  2.346713e-06
    664    698   2   0.50000    -0.1150000    0.1150000   2.431434e-04  1.541678e-07
    666    677   2   0.50000     0.2300000   -0.1150000   1.091018e-03  2.092768e-06
    666    698   2   0.50000     0.2300000    0.1150000   2.262583e-04  1.374848e-07
    665    688   2   0.50000    -0.1150000    0.0600000   2.680627e-04  1.873879e-07
    665    689   2   0.50000    -0.1150000    0.0600000   2.680627e-04  1.873879e-07
    665    690   2   0.50000    -0.1150000    0.0600000   2.680627e-04  1.873879e-07
    668    688   2   0.50000    -0.1800000    0.0600000   2.494471e-04  1.671101e-07
    668    689   2   0.50000    -0.1800000    0.0600000   2.494471e-04  1.671101e-07
    668    690   2   0.50000    -0.1800000    0.0600000   2.494471e-04  1.671101e-07
    669    688   2   0.50000    -0.1150000    0.0600000   2.680627e-04  1.873879e-07
    669    689   2   0.50000    -0.1150000    0.0600000   2.680627e-04  1.873879e-07
    669    690   2   0.50000    -0.1150000    0.0600000   2.680627e-04  1.873879e-07
    665    691   2   0.50000    -0.1150000    0.0600000   2.680627e-04  1.873879e-07
    665    692   2   0.50000    -0.1150000    0.0600000   2.680627e-04  1.873879e-07
    665    693   2   0.50000    -0.1150000    0.0600000   2.680627e-04  1.873879e-07
    667    691   2   0.50000    -0.1800000    0.0600000   2.494471e-04  1.671101e-07
    667    692   2   0.50000    -0.1800000    0.0600000   2.494471e-04  1.671101e-07
    667    693   2   0.50000    -0.1800000    0.0600000   2.494471e-04  1.671101e-07
    669    691   2   0.50000    -0.1150000    0.0600000   2.680627e-04  1.873879e-07
    669    692   2   0.50000    -0.1150000    0.0600000   2.680627e-04  1.873879e-07
    669    693   2   0.50000    -0.1150000    0.0600000   2.680627e-04  1.873879e-07
    665    670   2   0.50000    -0.1150000   -0.1150000   1.172438e-03  2.346713e-06
    665    675   2   0.50000    -0.1150000   -0.1150000   1.172438e-03  2.346713e-06
    667    670   2   0.50000    -0.1800000   -0.1150000   1.091018e-03  2.092768e-06
    667    675   2   0.50000    -0.1800000   -0.1150000   1.091018e-03  2.092768e-06
    668    670   2   0.50000    -0.1800000   -0.1150000   1.091018e-03  2.092768e-06
    668    675   2   0.50000    -0.1800000   -0.1150000   1.091018e-03  2.092768e-06
    666    671   2   0.50000     0.2300000   -0.1150000   1.091018e-03  2.092768e-06
    666    694   2   0.50000     0.2300000    0.1150000   2.262583e-04  1.374848e-07
    675    671   2   0.50000    -0.1150000   -0.1150000   1.172438e-03  2.346713e-06
    675    694   2   0.50000    -0.1150000    0.1150000   2.431434e-04  1.541678e-07
    666    674   2   0.50000     0.2300000   -0.1150000   1.091018e-03  2.092768e-06
    666    697   2   0.50000     0.2300000    0.1150000   2.262583e-04  1.374848e-07
    670    674   2   0.50000    -0.1150000   -0.1150000   1.172438e-03  2.346713e-06
    670    697   2   0.50000    -0.1150000    0.1150000   2.431434e-04  1.541678e-07
    669    672   2   0.50000    -0.1150000    0.0850000   1.172438e-03  2.346713e-06
    669    695   2   0.50000    -0.1150000    0.1150000   2.431434e-04  1.541678e-07
    694    672   2   0.50000     0.1150000    0.0850000   2.431434e-04  1.541678e-07
    694    695   2   0.50000     0.1150000    0.1150000   5.042375e-05  1.012808e-08
    670    673   2   0.50000    -0.1150000   -0.1700000   9.038862e-04  9.862632e-07
    695    673   2   0.50000     0.1150000   -0.1700000   1.874504e-04  6.479276e-08
    695    674   2   0.50000     0.1150000   -0.1150000   2.431434e-04  1.541678e-07
    671    704   2   0.50000    -0.1150000    0.0850000   1.172438e-03  2.346713e-06
    674    704   2   0.50000    -0.1150000    0.0850000   1.172438e-03  2.346713e-06
    671    696   2   0.50000    -0.1150000    0.1150000   2.431434e-04  1.541678e-07
    673    675   2   0.50000    -0.1700000   -0.1150000   9.038862e-04  9.862632e-07
    673    696   2   0.50000    -0.1700000    0.1150000   1.874504e-04  6.479276e-08
    672    705   2   0.50000     0.0850000   -0.1150000   1.172438e-03  2.346713e-06
    672    735   2   0.50000     0.0850000   -0.1150000   1.172438e-03  2.346713e-06
    672    697   2   0.50000     0.0850000    0.1150000   2.431434e-04  1.541678e-07
    696    669   2   0.50000     0.1150000   -0.1150000   2.431434e-04  1.541678e-07
    696    697   2   0.50000     0.1150000    0.1150000   5.042375e-05  1.012808e-08
    665    699   2   0.50000    -0.1150000    0.1150000   2.431434e-04  1.541678e-07
    698    662   2   0.50000     0.1150000    0.0850000   2.431434e-04  1.541678e-07
    698    699   2   0.50000     0.1150000    0.1150000   5.042375e-05  1.012808e-08
    660    701   2   0.50000     0.0850000    0.1150000   2.431434e-04  1.541678e-07
    700    657   2   0.50000     0.1150000    0.1380000   2.431434e-04  1.541678e-07
    700    701   2   0.50000     0.1150000    0.1150000   5.042375e-05  1.012808e-08
    653    703   2   0.50000     0.1380000    0.1150000   2.431434e-04  1.541678e-07
    702    650   2   0.50000     0.1150000    0.0850000   2.431434e-04  1.541678e-07
    702    703   2   0.50000     0.1150000    0.1150000   5.042375e-05  1.012808e-08
    673    706   2   0.50000    -0.1700000   -0.1150000   9.038862e-04  9.862632e-07
    673    736   2   0.50000    -0.1700000    0.1150000   1.874504e-04  6.479276e-08
    735    706   2   0.50000    -0.1150000   -0.1150000   1.172438e-03  2.346713e-06
    735    736   2   0.50000    -0.1150000    0.1150000   2.431434e-04  1.541678e-07
    673    734   2   0.50000    -0.1700000   -0.1150000   9.038862e-04  9.862632e-07
    673    757   2   0.50000    -0.1700000    0.1150000   1.874504e-04  6.479276e-08
    705    734   2   0.50000    -0.1150000   -0.1150000   1.172438e-03  2.346713e-06
    705    757   2   0.50000    -0.1150000    0.1150000   2.431434e-04  1.541678e-07
    704    707   2   0.50000     0.0850000    0.1380000   1.172438e-03  2.346713e-06
    704    737   2   0.50000     0.0850000    0.1150000   2.431434e-04  1.541678e-07
    736    707   2   0.50000     0.1150000    0.1380000   2.431434e-04  1.541678e-07
    736    737   2   0.50000     0.1150000    0.1150000   5.042375e-05  1.012808e-08
    705    708   2   0.50000    -0.1150000    0.7840000   2.215699e-03  4.434870e-06
    737    708   2   0.50000     0.1150000    0.7840000   4.594978e-04  2.913497e-07
    737    734   2   0.50000     0.1150000   -0.1150000   2.431434e-04  1.541678e-07
    706    709   2   0.50000    -0.1150000   -0.5300000   1.059145e-03  1.228897e-06
    706    710   2   0.50000    -0.1150000   -0.5300000   1.059145e-03  1.228897e-06
    706    711   2   0.50000    -0.1150000    0.1380000   1.172438e-03  2.346713e-06
    734    709   2   0.50000    -0.1150000   -0.5300000   1.059145e-03  1.228897e-06
    734    710   2   0.50000    -0.1150000   -0.5300000   1.059145e-03  1.228897e-06
    734    711   2   0.50000    -0.1150000    0.1380000   1.172438e-03  2.346713e-06
    706    756   2   0.50000    -0.1150000    0.1150000   2.431434e-04  1.541678e-07
    708    735   2   0.50000     0.7840000   -0.1150000   2.215699e-03  4.434870e-06
    708    756   2   0.50000     0.7840000    0.1150000   4.594978e-04  2.913497e-07
    707    712   2   0.50000     0.1380000   -0.1150000   1.172438e-03  2.346713e-06
    707    733   2   0.50000     0.1380000   -0.1150000   1.172438e-03  2.346713e-06
    709    712   2   0.50000    -0.5300000   -0.1150000   1.059145e-03  1.228897e-06
    709    733   2   0.50000    -0.5300000   -0.1150000   1.059145e-03  1.228897e-06
    710    712   2   0.50000    -0.5300000   -0.1150000   1.059145e-03  1.228897e-06
    710    733   2   0.50000    -0.5300000   -0.1150000   1.059145e-03  1.228897e-06
    708    713   2   0.50000     0.7840000   -0.1150000   2.215699e-03  4.434870e-06
    708    738   2   0.50000     0.7840000    0.1150000   4.594978e-04  2.913497e-07
    733    713   2   0.50000    -0.1150000   -0.1150000   1.172438e-03  2.346713e-06
    733    738   2   0.50000    -0.1150000    0.1150000   2.431434e-04  1.541678e-07
    708    732   2   0.50000     0.7840000   -0.1150000   2.215699e-03  4.434870e-06
    708    755   2   0.50000     0.7840000    0.1150000   4.594978e-04  2.913497e-07
    712    732   2   0.50000    -0.1150000   -0.1150000   1.172438e-03  2.346713e-06
    712    755   2   0.50000    -0.1150000    0.1150000   2.431434e-04  1.541678e-07
    711    714   2   0.50000     0.1380000    0.0850000   1.172438e-03  2.346713e-06
    711    739   2   0.50000     0.1380000    0.1150000   2.431434e-04  1.541678e-07
    738    714   2   0.50000     0.1150000    0.0850000   2.431434e-04  1.541678e-07
    738    739   2   0.50000     0.1150000    0.1150000   5.042375e-05  1.012808e-08
    712    715   2   0.50000    -0.1150000   -0.1700000   9.038862e-04  9.862632e-07
    739    715   2   0.50000     0.1150000   -0.1700000   1.874504e-04  6.479276e-08
    739    732   2   0.50000     0.1150000   -0.1150000   2.431434e-04  1.541678e-07
    713    716   2   0.50000    -0.1150000    0.0850000   1.172438e-03  2.346713e-06
    732    716   2   0.50000    -0.1150000    0.0850000   1.172438e-03  2.346713e-06
    713    754   2   0.50000    -0.1150000    0.1150000   2.431434e-04  1.541678e-07
    715    733   2   0.50000    -0.1700000   -0.1150000   9.038862e-04  9.862632e-07
    715    754   2   0.50000    -0.1700000    0.1150000   1.874504e-04  6.479276e-08
    714    717   2   0.50000     0.0850000   -0.1150000   1.172438e-03  2.346713e-06
    714    731   2   0.50000     0.0850000   -0.1150000   1.172438e-03  2.346713e-06
    715    718   2   0.50000    -0.1700000   -0.1150000   9.038862e-04  9.862632e-07
    715    740   2   0.50000    -0.1700000    0.1150000   1.874504e-04  6.479276e-08
    731    718   2   0.50000    -0.1150000   -0.1150000   1.172438e-03  2.346713e-06
    731    740   2   0.50000    -0.1150000    0.1150000   2.431434e-04  1.541678e-07
    715    730   2   0.50000    -0.1700000   -0.1150000   9.038862e-04  9.862632e-07
    715    753   2   0.50000    -0.1700000    0.1150000   1.874504e-04  6.479276e-08
    717    730   2   0.50000    -0.1150000   -0.1150000   1.172438e-03  2.346713e-06
    717    753   2   0.50000    -0.1150000    0.1150000   2.431434e-04  1.541678e-07
    716    719   2   0.50000     0.0850000   -0.1150000   1.172438e-03  2.346713e-06
    716    741   2   0.50000     0.0850000    0.1150000   2.431434e-04  1.541678e-07
    740    719   2   0.50000     0.1150000   -0.1150000   2.431434e-04  1.541678e-07
    740    741   2   0.50000     0.1150000    0.1150000   5.042375e-05  1.012808e-08
    717    720   2   0.50000    -0.1150000    0.2300000   1.091018e-03  2.092768e-06
    741    720   2   0.50000     0.1150000    0.2300000   2.262583e-04  1.374848e-07
    741    730   2   0.50000     0.1150000   -0.1150000   2.431434e-04  1.541678e-07
    718    721   2   0.50000    -0.1150000   -0.1800000   1.091018e-03  2.092768e-06
    718    722   2   0.50000    -0.1150000   -0.1800000   1.091018e-03  2.092768e-06
    718    723   2   0.50000    -0.1150000   -0.1150000   1.172438e-03  2.346713e-06
    730    721   2   0.50000    -0.1150000   -0.1800000   1.091018e-03  2.092768e-06
    730    722   2   0.50000    -0.1150000   -0.1800000   1.091018e-03  2.092768e-06
    730    723   2   0.50000    -0.1150000   -0.1150000   1.172438e-03  2.346713e-06
    718    752   2   0.50000    -0.1150000    0.1150000   2.431434e-04  1.541678e-07
    720    731   2   0.50000     0.2300000   -0.1150000   1.091018e-03  2.092768e-06
    720    752   2   0.50000     0.2300000    0.1150000   2.262583e-04  1.374848e-07
    719    742   2   0.50000    -0.1150000    0.0600000   2.680627e-04  1.873879e-07
    719    743   2   0.50000    -0.1150000    0.0600000   2.680627e-04  1.873879e-07
    719    744   2   0.50000    -0.1150000    0.0600000   2.680627e-04  1.873879e-07
    722    742   2   0.50000    -0.1800000    0.0600000   2.494471e-04  1.671101e-07
    722    743   2   0.50000    -0.1800000    0.0600000   2.494471e-04  1.671101e-07
    722    744   2   0.50000    -0.1800000    0.0600000   2.494471e-04  1.671101e-07
    723    742   2   0.50000    -0.1150000    0.0600000   2.680627e-04  1.873879e-07
    723    743   2   0.50000    -0.1150000    0.0600000   2.680627e-04  1.873879e-07
    723    744   2   0.50000    -0.1150000    0.0600000   2.680627e-04  1.873879e-07
    719    745   2   0.50000    -0.1150000    0.0600000   2.680627e-04  1.873879e-07
    719    746   2   0.50000    -0.1150000    0.0600000   2.680627e-04  1.873879e-07
    719    747   2   0.50000    -0.1150000    0.0600000   2.680627e-04  1.873879e-07
    721    745   2   0.50000    -0.1800000    0.0600000   2.494471e-04  1.671101e-07
    721    746   2   0.50000    -0.1800000    0.0600000   2.494471e-04  1.671101e-07
    721    747   2   0.50000    -0.1800000    0.0600000   2.494471e-04  1.671101e-07
    723    745   2   0.50000    -0.1150000    0.0600000   2.680627e-04  1.873879e-07
    723    746   2   0.50000    -0.1150000    0.0600000   2.680627e-04  1.873879e-07
    723    747   2   0.50000    -0.1150000    0.0600000   2.680627e-04  1.873879e-07
    719    724   2   0.50000    -0.1150000   -0.1150000   1.172438e-03  2.346713e-06
    719    729   2   0.50000    -0.1150000   -0.1150000   1.172438e-03  2.346713e-06
    721    724   2   0.50000    -0.1800000   -0.1150000   1.091018e-03  2.092768e-06
    721    729   2   0.50000    -0.1800000   -0.1150000   1.091018e-03  2.092768e-06
    722    724   2   0.50000    -0.1800000   -0.1150000   1.091018e-03  2.092768e-06
    722    729   2   0.50000    -0.1800000   -0.1150000   1.091018e-03  2.092768e-06
    720    725   2   0.50000     0.2300000   -0.1150000   1.091018e-03  2.092768e-06
    720    748   2   0.50000     0.2300000    0.1150000   2.262583e-04  1.374848e-07
    729    725   2   0.50000    -0.1150000   -0.1150000   1.172438e-03  2.346713e-06
    729    748   2   0.50000    -0.1150000    0.1150000   2.431434e-04  1.541678e-07
    720    728   2   0.50000     0.2300000   -0.1150000   1.091018e-03  2.092768e-06
    720    751   2   0.50000     0.2300000    0.1150000   2.262583e-04  1.374848e-07
    724    728   2   0.50000    -0.1150000   -0.1150000   1.172438e-03  2.346713e-06
    724    751   2   0.50000    -0.1150000    0.1150000   2.431434e-04  1.541678e-07
    723    726   2   0.50000    -0.1150000    0.0850000   1.172438e-03  2.346713e-06
    723    749   2   0.50000    -0.1150000    0.1150000   2.431434e-04  1.541678e-07
    748    726   2   0.50000     0.1150000    0.0850000   2.431434e-04  1.541678e-07
    748    749   2   0.50000     0.1150000    0.1150000   5.042375e-05  1.012808e-08
    724    727   2   0.50000    -0.1150000   -0.1700000   9.038862e-04  9.862632e-07
    749    727   2   0.50000     0.1150000   -0.1700000   1.874504e-04  6.479276e-08
    749    728   2   0.50000     0.1150000   -0.1150000   2.431434e-04  1.541678e-07
    725    758   2   0.50000    -0.1150000    0.0850000   1.172438e-03  2.346713e-06
    728    758   2   0.50000    -0.1150000    0.0850000   1.172438e-03  2.346713e-06
    725    750   2   0.50000    -0.1150000    0.1150000   2.431434e-04  1.541678e-07
    727    729   2   0.50000    -0.1700000   -0.1150000   9.038862e-04  9.862632e-07
    727    750   2   0.50000    -0.1700000    0.1150000   1.874504e-04  6.479276e-08
    726    759   2   0.50000     0.0850000   -0.1150000   1.172438e-03  2.346713e-06
    726    789   2   0.50000     0.0850000   -0.1150000   1.172438e-03  2.346713e-06
    726    751   2   0.50000     0.0850000    0.1150000   2.431434e-04  1.541678e-07
    750    723   2   0.50000     0.1150000   -0.1150000   2.431434e-04  1.541678e-07
    750    751   2   0.50000     0.1150000    0.1150000   5.042375e-05  1.012808e-08
    719    753   2   0.50000    -0.1150000    0.1150000   2.431434e-04  1.541678e-07
    752    716   2   0.50000     0.1150000    0.0850000   2.431434e-04  1.541678e-07
    752    753   2   0.50000     0.1150000    0.1150000   5.042375e-05  1.012808e-08
    714    755   2   0.50000     0.0850000    0.1150000   2.431434e-04  1.541678e-07
    754    711   2   0.50000     0.1150000    0.1380000   2.431434e-04  1.541678e-07
    754    755   2   0.50000     0.1150000    0.1150000   5.042375e-05  1.012808e-08
    707    757   2   0.50000     0.1380000    0.1150000   2.431434e-04  1.541678e-07
    756    704   2   0.50000     0.1150000    0.0850000   2.431434e-04  1.541678e-07
    756    757   2   0.50000     0.1150000    0.1150000   5.042375e-05  1.012808e-08
    727    760   2   0.50000    -0.1700000   -0.1150000   9.038862e-04  9.862632e-07
    727    790   2   0.50000    -0.1700000    0.1150000   1.874504e-04  6.479276e-08
    789    760   2   0.50000    -0.1150000   -0.1150000   1.172438e-03  2.346713e-06
    789    790   2   0.50000    -0.1150000    0.1150000   2.431434e-04  1.541678e-07
    727    788   2   0.50000    -0.1700000   -0.1150000   9.038862e-04  9.862632e-07
    727    811   2   0.50000    -0.1700000    0.1150000   1.874504e-04  6.479276e-08
    759    788   2   0.50000    -0.1150000   -0.1150000   1.172438e-03  2.346713e-06
    759    811   2   0.50000    -0.1150000    0.1150000   2.431434e-04  1.541678e-07
    758    761   2   0.50000     0.0850000    0.1380000   1.172438e-03  2.346713e-06
    758    791   2   0.50000     0.0850000    0.1150000   2.431434e-04  1.541678e-07
    790    761   2   0.50000     0.1150000    0.1380000   2.431434e-04  1.541678e-07
    790    791   2   0.50000     0.1150000    0.1150000   5.042375e-05  1.012808e-08
    759    762   2   0.50000    -0.1150000    0.7840000   2.215699e-03  4.434870e-06
    791    762   2   0.50000     0.1150000    0.7840000   4.594978e-04  2.913497e-07
    791    788   2   0.50000     0.1150000   -0.1150000   2.431434e-04  1.541678e-07
    760    763   2   0.50000    -0.1150000   -0.5300000   1.059145e-03  1.228897e-06
    760    764   2   0.50000    -0.1150000   -0.5300000   1.059145e-03  1.228897e-06
    760    765   2   0.50000    -0.1150000    0.1380000   1.172438e-03  2.346713e-06
    788    763   2   0.50000    -0.1150000   -0.5300000   1.059145e-03  1.228897e-06
    788    764   2   0.50000    -0.1150000   -0.5300000   1.059145e-03  1.228897e-06
    788    765   2   0.50000    -0.1150000    0.1380000   1.172438e-03  2.346713e-06
    760    810   2   0.50000    -0.1150000    0.1150000   2.431434e-04  1.541678e-07
    762    789   2   0.50000     0.7840000   -0.1150000   2.215699e-03  4.434870e-06
    762    810   2   0.50000     0.7840000    0.1150000   4.594978e-04  2.913497e-07
    761    766   2   0.50000     0.1380000   -0.1150000   1.172438e-03  2.346713e-06
    761    787   2   0.50000     0.1380000   -0.1150000   1.172438e-03  2.346713e-06
    763    766   2   0.50000    -0.5300000   -0.1150000   1.059145e-03  1.228897e-06
    763    787   2   0.50000    -0.5300000   -0.1150000   1.059145e-03  1.228897e-06
    764    766   2   0.50000    -0.5300000   -0.1150000   1.059145e-03  1.228897e-06
    764    787   2   0.50000    -0.5300000   -0.1150000   1.059145e-03  1.228897e-06
    762    767   2   0.50000     0.7840000   -0.1150000   2.215699e-03  4.434870e-06
    762    792   2   0.50000     0.7840000    0.1150000   4.594978e-04  2.913497e-07
    787    767   2   0.50000    -0.1150000   -0.1150000   1.172438e-03  2.346713e-06
    787    792   2   0.50000    -0.1150000    0.1150000   2.431434e-04  1.541678e-07
    762    786   2   0.50000     0.7840000   -0.1150000   2.215699e-03  4.434870e-06
    762    809   2   0.50000     0.7840000    0.1150000   4.594978e-04  2.913497e-07
    766    786   2   0.50000    -0.1150000   -0.1150000   1.172438e-03  2.346713e-06
    766    809   2   0.50000    -0.1150000    0.1150000   2.431434e-04  1.541678e-07
    765    768   2   0.50000     0.1380000    0.0850000   1.172438e-03  2.346713e-06
    765    793   2   0.50000     0.1380000    0.1150000   2.431434e-04  1.541678e-07
    792    768   2   0.50000     0.1150000    0.0850000   2.431434e-04  1.541678e-07
    792    793   2   0.50000     0.1150000    0.1150000   5.042375e-05  1.012808e-08
    766    769   2   0.50000    -0.1150000   -0.1700000   9.038862e-04  9.862632e-07
    793    769   2   0.50000     0.1150000   -0.1700000   1.874504e-04  6.479276e-08
    793    786   2   0.50000     0.1150000   -0.1150000   2.431434e-04  1.541678e-07
    767    770   2   0.50000    -0.1150000    0.0850000   1.172438e-03  2.346713e-06
    786    770   2   0.50000    -0.1150000    0.0850000   1.172438e-03  2.346713e-06
    767    808   2   0.50000    -0.1150000    0.1150000   2.431434e-04  1.541678e-07
    769    787   2   0.50000    -0.1700000   -0.1150000   9.038862e-04  9.862632e-07
    769    808   2   0.50000    -0.1700000    0.1150000   1.874504e-04  6.479276e-08
    768    771   2   0.50000     0.0850000   -0.1150000   1.172438e-03  2.346713e-06
    768    785   2   0.50000     0.0850000   -0.1150000   1.172438e-03  2.346713e-06
    769    772   2   0.50000    -0.1700000   -0.1150000   9.038862e-04  9.862632e-07
    769    794   2   0.50000    -0.1700000    0.1150000   1.874504e-04  6.479276e-08
    785    772   2   0.50000    -0.1150000   -0.1150000   1.172438e-03  2.346713e-06
    785    794   2   0.50000    -0.1150000    0.1150000   2.431434e-04  1.541678e-07
    769    784   2   0.50000    -0.1700000   -0.1150000   9.038862e-04  9.862632e-07
    769    807   2   0.50000    -0.1700000    0.1150000   1.874504e-04  6.479276e-08
    771    784   2   0.50000    -0.1150000   -0.1150000   1.172438e-03  2.346713e-06
    771    807   2   0.50000    -0.1150000    0.1150000   2.431434e-04  1.541678e-07
    770    773   2   0.50000     0.0850000   -0.1150000   1.172438e-03  2.346713e-06
    770    795   2   0.50000     0.0850000    0.1150000   2.431434e-04  1.541678e-07
    794    773   2   0.50000     0.1150000   -0.1150000   2.431434e-04  1.541678e-07
    794    795   2   0.50000     0.1150000    0.1150000   5.042375e-05  1.012808e-08
    771    774   2   0.50000    -0.1150000    0.2300000   1.091018e-03  2.092768e-06
    795    774   2   0.50000     0.1150000    0.2300000   2.262583e-04  1.374848e-07
    795    784   2   0.50000     0.1150000   -0.1150000   2.431434e-04  1.541678e-07
    772    775   2   0.50000    -0.1150000   -0.1800000   1.091018e-03  2.092768e-06
    772    776   2   0.50000    -0.1150000   -0.1800000   1.091018e-03  2.092768e-06
    772    777   2   0.50000    -0.1150000   -0.1150000   1.172438e-03  2.346713e-06
    784    775   2   0.50000    -0.1150000   -0.1800000   1.091018e-03  2.092768e-06
    784    776   2   0.50000    -0.1150000   -0.1800000   1.091018e-03  2.092768e-06
    784    777   2   0.50000    -0.1150000   -0.1150000   1.172438e-03  2.346713e-06
    772    806   2   0.50000    -0.1150000    0.1150000   2.431434e-04  1.541678e-07
    774    785   2   0.50000     0.2300000   -0.1150000   1.091018e-03  2.092768e-06
    774    806   2   0.50000     0.2300000    0.1150000   2.262583e-04  1.374848e-07
    773    796   2   0.50000    -0.1150000    0.0600000   2.680627e-04  1.873879e-07
    773    797   2   0.50000    -0.1150000    0.0600000   2.680627e-04  1.873879e-07
    773    798   2   0.50000    -0.1150000    0.0600000   2.680627e-04  1.873879e-07
    776    796   2   0.50000    -0.1800000    0.0600000   2.494471e-04  1.671101e-07
    776    797   2   0.50000    -0.1800000    0.0600000   2.494471e-04  1.671101e-07
    776    798   2   0.50000    -0.1800000    0.0600000   2.494471e-04  1.671101e-07
    777    796   2   0.50000    -0.1150000    0.0600000   2.680627e-04  1.873879e-07
    777    797   2   0.50000    -0.1150000    0.0600000   2.680627e-04  1.873879e-07
    777    798   2   0.50000    -0.1150000    0.0600000   2.680627e-04  1.873879e-07
    773    799   2   0.50000    -0.1150000    0.0600000   2.680627e-04  1.873879e-07
    773    800   2   0.50000    -0.1150000    0.0600000   2.680627e-04  1.873879e-07
    773    801   2   0.50000    -0.1150000    0.0600000   2.680627e-04  1.873879e-07
    775    799   2   0.50000    -0.1800000    0.0600000   2.494471e-04  1.671101e-07
    775    800   2   0.50000    -0.1800000    0.0600000   2.494471e-04  1.671101e-07
    775    801   2   0.50000    -0.1800000    0.0600000   2.494471e-04  1.671101e-07
    777    799   2   0.50000    -0.1150000    0.0600000   2.680627e-04  1.873879e-07
    777    800   2   0.50000    -0.1150000    0.0600000   2.680627e-04  1.873879e-07
    777    801   2   0.50000    -0.1150000    0.0600000   2.680627e-04  1.873879e-07
    773    778   2   0.50000    -0.1150000   -0.1150000   1.172438e-03  2.346713e-06
    773    783   2   0.50000    -0.1150000   -0.1150000   1.172438e-03  2.346713e-06
    775    778   2   0.50000    -0.1800000   -0.1150000   1.091018e-03  2.092768e-06
    775    783   2   0.50000    -0.1800000   -0.1150000   1.091018e-03  2.092768e-06
    776    778   2   0.50000    -0.1800000   -0.1150000   1.091018e-03  2.092768e-06
    776    783   2   0.50000    -0.1800000   -0.1150000   1.091018e-03  2.092768e-06
    774    779   2   0.50000     0.2300000   -0.1150000   1.091018e-03  2.092768e-06
    774    802   2   0.50000     0.2300000    0.1150000   2.262583e-04  1.374848e-07
    783    779   2   0.50000    -0.1150000   -0.1150000   1.172438e-03  2.346713e-06
    783    802   2   0.50000    -0.1150000    0.1150000   2.431434e-04  1.541678e-07
    774    782   2   0.50000     0.2300000   -0.1150000   1.091018e-03  2.092768e-06
    774    805   2   0.50000     0.2300000    0.1150000   2.262583e-04  1.374848e-07
    778    782   2   0.50000    -0.1150000   -0.1150000   1.172438e-03  2.346713e-06
    778    805   2   0.50000    -0.1150000    0.1150000   2.431434e-04  1.541678e-07
    777    780   2   0.50000    -0.1150000    0.0850000   1.172438e-03  2.346713e-06
    777    803   2   0.50000    -0.1150000    0.1150000   2.431434e-04  1.541678e-07
    802    780   2   0.50000     0.1150000    0.0850000   2.431434e-04  1.541678e-07
    802    803   2   0.50000     0.1150000    0.1150000   5.042375e-05  1.012808e-08
    778    781   2   0.50000    -0.1150000   -0.1700000   9.038862e-04  9.862632e-07
    803    781   2   0.50000     0.1150000   -0.1700000   1.874504e-04  6.479276e-08
    803    782   2   0.50000     0.1150000   -0.1150000   2.431434e-04  1.541678e-07
    779    812   2   0.50000    -0.1150000    0.0850000   1.172438e-03  2.346713e-06
    782    812   2   0.50000    -0.1150000    0.0850000   1.172438e-03  2.346713e-06
    779    804   2   0.50000    -0.1150000    0.1150000   2.431434e-04  1.541678e-07
    781    783   2   0.50000    -0.1700000   -0.1150000   9.038862e-04  9.862632e-07
    781    804   2   0.50000    -0.1700000    0.1150000   1.874504e-04  6.479276e-08
    780    813   2   0.50000     0.0850000   -0.1150000   1.172438e-03  2.346713e-06
    780    843   2   0.50000     0.0850000   -0.1150000   1.172438e-03  2.346713e-06
    780    805   2   0.50000     0.0850000    0.1150000   2.431434e-04  1.541678e-07
    804    777   2   0.50000     0.1150000   -0.1150000   2.431434e-04  1.541678e-07
    804    805   2   0.50000     0.1150000    0.1150000   5.042375e-05  1.012808e-08
    773    807   2   0.50000    -0.1150000    0.1150000   2.431434e-04  1.541678e-07
    806    770   2   0.50000     0.1150000    0.0850000   2.431434e-04  1.541678e-07
    806    807   2   0.50000     0.1150000    0.1150000   5.042375e-05  1.012808e-08
    768    809   2   0.50000     0.0850000    0.1150000   2.431434e-04  1.541678e-07
    808    765   2   0.50000     0.1150000    0.1380000   2.431434e-04  1.541678e-07
    808    809   2   0.50000     0.1150000    0.1150000   5.042375e-05  1.012808e-08
    761    811   2   0.50000     0.1380000    0.1150000   2.431434e-04  1.541678e-07
    810    758   2   0.50000     0.1150000    0.0850000   2.431434e-04  1.541678e-07
    810    811   2   0.50000     0.1150000    0.1150000   5.042375e-05  1.012808e-08
    781    814   2   0.50000    -0.1700000   -0.1150000   9.038862e-04  9.862632e-07
    781    844   2   0.50000    -0.1700000    0.1150000   1.874504e-04  6.479276e-08
    843    814   2   0.50000    -0.1150000   -0.1150000   1.172438e-03  2.346713e-06
    843    844   2   0.50000    -0.1150000    0.1150000   2.431434e-04  1.541678e-07
    781    842   2   0.50000    -0.1700000   -0.1150000   9.038862e-04  9.862632e-07
    781    865   2   0.50000    -0.1700000    0.1150000   1.874504e-04  6.479276e-08
    813    842   2   0.50000    -0.1150000   -0.1150000   1.172438e-03  2.346713e-06
    813    865   2   0.50000    -0.1150000    0.1150000   2.431434e-04  1.541678e-07
    812    815   2   0.50000     0.0850000    0.1380000   1.172438e-03  2.346713e-06
    812    845   2   0.50000     0.0850000    0.1150000   2.431434e-04  1.541678e-07
    844    815   2   0.50000     0.1150000    0.1380000   2.431434e-04  1.541678e-07
    844    845   2   0.50000     0.1150000    0.1150000   5.042375e-05  1.012808e-08
    813    816   2   0.50000    -0.1150000    0.7840000   2.215699e-03  4.434870e-06
    845    816   2   0.50000     0.1150000    0.7840000   4.594978e-04  2.913497e-07
    845    842   2   0.50000     0.1150000   -0.1150000   2.431434e-04  1.541678e-07
    814    817   2   0.50000    -0.1150000   -0.5300000   1.059145e-03  1.228897e-06
    814    818   2   0.50000    -0.1150000   -0.5300000   1.059145e-03  1.228897e-06
    814    819   2   0.50000    -0.1150000    0.1380000   1.172438e-03  2.346713e-06
    842    817   2   0.50000    -0.1150000   -0.5300000   1.059145e-03  1.228897e-06
    842    818   2   0.50000    -0.1150000   -0.5300000   1.059145e-03  1.228897e-06
    842    819   2   0.50000    -0.1150000    0.1380000   1.172438e-03  2.346713e-06
    814    864   2   0.50000    -0.1150000    0.1150000   2.431434e-04  1.541678e-07
    816    843   2   0.50000     0.7840000   -0.1150000   2.215699e-03  4.434870e-06
    816    864   2   0.50000     0.7840000    0.1150000   4.594978e-04  2.913497e-07
    815    820   2   0.50000     0.1380000   -0.1150000   1.172438e-03  2.346713e-06
    815    841   2   0.50000     0.1380000   -0.1150000   1.172438e-03  2.346713e-06
    817    820   2   0.50000    -0.5300000   -0.1150000   1.059145e-03  1.228897e-06
    817    841   2   0.50000    -0.5300000   -0.1150000   1.059145e-03  1.228897e-06
    818    820   2   0.50000    -0.5300000   -0.1150000   1.059145e-03  1.228897e-06
    818    841   2   0.50000    -0.5300000   -0.1150000   1.059145e-03  1.228897e-06
    816    821   2   0.50000     0.7840000   -0.1150000   2.215699e-03  4.434870e-06
    816    846   2   0.50000     0.7840000    0.1150000   4.594978e-04  2.913497e-07
    841    821   2   0.50000    -0.1150000   -0.1150000   1.172438e-03  2.346713e-06
    841    846   2   0.50000    -0.1150000    0.1150000   2.431434e-04  1.541678e-07
    816    840   2   0.50000     0.7840000   -0.1150000   2.215699e-03  4.434870e-06
    816    863   2   0.50000     0.7840000    0.1150000   4.594978e-04  2.913497e-07
    820    840   2   0.50000    -0.1150000   -0.1150000   1.172438e-03  2.346713e-06
    820    863   2   0.50000    -0.1150000    0.1150000   2.431434e-04  1.541678e-07
    819    822   2   0.50000     0.1380000    0.0850000   1.172438e-03  2.346713e-06
    819    847   2   0.50000     0.1380000    0.1150000   2.431434e-04  1.541678e-07
    846    822   2   0.50000     0.1150000    0.0850000   2.431434e-04  1.541678e-07
    846    847   2   0.50000     0.1150000    0.1150000   5.042375e-05  1.012808e-08
    820    823   2   0.50000    -0.1150000   -0.1700000   9.038862e-04  9.862632e-07
    847    823   2   0.50000     0.1150000   -0.1700000   1.874504e-04  6.479276e-08
    847    840   2   0.50000     0.1150000   -0.1150000   2.431434e-04  1.541678e-07
    821    824   2   0.50000    -0.1150000    0.0850000   1.172438e-03  2.346713e-06
    840    824   2   0.50000    -0.1150000    0.0850000   1.172438e-03  2.346713e-06
    821    862   2   0.50000    -0.1150000    0.1150000   2.431434e-04  1.541678e-07
    823    841   2   0.50000    -0.1700000   -0.1150000   9.038862e-04  9.862632e-07
    823    862   2   0.50000    -0.1700000    0.1150000   1.874504e-04  6.479276e-08
    822    825   2   0.50000     0.0850000   -0.1150000   1.172438e-03  2.346713e-06
    822    839   2   0.50000     0.0850000   -0.1150000   1.172438e-03  2.346713e-06
    823    826   2   0.50000    -0.1700000   -0.1150000   9.038862e-04  9.862632e-07
    823    848   2   0.50000    -0.1700000    0.1150000   1.874504e-04  6.479276e-08
    839    826   2   0.50000    -0.1150000   -0.1150000   1.172438e-03  2.346713e-06
    839    848   2   0.50000    -0.1150000    0.1150000   2.431434e-04  1.541678e-07
    823    838   2   0.50000    -0.1700000   -0.1150000   9.038862e-04  9.862632e-07
    823    861   2   0.50000    -0.1700000    0.1150000   1.874504e-04  6.479276e-08
    825    838   2   0.50000    -0.1150000   -0.1150000   1.172438e-03  2.346713e-06
    825    861   2   0.50000    -0.1150000    0.1150000   2.431434e-04  1.541678e-07
    824    827   2   0.50000     0.0850000   -0.1150000   1.172438e-03  2.346713e-06
    824    849   2   0.50000     0.0850000    0.1150000   2.431434e-04  1.541678e-07
    848    827   2   0.50000     0.1150000   -0.1150000   2.431434e-04  1.541678e-07
    848    849   2   0.50000     0.1150000    0.1150000   5.042375e-05  1.012808e-08
    825    828   2   0.50000    -0.1150000    0.2300000   1.091018e-03  2.092768e-06
    849    828   2   0.50000     0.1150000    0.2300000   2.262583e-04  1.374848e-07
    849    838   2   0.50000     0.1150000   -0.1150000   2.431434e-04  1.541678e-07
    826    829   2   0.50000    -0.1150000   -0.1800000   1.091018e-03  2.092768e-06
    826    830   2   0.50000    -0.1150000   -0.1800000   1.091018e-03  2.092768e-06
    826    831   2   0.50000    -0.1150000   -0.1150000   1.172438e-03  2.346713e-06
    838    829   2   0.50000    -0.1150000   -0.1800000   1.091018e-03  2.092768e-06
    838    830   2   0.50000    -0.1150000   -0.1800000   1.091018e-03  2.092768e-06
    838    831   2   0.50000    -0.1150000   -0.1150000   1.172438e-03  2.346713e-06
    826    860   2   0.50000    -0.1150000    0.1150000   2.431434e-04  1.541678e-07
    828    839   2   0.50000     0.2300000   -0.1150000   1.091018e-03  2.092768e-06
    828    860   2   0.50000     0.2300000    0.1150000   2.262583e-04  1.374848e-07
    827    850   2   0.50000    -0.1150000    0.0600000   2.680627e-04  1.873879e-07
    827    851   2   0.50000    -0.1150000    0.0600000   2.680627e-04  1.873879e-07
    827    852   2   0.50000    -0.1150000    0.0600000   2.680627e-04  1.873879e-07
    830    850   2   0.50000    -0.1800000    0.0600000   2.494471e-04  1.671101e-07
    830    851   2   0.50000    -0.1800000    0.0600000   2.494471e-04  1.671101e-07
    830    852   2   0.50000    -0.1800000    0.0600000   2.494471e-04  1.671101e-07
    831    850   2   0.50000    -0.1150000    0.0600000   2.680627e-04  1.873879e-07
    831    851   2   0.50000    -0.1150000    0.0600000   2.680627e-04  1.873879e-07
    831    852   2   0.50000    -0.1150000    0.0600000   2.680627e-04  1.873879e-07
    827    853   2   0.50000    -0.1150000    0.0600000   2.680627e-04  1.873879e-07
    827    854   2   0.50000    -0.1150000    0.0600000   2.680627e-04  1.873879e-07
    827    855   2   0.50000    -0.1150000    0.0600000   2.680627e-04  1.873879e-07
    829    853   2   0.50000    -0.1800000    0.0600000   2.494471e-04  1.671101e-07
    829    854   2   0.50000    -0.1800000    0.0600000   2.494471e-04  1.671101e-07
    829    855   2   0.50000    -0.1800000    0.0600000   2.494471e-04  1.671101e-07
    831    853   2   0.50000    -0.1150000    0.0600000   2.680627e-04  1.873879e-07
    831    854   2   0.50000    -0.1150000    0.0600000   2.680627e-04  1.873879e-07
    831    855   2   0.50000    -0.1150000    0.0600000   2.680627e-04  1.873879e-07
    827    832   2   0.50000    -0.1150000   -0.1150000   1.172438e-03  2.346713e-06
    827    837   2   0.50000    -0.1150000   -0.1150000   1.172438e-03  2.346713e-06
    829    832   2   0.50000    -0.1800000   -0.1150000   1.091018e-03  2.092768e-06
    829    837   2   0.50000    -0.1800000   -0.1150000   1.091018e-03  2.092768e-06
    830    832   2   0.50000    -0.1800000   -0.1150000   1.091018e-03  2.092768e-06
    830    837   2   0.50000    -0.1800000   -0.1150000   1.091018e-03  2.092768e-06
    828    833   2   0.50000     0.2300000   -0.1150000   1.091018e-03  2.092768e-06
    828    856   2   0.50000     0.2300000    0.1150000   2.262583e-04  1.374848e-07
    837    833   2   0.50000    -0.1150000   -0.1150000   1.172438e-03  2.346713e-06
    837    856   2   0.50000    -0.1150000    0.1150000   2.431434e-04  1.541678e-07
    828    836   2   0.50000     0.2300000   -0.1150000   1.091018e-03  2.092768e-06
    828    859   2   0.50000     0.2300000    0.1150000   2.262583e-04  1.374848e-07
    832    836   2   0.50000    -0.1150000   -0.1150000   1.172438e-03  2.346713e-06
    832    859   2   0.50000    -0.1150000    0.1150000   2.431434e-04  1.541678e-07
    831    834   2   0.50000    -0.1150000    0.0850000   1.172438e-03  2.346713e-06
    831    857   2   0.50000    -0.1150000    0.1150000   2.431434e-04  1.541678e-07
    856    834   2   0.50000     0.1150000    0.0850000   2.431434e-04  1.541678e-07
    856    857   2   0.50000     0.1150000    0.1150000   5.042375e-05  1.012808e-08
    832    835   2   0.50000    -0.1150000   -0.1700000   9.038862e-04  9.862632e-07
    857    835   2   0.50000     0.1150000   -0.1700000   1.874504e-04  6.479276e-08
    857    836   2   0.50000     0.1150000   -0.1150000   2.431434e-04  1.541678e-07
    833    866   2   0.50000    -0.1150000    0.0850000   1.172438e-03  2.346713e-06
    836    866   2   0.50000    -0.1150000    0.0850000   1.172438e-03  2.346713e-06
    833    858   2   0.50000    -0.1150000    0.1150000   2.431434e-04  1.541678e-07
    835    837   2   0.50000    -0.1700000   -0.1150000   9.038862e-04  9.862632e-07
    835    858   2   0.50000    -0.1700000    0.1150000   1.874504e-04  6.479276e-08
    834    867   2   0.50000     0.0850000   -0.1150000   1.172438e-03  2.346713e-06
    834    897   2   0.50000     0.0850000   -0.1150000   1.172438e-03  2.346713e-06
    834    859   2   0.50000     0.0850000    0.1150000   2.431434e-04  1.541678e-07
    858    831   2   0.50000     0.1150000   -0.1150000   2.431434e-04  1.541678e-07
    858    859   2   0.50000     0.1150000    0.1150000   5.042375e-05  1.012808e-08
    827    861   2   0.50000    -0.1150000    0.1150000   2.431434e-04  1.541678e-07
    860    824   2   0.50000     0.1150000    0.0850000   2.431434e-04  1.541678e-07
    860    861   2   0.50000     0.1150000    0.1150000   5.042375e-05  1.012808e-08
    822    863   2   0.50000     0.0850000    0.1150000   2.431434e-04  1.541678e-07
    862    819   2   0.50000     0.1150000    0.1380000   2.431434e-04  1.541678e-07
    862    863   2   0.50000     0.1150000    0.1150000   5.042375e-05  1.012808e-08
    815    865   2   0.50000     0.1380000    0.1150000   2.431434e-04  1.541678e-07
    864    812   2   0.50000     0.1150000    0.0850000   2.431434e-04  1.541678e-07
    864    865   2   0.50000     0.1150000    0.1150000   5.042375e-05  1.012808e-08
    835    868   2   0.50000    -0.1700000   -0.1150000   9.038862e-04  9.862632e-07
    835    898   2   0.50000    -0.1700000    0.1150000   1.874504e-04  6.479276e-08
    897    868   2   0.50000    -0.1150000   -0.1150000   1.172438e-03  2.346713e-06
    897    898   2   0.50000    -0.1150000    0.1150000   2.431434e-04  1.541678e-07
    835    896   2   0.50000    -0.1700000   -0.1150000   9.038862e-04  9.862632e-07
    835    919   2   0.50000    -0.1700000    0.1150000   1.874504e-04  6.479276e-08
    867    896   2   0.50000    -0.1150000   -0.1150000   1.172438e-03  2.346713e-06
    867    919   2   0.50000    -0.1150000    0.1150000   2.431434e-04  1.541678e-07
    866    869   2   0.50000     0.0850000    0.1380000   1.172438e-03  2.346713e-06
    866    899   2   0.50000     0.0850000    0.1150000   2.431434e-04  1.541678e-07
    898    869   2   0.50000     0.1150000    0.1380000   2.431434e-04  1.541678e-07
    898    899   2   0.50000     0.1150000    0.1150000   5.042375e-05  1.012808e-08
    867    870   2   0.50000    -0.1150000    0.7840000   2.215699e-03  4.434870e-06
    899    870   2   0.50000     0.1150000    0.7840000   4.594978e-04  2.913497e-07
    899    896   2   0.50000     0.1150000   -0.1150000   2.431434e-04  1.541678e-07
    868    871   2   0.50000    -0.1150000   -0.5300000   1.059145e-03  1.228897e-06
    868    872   2   0.50000    -0.1150000   -0.5300000   1.059145e-03  1.228897e-06
    868    873   2   0.50000    -0.1150000    0.1380000   1.172438e-03  2.346713e-06
    896    871   2   0.50000    -0.1150000   -0.5300000   1.059145e-03  1.228897e-06
    896    872   2   0.50000    -0.1150000   -0.5300000   1.059145e-03  1.228897e-06
    896    873   2   0.50000    -0.1150000    0.1380000   1.172438e-03  2.346713e-06
    868    918   2   0.50000    -0.1150000    0.1150000   2.431434e-04  1.541678e-07
    870    897   2   0.50000     0.7840000   -0.1150000   2.215699e-03  4.434870e-06
    870    918   2   0.50000     0.7840000    0.1150000   4.594978e-04  2.913497e-07
    869    874   2   0.50000     0.1380000   -0.1150000   1.172438e-03  2.346713e-06
    869    895   2   0.50000     0.1380000   -0.1150000   1.172438e-03  2.346713e-06
    871    874   2   0.50000    -0.5300000   -0.1150000   1.059145e-03  1.228897e-06
    871    895   2   0.50000    -0.5300000   -0.1150000   1.059145e-03  1.228897e-06
    872    874   2   0.50000    -0.5300000   -0.1150000   1.059145e-03  1.228897e-06
    872    895   2   0.50000    -0.5300000   -0.1150000   1.059145e-03  1.228897e-06
    870    875   2   0.50000     0.7840000   -0.1150000   2.215699e-03  4.434870e-06
    870    900   2   0.50000     0.7840000    0.1150000   4.594978e-04  2.913497e-07
    895    875   2   0.50000    -0.1150000   -0.1150000   1.172438e-03  2.346713e-06
    895    900   2   0.50000    -0.1150000    0.1150000   2.431434e-04  1.541678e-07
    870    894   2   0.50000     0.7840000   -0.1150000   2.215699e-03  4.434870e-06
    870    917   2   0.50000     0.7840000    0.1150000   4.594978e-04  2.913497e-07
    874    894   2   0.50000    -0.1150000   -0.1150000   1.172438e-03  2.346713e-06
    874    917   2   0.50000    -0.1150000    0.1150000   2.431434e-04  1.541678e-07
    873    876   2   0.50000     0.1380000    0.0850000   1.172438e-03  2.346713e-06
    873    901   2   0.50000     0.1380000    0.1150000   2.431434e-04  1.541678e-07
    900    876   2   0.50000     0.1150000    0.0850000   2.431434e-04  1.541678e-07
    900    901   2   0.50000     0.1150000    0.1150000   5.042375e-05  1.012808e-08
    874    877   2   0.50000    -0.1150000   -0.1700000   9.038862e-04  9.862632e-07
    901    877   2   0.50000     0.1150000   -0.1700000   1.874504e-04  6.479276e-08
    901    894   2   0.50000     0.1150000   -0.1150000   2.431434e-04  1.541678e-07
    875    878   2   0.50000    -0.1150000    0.0850000   1.172438e-03  2.346713e-06
    894    878   2   0.50000    -0.1150000    0.0850000   1.172438e-03  2.346713e-06
    875    916   2   0.50000    -0.1150000    0.1150000   2.431434e-04  1.541678e-07
    877    895   2   0.50000    -0.1700000   -0.1150000   9.038862e-04  9.862632e-07
    877    916   2   0.50000    -0.1700000    0.1150000   1.874504e-04  6.479276e-08
    876    879   2   0.50000     0.0850000   -0.1150000   1.172438e-03  2.346713e-06
    876    893   2   0.50000     0.0850000   -0.1150000   1.172438e-03  2.346713e-06
    877    880   2   0.50000    -0.1700000   -0.1150000   9.038862e-04  9.862632e-07
    877    902   2   0.50000    -0.1700000    0.1150000   1.874504e-04  6.479276e-08
    893    880   2   0.50000    -0.1150000   -0.1150000   1.172438e-03  2.346713e-06
    893    902   2   0.50000    -0.1150000    0.1150000   2.431434e-04  1.541678e-07
    877    892   2   0.50000    -0.1700000   -0.1150000   9.038862e-04  9.862632e-07
    877    915   2   0.50000    -0.1700000    0.1150000   1.874504e-04  6.479276e-08
    879    892   2   0.50000    -0.1150000   -0.1150000   1.172438e-03  2.346713e-06
    879    915   2   0.50000    -0.1150000    0.1150000   2.431434e-04  1.541678e-07
    878    881   2   0.50000     0.0850000   -0.1150000   1.172438e-03  2.346713e-06
    878    903   2   0.50000     0.0850000    0.1150000   2.431434e-04  1.541678e-07
    902    881   2   0.50000     0.1150000   -0.1150000   2.431434e-04  1.541678e-07
    902    903   2   0.50000     0.1150000    0.1150000   5.042375e-05  1.012808e-08
    879    882   2   0.50000    -0.1150000    0.2300000   1.091018e-03  2.092768e-06
    903    882   2   0.50000     0.1150000    0.2300000   2.262583e-04  1.374848e-07
    903    892   2   0.50000     0.1150000   -0.1150000   2.431434e-04  1.541678e-07
    880    883   2   0.50000    -0.1150000   -0.1800000   1.091018e-03  2.092768e-06
    880    884   2   0.50000    -0.1150000   -0.1800000   1.091018e-03  2.092768e-06
    880    885   2   0.50000    -0.1150000   -0.1150000   1.172438e-03  2.346713e-06
    892    883   2   0.50000    -0.1150000   -0.1800000   1.091018e-03  2.092768e-06
    892    884   2   0.50000    -0.1150000   -0.1800000   1.091018e-03  2.092768e-06
    892    885   2   0.50000    -0.1150000   -0.1150000   1.172438e-03  2.346713e-06
    880    914   2   0.50000    -0.1150000    0.1150000   2.431434e-04  1.541678e-07
    882    893   2   0.50000     0.2300000   -0.1150000   1.091018e-03  2.092768e-06
    882    914   2   0.50000     0.2300000    0.1150000   2.262583e-04  1.374848e-07
    881    904   2   0.50000    -0.1150000    0.0600000   2.680627e-04  1.873879e-07
    881    905   2   0.50000    -0.1150000    0.0600000   2.680627e-04  1.873879e-07
    881    906   2   0.50000    -0.1150000    0.0600000   2.680627e-04  1.873879e-07
    884    904   2   0.50000    -0.1800000    0.0600000   2.494471e-04  1.671101e-07
    884    905   2   0.50000    -0.1800000    0.0600000   2.494471e-04  1.671101e-07
    884    906   2   0.50000    -0.1800000    0.0600000   2.494471e-04  1.671101e-07
    885    904   2   0.50000    -0.1150000    0.0600000   2.680627e-04  1.873879e-07
    885    905   2   0.50000    -0.1150000    0.0600000   2.680627e-04  1.873879e-07
    885    906   2   0.50000    -0.1150000    0.0600000   2.680627e-04  1.873879e-07
    881    907   2   0.50000    -0.1150000    0.0600000   2.680627e-04  1.873879e-07
    881    908   2   0.50000    -0.1150000    0.0600000   2.680627e-04  1.873879e-07
    881    909   2   0.50000    -0.1150000    0.0600000   2.680627e-04  1.873879e-07
    883    907   2   0.50000    -0.1800000    0.0600000   2.494471e-04  1.671101e-07
    883    908   2   0.50000    -0.1800000    0.0600000   2.494471e-04  1.671101e-07
    883    909   2   0.50000    -0.1800000    0.0600000   2.494471e-04  1.671101e-07
    885    907   2   0.50000    -0.1150000    0.0600000   2.680627e-04  1.873879e-07
    885    908   2   0.50000    -0.1150000    0.0600000   2.680627e-04  1.873879e-07
    885    909   2   0.50000    -0.1150000    0.0600000   2.680627e-04  1.873879e-07
    881    886   2   0.50000    -0.1150000   -0.1150000   1.172438e-03  2.346713e-06
    881    891   2   0.50000    -0.1150000   -0.1150000   1.172438e-03  2.346713e-06
    883    886   2   0.50000    -0.1800000   -0.1150000   1.091018e-03  2.092768e-06
    883    891   2   0.50000    -0.1800000   -0.1150000   1.091018e-03  2.092768e-06
    884    886   2   0.50000    -0.1800000   -0.1150000   1.091018e-03  2.092768e-06
    884    891   2   0.50000    -0.1800000   -0.1150000   1.091018e-03  2.092768e-06
    882    887   2   0.50000     0.2300000   -0.1150000   1.091018e-03  2.092768e-06
    882    910   2   0.50000     0.2300000    0.1150000   2.262583e-04  1.374848e-07
    891    887   2   0.50000    -0.1150000   -0.1150000   1.172438e-03  2.346713e-06
    891    910   2   0.50000    -0.1150000    0.1150000   2.431434e-04  1.541678e-07
    882    890   2   0.50000     0.2300000   -0.1150000   1.091018e-03  2.092768e-06
    882    913   2   0.50000     0.2300000    0.1150000   2.262583e-04  1.374848e-07
    886    890   2   0.50000    -0.1150000   -0.1150000   1.172438e-03  2.346713e-06
    886    913   2   0.50000    -0.1150000    0.1150000   2.431434e-04  1.541678e-07
    885    888   2   0.50000    -0.1150000    0.0850000   1.172438e-03  2.346713e-06
    885    911   2   0.50000    -0.1150000    0.1150000   2.431434e-04  1.541678e-07
    910    888   2   0.50000     0.1150000    0.0850000   2.431434e-04  1.541678e-07
    910    911   2   0.50000     0.1150000    0.1150000   5.042375e-05  1.012808e-08
    886    889   2   0.50000    -0.1150000   -0.1700000   9.038862e-04  9.862632e-07
    911    889   2   0.50000     0.1150000   -0.1700000   1.874504e-04  6.479276e-08
    911    890   2   0.50000     0.1150000   -0.1150000   2.431434e-04  1.541678e-07
    887    920   2   0.50000    -0.1150000    0.0850000   1.172438e-03  2.346713e-06
    890    920   2   0.50000    -0.1150000    0.0850000   1.172438e-03  2.346713e-06
    887    912   2   0.50000    -0.1150000    0.1150000   2.431434e-04  1.541678e-07
    889    891   2   0.50000    -0.1700000   -0.1150000   9.038862e-04  9.862632e-07
    889    912   2   0.50000    -0.1700000    0.1150000   1.874504e-04  6.479276e-08
    888    921   2   0.50000     0.0850000   -0.1150000   1.172438e-03  2.346713e-06
    888    951   2   0.50000     0.0850000   -0.1150000   1.172438e-03  2.346713e-06
    888    913   2   0.50000     0.0850000    0.1150000   2.431434e-04  1.541678e-07
    912    885   2   0.50000     0.1150000   -0.1150000   2.431434e-04  1.541678e-07
    912    913   2   0.50000     0.1150000    0.1150000   5.042375e-05  1.012808e-08
    881    915   2   0.50000    -0.1150000    0.1150000   2.431434e-04  1.541678e-07
    914    878   2   0.50000     0.1150000    0.0850000   2.431434e-04  1.541678e-07
    914    915   2   0.50000     0.1150000    0.1150000   5.042375e-05  1.012808e-08
    876    917   2   0.50000     0.0850000    0.1150000   2.431434e-04  1.541678e-07
    916    873   2   0.50000     0.1150000    0.1380000   2.431434e-04  1.541678e-07
    916    917   2   0.50000     0.1150000    0.1150000   5.042375e-05  1.012808e-08
    869    919   2   0.50000     0.1380000    0.1150000   2.431434e-04  1.541678e-07
    918    866   2   0.50000     0.1150000    0.0850000   2.431434e-04  1.541678e-07
    918    919   2   0.50000     0.1150000    0.1150000   5.042375e-05  1.012808e-08
    889    922   2   0.50000    -0.1700000   -0.1150000   9.038862e-04  9.862632e-07
    889    952   2   0.50000    -0.1700000    0.1150000   1.874504e-04  6.479276e-08
    951    922   2   0.50000    -0.1150000   -0.1150000   1.172438e-03  2.346713e-06
    951    952   2   0.50000    -0.1150000    0.1150000   2.431434e-04  1.541678e-07
    889    950   2   0.50000    -0.1700000   -0.1150000   9.038862e-04  9.862632e-07
    889    973   2   0.50000    -0.1700000    0.1150000   1.874504e-04  6.479276e-08
    921    950   2   0.50000    -0.1150000   -0.1150000   1.172438e-03  2.346713e-06
    921    973   2   0.50000    -0.1150000    0.1150000   2.431434e-04  1.541678e-07
    920    923   2   0.50000     0.0850000    0.1380000   1.172438e-03  2.346713e-06
    920    953   2   0.50000     0.0850000    0.1150000   2.431434e-04  1.541678e-07
    952    923   2   0.50000     0.1150000    0.1380000   2.431434e-04  1.541678e-07
    952    953   2   0.50000     0.1150000    0.1150000   5.042375e-05  1.012808e-08
    921    924   2   0.50000    -0.1150000    0.7840000   2.215699e-03  4.434870e-06
    953    924   2   0.50000     0.1150000    0.7840000   4.594978e-04  2.913497e-07
    953    950   2   0.50000     0.1150000   -0.1150000   2.431434e-04  1.541678e-07
    922    925   2   0.50000    -0.1150000   -0.5300000   1.059145e-03  1.228897e-06
    922    926   2   0.50000    -0.1150000   -0.5300000   1.059145e-03  1.228897e-06
    922    927   2   0.50000    -0.1150000    0.1380000   1.172438e-03  2.346713e-06
    950    925   2   0.50000    -0.1150000   -0.5300000   1.059145e-03  1.228897e-06
    950    926   2   0.50000    -0.1150000   -0.5300000   1.059145e-03  1.228897e-06
    950    927   2   0.50000    -0.1150000    0.1380000   1.172438e-03  2.346713e-06
    922    972   2   0.50000    -0.1150000    0.1150000   2.431434e-04  1.541678e-07
    924    951   2   0.50000     0.7840000   -0.1150000   2.215699e-03  4.434870e-06
    924    972   2   0.50000     0.7840000    0.1150000   4.594978e-04  2.913497e-07
    923    928   2   0.50000     0.1380000   -0.1150000   1.172438e-03  2.346713e-06
    923    949   2   0.50000     0.1380000   -0.1150000   1.172438e-03  2.346713e-06
    925    928   2   0.50000    -0.5300000   -0.1150000   1.059145e-03  1.228897e-06
    925    949   2   0.50000    -0.5300000   -0.1150000   1.059145e-03  1.228897e-06
    926    928   2   0.50000    -0.5300000   -0.1150000   1.059145e-03  1.228897e-06
    926    949   2   0.50000    -0.5300000   -0.1150000   1.059145e-03  1.228897e-06
    924    929   2   0.50000     0.7840000   -0.1150000   2.215699e-03  4.434870e-06
    924    954   2   0.50000     0.7840000    0.1150000   4.594978e-04  2.913497e-07
    949    929   2   0.50000    -0.1150000   -0.1150000   1.172438e-03  2.346713e-06
    949    954   2   0.50000    -0.1150000    0.1150000   2.431434e-04  1.541678e-07
    924    948   2   0.50000     0.7840000   -0.1150000   2.215699e-03  4.434870e-06
    924    971   2   0.50000     0.7840000    0.1150000   4.594978e-04  2.913497e-07
    928    948   2   0.50000    -0.1150000   -0.1150000   1.172438e-03  2.346713e-06
    928    971   2   0.50000    -0.1150000    0.1150000   2.431434e-04  1.541678e-07
    927    930   2   0.50000     0.1380000    0.0850000   1.172438e-03  2.346713e-06
    927    955   2   0.50000     0.1380000    0.1150000   2.431434e-04  1.541678e-07
    954    930   2   0.50000     0.1150000    0.0850000   2.431434e-04  1.541678e-07
    954    955   2   0.50000     0.1150000    0.1150000   5.042375e-05  1.012808e-08
    928    931   2   0.50000    -0.1150000   -0.1700000   9.038862e-04  9.862632e-07
    955    931   2   0.50000     0.1150000   -0.1700000   1.874504e-04  6.479276e-08
    955    948   2   0.50000     0.1150000   -0.1150000   2.431434e-04  1.541678e-07
    929    932   2   0.50000    -0.1150000    0.0850000   1.172438e-03  2.346713e-06
    948    932   2   0.50000    -0.1150000    0.0850000   1.172438e-03  2.346713e-06
    929    970   2   0.50000    -0.1150000    0.1150000   2.431434e-04  1.541678e-07
    931    949   2   0.50000    -0.1700000   -0.1150000   9.038862e-04  9.862632e-07
    931    970   2   0.50000    -0.1700000    0.1150000   1.874504e-04  6.479276e-08
    930    933   2   0.50000     0.0850000   -0.1150000   1.172438e-03  2.346713e-06
    930    947   2   0.50000     0.0850000   -0.1150000   1.172438e-03  2.346713e-06
    931    934   2   0.50000    -0.1700000   -0.1150000   9.038862e-04  9.862632e-07
    931    956   2   0.50000    -0.1700000    0.1150000   1.874504e-04  6.479276e-08
    947    934   2   0.50000    -0.1150000   -0.1150000   1.172438e-03  2.346713e-06
    947    956   2   0.50000    -0.1150000    0.1150000   2.431434e-04  1.541678e-07
    931    946   2   0.50000    -0.1700000   -0.1150000   9.038862e-04  9.862632e-07
    931    969   2   0.50000    -0.1700000    0.1150000   1.874504e-04  6.479276e-08
    933    946   2   0.50000    -0.1150000   -0.1150000   1.172438e-03  2.346713e-06
    933    969   2   0.50000    -0.1150000    0.1150000   2.431434e-04  1.541678e-07
    932    935   2   0.50000     0.0850000   -0.1150000   1.172438e-03  2.346713e-06
    932    957   2   0.50000     0.0850000    0.1150000   2.431434e-04  1.541678e-07
    956    935   2   0.50000     0.1150000   -0.1150000   2.431434e-04  1.541678e-07
    956    957   2   0.50000     0.1150000    0.1150000   5.042375e-05  1.012808e-08
    933    936   2   0.50000    -0.1150000    0.2300000   1.091018e-03  2.092768e-06
    957    936   2   0.50000     0.1150000    0.2300000   2.262583e-04  1.374848e-07
    957    946   2   0.50000     0.1150000   -0.1150000   2.431434e-04  1.541678e-07
    934    937   2   0.50000    -0.1150000   -0.1800000   1.091018e-03  2.092768e-06
    934    938   2   0.50000    -0.1150000   -0.1800000   1.091018e-03  2.092768e-06
    934    939   2   0.50000    -0.1150000   -0.1150000   1.172438e-03  2.346713e-06
    946    937   2   0.50000    -0.1150000   -0.1800000   1.091018e-03  2.092768e-06
    946    938   2   0.50000    -0.1150000   -0.1800000   1.091018e-03  2.092768e-06
    946    939   2   0.50000    -0.1150000   -0.1150000   1.172438e-03  2.346713e-06
    934    968   2   0.50000    -0.1150000    0.1150000   2.431434e-04  1.541678e-07
    936    947   2   0.50000     0.2300000   -0.1150000   1.091018e-03  2.092768e-06
    936    968   2   0.50000     0.2300000    0.1150000   2.262583e-04  1.374848e-07
    935    958   2   0.50000    -0.1150000    0.0600000   2.680627e-04  1.873879e-07
    935    959   2   0.50000    -0.1150000    0.0600000   2.680627e-04  1.873879e-07
    935    960   2   0.50000    -0.1150000    0.0600000   2.680627e-04  1.873879e-07
    938    958   2   0.50000    -0.1800000    0.0600000   2.494471e-04  1.671101e-07
    938    959   2   0.50000    -0.1800000    0.0600000   2.494471e-04  1.671101e-07
    938    960   2   0.50000    -0.1800000    0.0600000   2.494471e-04  1.671101e-07
    939    958   2   0.50000    -0.1150000    0.0600000   2.680627e-04  1.873879e-07
    939    959   2   0.50000    -0.1150000    0.0600000   2.680627e-04  1.873879e-07
    939    960   2   0.50000    -0.1150000    0.0600000   2.680627e-04  1.873879e-07
    935    961   2   0.50000    -0.1150000    0.0600000   2.680627e-04  1.873879e-07
    935    962   2   0.50000    -0.1150000    0.0600000   2.680627e-04  1.873879e-07
    935    963   2   0.50000    -0.1150000    0.0600000   2.680627e-04  1.873879e-07
    937    961   2   0.50000    -0.1800000    0.0600000   2.494471e-04  1.671101e-07
    937    962   2   0.50000    -0.1800000    0.0600000   2.494471e-04  1.671101e-07
    937    963   2   0.50000    -0.1800000    0.0600000   2.494471e-04  1.671101e-07
    939    961   2   0.50000    -0.1150000    0.0600000   2.680627e-04  1.873879e-07
    939    962   2   0.50000    -0.1150000    0.0600000   2.680627e-04  1.873879e-07
    939    963   2   0.50000    -0.1150000    0.0600000   2.680627e-04  1.873879e-07
    935    940   2   0.50000    -0.1150000   -0.1150000   1.172438e-03  2.346713e-06
    935    945   2   0.50000    -0.1150000   -0.1150000   1.172438e-03  2.346713e-06
    937    940   2   0.50000    -0.1800000   -0.1150000   1.091018e-03  2.092768e-06
    937    945   2   0.50000    -0.1800000   -0.1150000   1.091018e-03  2.092768e-06
    938    940   2   0.50000    -0.1800000   -0.1150000   1.091018e-03  2.092768e-06
    938    945   2   0.50000    -0.1800000   -0.1150000   1.091018e-03  2.092768e-06
    936    941   2   0.50000     0.2300000   -0.1150000   1.091018e-03  2.092768e-06
    936    964   2   0.50000     0.2300000    0.1150000   2.262583e-04  1.374848e-07
    945    941   2   0.50000    -0.1150000   -0.1150000   1.172438e-03  2.346713e-06
    945    964   2   0.50000    -0.1150000    0.1150000   2.431434e-04  1.541678e-07
    936    944   2   0.50000     0.2300000   -0.1150000   1.091018e-03  2.092768e-06
    936    967   2   0.50000     0.2300000    0.1150000   2.262583e-04  1.374848e-07
    940    944   2   0.50000    -0.1150000   -0.1150000   1.172438e-03  2.346713e-06
    940    967   2   0.50000    -0.1150000    0.1150000   2.431434e-04  1.541678e-07
    939    942   2   0.50000    -0.1150000    0.0850000   1.172438e-03  2.346713e-06
    939    965   2   0.50000    -0.1150000    0.1150000   2.431434e-04  1.541678e-07
    964    942   2   0.50000     0.1150000    0.0850000   2.431434e-04  1.541678e-07
    964    965   2   0.50000     0.1150000    0.1150000   5.042375e-05  1.012808e-08
    940    943   2   0.50000    -0.1150000   -0.1700000   9.038862e-04  9.862632e-07
    965    943   2   0.50000     0.1150000   -0.1700000   1.874504e-04  6.479276e-08
    965    944   2   0.50000     0.1150000   -0.1150000   2.431434e-04  1.541678e-07
    941    974   2   0.50000    -0.1150000    0.0850000   1.172438e-03  2.346713e-06
    944    974   2   0.50000    -0.1150000    0.0850000   1.172438e-03  2.346713e-06
    941    966   2   0.50000    -0.1150000    0.1150000   2.431434e-04  1.541678e-07
    943    945   2   0.50000    -0.1700000   -0.1150000   9.038862e-04  9.862632e-07
    943    966   2   0.50000    -0.1700000    0.1150000   1.874504e-04  6.479276e-08
    942    975   2   0.50000     0.0850000   -0.1150000   1.172438e-03  2.346713e-06
    942   1005   2   0.50000     0.0850000   -0.1150000   1.172438e-03  2.346713e-06
    942    967   2   0.50000     0.0850000    0.1150000   2.431434e-04  1.541678e-07
    966    939   2   0.50000     0.1150000   -0.1150000   2.431434e-04  1.541678e-07
    966    967   2   0.50000     0.1150000    0.1150000   5.042375e-05  1.012808e-08
    935    969   2   0.50000    -0.1150000    0.1150000   2.431434e-04  1.541678e-07
    968    932   2   0.50000     0.1150000    0.0850000   2.431434e-04  1.541678e-07
    968    969   2   0.50000     0.1150000    0.1150000   5.042375e-05  1.012808e-08
    930    971   2   0.50000     0.0850000    0.1150000   2.431434e-04  1.541678e-07
    970    927   2   0.50000     0.1150000    0.1380000   2.431434e-04  1.541678e-07
    970    971   2   0.50000     0.1150000    0.1150000   5.042375e-05  1.012808e-08
    923    973   2   0.50000     0.1380000    0.1150000   2.431434e-04  1.541678e-07
    972    920   2   0.50000     0.1150000    0.0850000   2.431434e-04  1.541678e-07
    972    973   2   0.50000     0.1150000    0.1150000   5.042375e-05  1.012808e-08
    943    976   2   0.50000    -0.1700000   -0.1150000   9.038862e-04  9.862632e-07
    943   1006   2   0.50000    -0.1700000    0.1150000   1.874504e-04  6.479276e-08
   1005    976   2   0.50000    -0.1150000   -0.1150000   1.172438e-03  2.346713e-06
   1005   1006   2   0.50000    -0.1150000    0.1150000   2.431434e-04  1.541678e-07
    943   1004   2   0.50000    -0.1700000   -0.1150000   9.038862e-04  9.862632e-07
    943   1027   2   0.50000    -0.1700000    0.1150000   1.874504e-04  6.479276e-08
    975   1004   2   0.50000    -0.1150000   -0.1150000   1.172438e-03  2.346713e-06
    975   1027   2   0.50000    -0.1150000    0.1150000   2.431434e-04  1.541678e-07
    974    977   2   0.50000     0.0850000    0.1380000   1.172438e-03  2.346713e-06
    974   1007   2   0.50000     0.0850000    0.1150000   2.431434e-04  1.541678e-07
   1006    977   2   0.50000     0.1150000    0.1380000   2.431434e-04  1.541678e-07
   1006   1007   2   0.50000     0.1150000    0.1150000   5.042375e-05  1.012808e-08
    975    978   2   0.50000    -0.1150000    0.7840000   2.215699e-03  4.434870e-06
   1007    978   2   0.50000     0.1150000    0.7840000   4.594978e-04  2.913497e-07
   1007   1004   2   0.50000     0.1150000   -0.1150000   2.431434e-04  1.541678e-07
    976    979   2   0.50000    -0.1150000   -0.5300000   1.059145e-03  1.228897e-06
    976    980   2   0.50000    -0.1150000   -0.5300000   1.059145e-03  1.228897e-06
    976    981   2   0.50000    -0.1150000    0.1380000   1.172438e-03  2.346713e-06
   1004    979   2   0.50000    -0.1150000   -0.5300000   1.059145e-03  1.228897e-06
   1004    980   2   0.50000    -0.1150000   -0.5300000   1.059145e-03  1.228897e-06
   1004    981   2   0.50000    -0.1150000    0.1380000   1.172438e-03  2.346713e-06
    976   1026   2   0.50000    -0.1150000    0.1150000   2.431434e-04  1.541678e-07
    978   1005   2   0.50000     0.7840000   -0.1150000   2.215699e-03  4.434870e-06
    978   1026   2   0.50000     0.7840000    0.1150000   4.594978e-04  2.913497e-07
    977    982   2   0.50000     0.1380000   -0.1150000   1.172438e-03  2.346713e-06
    977   1003   2   0.50000     0.1380000   -0.1150000   1.172438e-03  2.346713e-06
    979    982   2   0.50000    -0.5300000   -0.1150000   1.059145e-03  1.228897e-06
    979   1003   2   0.50000    -0.5300000   -0.1150000   1.059145e-03  1.228897e-06
    980    982   2   0.50000    -0.5300000   -0.1150000   1.059145e-03  1.228897e-06
    980   1003   2   0.50000    -0.5300000   -0.1150000   1.059145e-03  1.228897e-06
    978    983   2   0.50000     0.7840000   -0.1150000   2.215699e-03  4.434870e-06
    978   1008   2   0.50000     0.7840000    0.1150000   4.594978e-04  2.913497e-07
   1003    983   2   0.50000    -0.1150000   -0.1150000   1.172438e-03  2.346713e-06
   1003   1008   2   0.50000    -0.1150000    0.1150000   2.431434e-04  1.541678e-07
    978   1002   2   0.50000     0.7840000   -0.1150000   2.215699e-03  4.434870e-06
    978   1025   2   0.50000     0.7840000    0.1150000   4.594978e-04  2.913497e-07
    982   1002   2   0.50000    -0.1150000   -0.1150000   1.172438e-03  2.346713e-06
    982   1025   2   0.50000    -0.1150000    0.1150000   2.431434e-04  1.541678e-07
    981    984   2   0.50000     0.1380000    0.0850000   1.172438e-03  2.346713e-06
    981   1009   2   0.50000     0.1380000    0.1150000   2.431434e-04  1.541678e-07
   1008    984   2   0.50000     0.1150000    0.0850000   2.431434e-04  1.541678e-07
   1008   1009   2   0.50000     0.1150000    0.1150000   5.042375e-05  1.012808e-08
    982    985   2   0.50000    -0.1150000   -0.1700000   9.038862e-04  9.862632e-07
   1009    985   2   0.50000     0.1150000   -0.1700000   1.874504e-04  6.479276e-08
   1009   1002   2   0.50000     0.1150000   -0.1150000   2.431434e-04  1.541678e-07
    983    986   2   0.50000    -0.1150000    0.0850000   1.172438e-03  2.346713e-06
   1002    986   2   0.50000    -0.1150000    0.0850000   1.172438e-03  2.346713e-06
    983   1024   2   0.50000    -0.1150000    0.1150000   2.431434e-04  1.541678e-07
    985   1003   2   0.50000    -0.1700000   -0.1150000   9.038862e-04  9.862632e-07
    985   1024   2   0.50000    -0.1700000    0.1150000   1.874504e-04  6.479276e-08
    984    987   2   0.50000     0.0850000   -0.1150000   1.172438e-03  2.346713e-06
    984   1001   2   0.50000     0.0850000   -0.1150000   1.172438e-03  2.346713e-06
    985    988   2   0.50000    -0.1700000   -0.1150000   9.038862e-04  9.862632e-07
    985   1010   2   0.50000    -0.1700000    0.1150000   1.874504e-04  6.479276e-08
   1001    988   2   0.50000    -0.1150000   -0.1150000   1.172438e-03  2.346713e-06
   1001   1010   2   0.50000    -0.1150000    0.1150000   2.431434e-04  1.541678e-07
    985   1000   2   0.50000    -0.1700000   -0.1150000   9.038862e-04  9.862632e-07
    985   1023   2   0.50000    -0.1700000    0.1150000   1.874504e-04  6.479276e-08
    987   1000   2   0.50000    -0.1150000   -0.1150000   1.172438e-03  2.346713e-06
    987   1023   2   0.50000    -0.1150000    0.1150000   2.431434e-04  1.541678e-07
    986    989   2   0.50000     0.0850000   -0.1150000   1.172438e-03  2.346713e-06
    986   1011   2   0.50000     0.0850000    0.1150000   2.431434e-04  1.541678e-07
   1010    989   2   0.50000     0.1150000   -0.1150000   2.431434e-04  1.541678e-07
   1010   1011   2   0.50000     0.1150000    0.1150000   5.042375e-05  1.012808e-08
    987    990   2   0.50000    -0.1150000    0.2300000   1.091018e-03  2.092768e-06
   1011    990   2   0.50000     0.1150000    0.2300000   2.262583e-04  1.374848e-07
   1011   1000   2   0.50000     0.1150000   -0.1150000   2.431434e-04  1.541678e-07
    988    991   2   0.50000    -0.1150000   -0.1800000   1.091018e-03  2.092768e-06
    988    992   2   0.50000    -0.1150000   -0.1800000   1.091018e-03  2.092768e-06
    988    993   2   0.50000    -0.1150000   -0.1150000   1.172438e-03  2.346713e-06
   1000    991   2   0.50000    -0.1150000   -0.1800000   1.091018e-03  2.092768e-06
   1000    992   2   0.50000    -0.1150000   -0.1800000   1.091018e-03  2.092768e-06
   1000    993   2   0.50000    -0.1150000   -0.1150000   1.172438e-03  2.346713e-06
    988   1022   2   0.50000    -0.1150000    0.1150000   2.431434e-04  1.541678e-07
    990   1001   2   0.50000     0.2300000   -0.1150000   1.091018e-03  2.092768e-06
    990   1022   2   0.50000     0.2300000    0.1150000   2.262583e-04  1.374848e-07
    989   1012   2   0.50000    -0.1150000    0.0600000   2.680627e-04  1.873879e-07
    989   1013   2   0.50000    -0.1150000    0.0600000   2.680627e-04  1.873879e-07
    989   1014   2   0.50000    -0.1150000    0.0600000   2.680627e-04  1.873879e-07
    992   1012   2   0.50000    -0.1800000    0.0600000   2.494471e-04  1.671101e-07
    992   1013   2   0.50000    -0.1800000    0.0600000   2.494471e-04  1.671101e-07
    992   1014   2   0.50000    -0.1800000    0.0600000   2.494471e-04  1.671101e-07
    993   1012   2   0.50000    -0.1150000    0.0600000   2.680627e-04  1.873879e-07
    993   1013   2   0.50000    -0.1150000    0.0600000   2.680627e-04  1.873879e-07
    993   1014   2   0.50000    -0.1150000    0.0600000   2.680627e-04  1.873879e-07
    989   1015   2   0.50000    -0.1150000    0.0600000   2.680627e-04  1.873879e-07
    989   1016   2   0.50000    -0.1150000    0.0600000   2.680627e-04  1.873879e-07
    989   1017   2   0.50000    -0.1150000    0.0600000   2.680627e-04  1.873879e-07
    991   1015   2   0.50000    -0.1800000    0.0600000   2.494471e-04  1.671101e-07
    991   1016   2   0.50000    -0.1800000    0.0600000   2.494471e-04  1.671101e-07
    991   1017   2   0.50000    -0.1800000    0.0600000   2.494471e-04  1.671101e-07
    993   1015   2   0.50000    -0.1150000    0.0600000   2.680627e-04  1.873879e-07
    993   1016   2   0.50000    -0.1150000    0.0600000   2.680627e-04  1.873879e-07
    993   1017   2   0.50000    -0.1150000    0.0600000   2.680627e-04  1.873879e-07
    989    994   2   0.50000    -0.1150000   -0.1150000   1.172438e-03  2.346713e-06
    989    999   2   0.50000    -0.1150000   -0.1150000   1.172438e-03  2.346713e-06
    991    994   2   0.50000    -0.1800000   -0.1150000   1.091018e-03  2.092768e-06
    991    999   2   0.50000    -0.1800000   -0.1150000   1.091018e-03  2.092768e-06
    992    994   2   0.50000    -0.1800000   -0.1150000   1.091018e-03  2.092768e-06
    992    999   2   0.50000    -0.1800000   -0.1150000   1.091018e-03  2.092768e-06
    990    995   2   0.50000     0.2300000   -0.1150000   1.091018e-03  2.092768e-06
    990   1018   2   0.50000     0.2300000    0.1150000   2.262583e-04  1.374848e-07
    999    995   2   0.50000    -0.1150000   -0.1150000   1.172438e-03  2.346713e-06
    999   1018   2   0.50000    -0.1150000    0.1150000   2.431434e-04  1.541678e-07
    990    998   2   0.50000     0.2300000   -0.1150000   1.091018e-03  2.092768e-06
    990   1021   2   0.50000     0.2300000    0.1150000   2.262583e-04  1.374848e-07
    994    998   2   0.50000    -0.1150000   -0.1150000   1.172438e-03  2.346713e-06
    994   1021   2   0.50000    -0.1150000    0.1150000   2.431434e-04  1.541678e-07
    993    996   2   0.50000    -0.1150000    0.0850000   1.172438e-03  2.346713e-06
    993   1019   2   0.50000    -0.1150000    0.1150000   2.431434e-04  1.541678e-07
   1018    996   2   0.50000     0.1150000    0.0850000   2.431434e-04  1.541678e-07
   1018   1019   2   0.50000     0.1150000    0.1150000   5.042375e-05  1.012808e-08
    994    997   2   0.50000    -0.1150000   -0.1700000   9.038862e-04  9.862632e-07
   1019    997   2   0.50000     0.1150000   -0.1700000   1.874504e-04  6.479276e-08
   1019    998   2   0.50000     0.1150000   -0.1150000   2.431434e-04  1.541678e-07
    995   1028   2   0.50000    -0.1150000    0.0850000   1.172438e-03  2.346713e-06
    998   1028   2   0.50000    -0.1150000    0.0850000   1.172438e-03  2.346713e-06
    995   1020   2   0.50000    -0.1150000    0.1150000   2.431434e-04  1.541678e-07
    997    999   2   0.50000    -0.1700000   -0.1150000   9.038862e-04  9.862632e-07
    997   1020   2   0.50000    -0.1700000    0.1150000   1.874504e-04  6.479276e-08
    996   1029   2   0.50000     0.0850000   -0.1150000   1.172438e-03  2.346713e-06
    996   1059   2   0.50000     0.0850000   -0.1150000   1.172438e-03  2.346713e-06
    996   1021   2   0.50000     0.0850000    0.1150000   2.431434e-04  1.541678e-07
   1020    993   2   0.50000     0.1150000   -0.1150000   2.431434e-04  1.541678e-07
   1020   1021   2   0.50000     0.1150000    0.1150000   5.042375e-05  1.012808e-08
    989   1023   2   0.50000    -0.1150000    0.1150000   2.431434e-04  1.541678e-07
   1022    986   2   0.50000     0.1150000    0.0850000   2.431434e-04  1.541678e-07
   1022   1023   2   0.50000     0.1150000    0.1150000   5.042375e-05  1.012808e-08
    984   1025   2   0.50000     0.0850000    0.1150000   2.431434e-04  1.541678e-07
   1024    981   2   0.50000     0.1150000    0.1380000   2.431434e-04  1.541678e-07
   1024   1025   2   0.50000     0.1150000    0.1150000   5.042375e-05  1.012808e-08
    977   1027   2   0.50000     0.1380000    0.1150000   2.431434e-04  1.541678e-07
   1026    974   2   0.50000     0.1150000    0.0850000   2.431434e-04  1.541678e-07
   1026   1027   2   0.50000     0.1150000    0.1150000   5.042375e-05  1.012808e-08
    997   1030   2   0.50000    -0.1700000   -0.1150000   9.038862e-04  9.862632e-07
    997   1060   2   0.50000    -0.1700000    0.1150000   1.874504e-04  6.479276e-08
   1059   1030   2   0.50000    -0.1150000   -0.1150000   1.172438e-03  2.346713e-06
   1059   1060   2   0.50000    -0.1150000    0.1150000   2.431434e-04  1.541678e-07
    997   1058   2   0.50000    -0.1700000   -0.1150000   9.038862e-04  9.862632e-07
    997   1081   2   0.50000    -0.1700000    0.1150000   1.874504e-04  6.479276e-08
   1029   1058   2   0.50000    -0.1150000   -0.1150000   1.172438e-03  2.346713e-06
   1029   1081   2   0.50000    -0.1150000    0.1150000   2.431434e-04  1.541678e-07
   1028   1031   2   0.50000     0.0850000    0.1380000   1.172438e-03  2.346713e-06
   1028   1061   2   0.50000     0.0850000    0.1150000   2.431434e-04  1.541678e-07
   1060   1031   2   0.50000     0.1150000    0.1380000   2.431434e-04  1.541678e-07
   1060   1061   2   0.50000     0.1150000    0.1150000   5.042375e-05  1.012808e-08
   1029   1032   2   0.50000    -0.1150000    0.7840000   2.215699e-03  4.434870e-06
   1061   1032   2   0.50000     0.1150000    0.7840000   4.594978e-04  2.913497e-07
   1061   1058   2   0.50000     0.1150000   -0.1150000   2.431434e-04  1.541678e-07
   1030   1033   2   0.50000    -0.1150000   -0.5300000   1.059145e-03  1.228897e-06
   1030   1034   2   0.50000    -0.1150000   -0.5300000   1.059145e-03  1.228897e-06
   1030   1035   2   0.50000    -0.1150000    0.1380000   1.172438e-03  2.346713e-06
   1058   1033   2   0.50000    -0.1150000   -0.5300000   1.059145e-03  1.228897e-06
   1058   1034   2   0.50000    -0.1150000   -0.5300000   1.059145e-03  1.228897e-06
   1058   1035   2   0.50000    -0.1150000    0.1380000   1.172438e-03  2.346713e-06
   1030   1080   2   0.50000    -0.1150000    0.1150000   2.431434e-04  1.541678e-07
   1032   1059   2   0.50000     0.7840000   -0.1150000   2.215699e-03  4.434870e-06
   1032   1080   2   0.50000     0.7840000    0.1150000   4.594978e-04  2.913497e-07
   1031   1036   2   0.50000     0.1380000   -0.1150000   1.172438e-03  2.346713e-06
   1031   1057   2   0.50000     0.1380000   -0.1150000   1.172438e-03  2.346713e-06
   1033   1036   2   0.50000    -0.5300000   -0.1150000   1.059145e-03  1.228897e-06
   1033   1057   2   0.50000    -0.5300000   -0.1150000   1.059145e-03  1.228897e-06
   1034   1036   2   0.50000    -0.5300000   -0.1150000   1.059145e-03  1.228897e-06
   1034   1057   2   0.50000    -0.5300000   -0.1150000   1.059145e-03  1.228897e-06
   1032   1037   2   0.50000     0.7840000   -0.1150000   2.215699e-03  4.434870e-06
   1032   1062   2   0.50000     0.7840000    0.1150000   4.594978e-04  2.913497e-07
   1057   1037   2   0.50000    -0.1150000   -0.1150000   1.172438e-03  2.346713e-06
   1057   1062   2   0.50000    -0.1150000    0.1150000   2.431434e-04  1.541678e-07
   1032   1056   2   0.50000     0.7840000   -0.1150000   2.215699e-03  4.434870e-06
   1032   1079   2   0.50000     0.7840000    0.1150000   4.594978e-04  2.913497e-07
   1036   1056   2   0.50000    -0.1150000   -0.1150000   1.172438e-03  2.346713e-06
   1036   1079   2   0.50000    -0.1150000    0.1150000   2.431434e-04  1.541678e-07
   1035   1038   2   0.50000     0.1380000    0.0850000   1.172438e-03  2.346713e-06
   1035   1063   2   0.50000     0.1380000    0.1150000   2.431434e-04  1.541678e-07
   1062   1038   2   0.50000     0.1150000    0.0850000   2.431434e-04  1.541678e-07
   1062   1063   2   0.50000     0.1150000    0.1150000   5.042375e-05  1.012808e-08
   1036   1039   2   0.50000    -0.1150000   -0.1700000   9.038862e-04  9.862632e-07
   1063   1039   2   0.50000     0.1150000   -0.1700000   1.874504e-04  6.479276e-08
   1063   1056   2   0.50000     0.1150000   -0.1150000   2.431434e-04  1.541678e-07
   1037   1040   2   0.50000    -0.1150000    0.0850000   1.172438e-03  2.346713e-06
   1056   1040   2   0.50000    -0.1150000    0.0850000   1.172438e-03  2.346713e-06
   1037   1078   2   0.50000    -0.1150000    0.1150000   2.431434e-04  1.541678e-07
   1039   1057   2   0.50000    -0.1700000   -0.1150000   9.038862e-04  9.862632e-07
   1039   1078   2   0.50000    -0.1700000    0.1150000   1.874504e-04  6.479276e-08
   1038   1041   2   0.50000     0.0850000   -0.1150000   1.172438e-03  2.346713e-06
   1038   1055   2   0.50000     0.0850000   -0.1150000   1.172438e-03  2.346713e-06
   1039   1042   2   0.50000    -0.1700000   -0.1150000   9.038862e-04  9.862632e-07
   1039   1064   2   0.50000    -0.1700000    0.1150000   1.874504e-04  6.479276e-08
   1055   1042   2   0.50000    -0.1150000   -0.1150000   1.172438e-03  2.346713e-06
   1055   1064   2   0.50000    -0.1150000    0.1150000   2.431434e-04  1.541678e-07
   1039   1054   2   0.50000    -0.1700000   -0.1150000   9.038862e-04  9.862632e-07
   1039   1077   2   0.50000    -0.1700000    0.1150000   1.874504e-04  6.479276e-08
   1041   1054   2   0.50000    -0.1150000   -0.1150000   1.172438e-03  2.346713e-06
   1041   1077   2   0.50000    -0.1150000    0.1150000   2.431434e-04  1.541678e-07
   1040   1043   2   0.50000     0.0850000   -0.1150000   1.172438e-03  2.346713e-06
   1040   1065   2   0.50000     0.0850000    0.1150000   2.431434e-04  1.541678e-07
   1064   1043   2   0.50000     0.1150000   -0.1150000   2.431434e-04  1.541678e-07
   1064   1065   2   0.50000     0.1150000    0.1150000   5.042375e-05  1.012808e-08
   1041   1044   2   0.50000    -0.1150000    0.2300000   1.091018e-03  2.092768e-06
   1065   1044   2   0.50000     0.1150000    0.2300000   2.262583e-04  1.374848e-07
   1065   1054   2   0.50000     0.1150000   -0.1150000   2.431434e-04  1.541678e-07
   1042   1045   2   0.50000    -0.1150000   -0.1800000   1.091018e-03  2.092768e-06
   1042   1046   2   0.50000    -0.1150000   -0.1800000   1.091018e-03  2.092768e-06
   1042   1047   2   0.50000    -0.1150000   -0.1150000   1.172438e-03  2.346713e-06
   1054   1045   2   0.50000    -0.1150000   -0.1800000   1.091018e-03  2.092768e-06
   1054   1046   2   0.50000    -0.1150000   -0.1800000   1.091018e-03  2.092768e-06
   1054   1047   2   0.50000    -0.1150000   -0.1150000   1.172438e-03  2.346713e-06
   1042   1076   2   0.50000    -0.1150000    0.1150000   2.431434e-04  1.541678e-07
   1044   1055   2   0.50000     0.2300000   -0.1150000   1.091018e-03  2.092768e-06
   1044   1076   2   0.50000     0.2300000    0.1150000   2.262583e-04  1.374848e-07
   1043   1066   2   0.50000    -0.1150000    0.0600000   2.680627e-04  1.873879e-07
   1043   1067   2   0.50000    -0.1150000    0.0600000   2.680627e-04  1.873879e-07
   1043   1068   2   0.50000    -0.1150000    0.0600000   2.680627e-04  1.873879e-07
   1046   1066   2   0.50000    -0.1800000    0.0600000   2.494471e-04  1.671101e-07
   1046   1067   2   0.50000    -0.1800000    0.0600000   2.494471e-04  1.671101e-07
   1046   1068   2   0.50000    -0.1800000    0.0600000   2.494471e-04  1.671101e-07
   1047   1066   2   0.50000    -0.1150000    0.0600000   2.680627e-04  1.873879e-07
   1047   1067   2   0.50000    -0.1150000    0.0600000   2.680627e-04  1.873879e-07
   1047   1068   2   0.50000    -0.1150000    0.0600000   2.680627e-04  1.873879e-07
   1043   1069   2   0.50000    -0.1150000    0.0600000   2.680627e-04  1.873879e-07
   1043   1070   2   0.50000    -0.1150000    0.0600000   2.680627e-04  1.873879e-07
   1043   1071   2   0.50000    -0.1150000    0.0600000   2.680627e-04  1.873879e-07
   1045   1069   2   0.50000    -0.1800000    0.0600000   2.494471e-04  1.671101e-07
   1045   1070   2   0.50000    -0.1800000    0.0600000   2.494471e-04  1.671101e-07
   1045   1071   2   0.50000    -0.1800000    0.0600000   2.494471e-04  1.671101e-07
   1047   1069   2   0.50000    -0.1150000    0.0600000   2.680627e-04  1.873879e-07
   1047   1070   2   0.50000    -0.1150000    0.0600000   2.680627e-04  1.873879e-07
   1047   1071   2   0.50000    -0.1150000    0.0600000   2.680627e-04  1.873879e-07
   1043   1048   2   0.50000    -0.1150000   -0.1150000   1.172438e-03  2.346713e-06
   1043   1053   2   0.50000    -0.1150000   -0.1150000   1.172438e-03  2.346713e-06
   1045   1048   2   0.50000    -0.1800000   -0.1150000   1.091018e-03  2.092768e-06
   1045   1053   2   0.50000    -0.1800000   -0.1150000   1.091018e-03  2.092768e-06
   1046   1048   2   0.50000    -0.1800000   -0.1150000   1.091018e-03  2.092768e-06
   1046   1053   2   0.50000    -0.1800000   -0.1150000   1.091018e-03  2.092768e-06
   1044   1049   2   0.50000     0.2300000   -0.1150000   1.091018e-03  2.092768e-06
   1044   1072   2   0.50000     0.2300000    0.1150000   2.262583e-04  1.374848e-07
   1053   1049   2   0.50000    -0.1150000   -0.1150000   1.172438e-03  2.346713e-06
   1053   1072   2   0.50000    -0.1150000    0.1150000   2.431434e-04  1.541678e-07
   1044   1052   2   0.50000     0.2300000   -0.1150000   1.091018e-03  2.092768e-06
   1044   1075   2   0.50000     0.2300000    0.1150000   2.262583e-04  1.374848e-07
   1048   1052   2   0.50000    -0.1150000   -0.1150000   1.172438e-03  2.346713e-06
   1048   1075   2   0.50000    -0.1150000    0.1150000   2.431434e-04  1.541678e-07
   1047   1050   2   0.50000    -0.1150000    0.1500000   1.172438e-03  2.346713e-06
   1047   1073   2   0.50000    -0.1150000    0.1150000   2.431434e-04  1.541678e-07
   1072   1050   2   0.50000     0.1150000    0.1500000   2.431434e-04  1.541678e-07
   1072   1073   2   0.50000     0.1150000    0.1150000   5.042375e-05  1.012808e-08
   1048   1051   2   0.50000    -0.1150000   -0.5850000   1.181668e-03  1.529662e-06
   1073   1051   2   0.50000     0.1150000   -0.5850000   2.450575e-04  1.004915e-07
   1073   1052   2   0.50000     0.1150000   -0.1150000   2.431434e-04  1.541678e-07
   1049   1082   2   0.50000    -0.1150000    0.4350000   2.144502e-06  1.199282e-11
   1052   1082   2   0.50000    -0.1150000    0.4350000   2.144502e-06  1.199282e-11
   1049   1074   2   0.50000    -0.1150000    0.1150000   2.431434e-04  1.541678e-07
   1051   1053   2   0.50000    -0.5850000   -0.1150000   1.181668e-03  1.529662e-06
   1051   1074   2   0.50000    -0.5850000    0.1150000   2.450575e-04  1.004915e-07
   1050   1075   2   0.50000     0.1500000    0.1150000   2.431434e-04  1.541678e-07
   1074   1047   2   0.50000     0.1150000   -0.1150000   2.431434e-04  1.541678e-07
   1074   1075   2   0.50000     0.1150000    0.1150000   5.042375e-05  1.012808e-08
   1043   1077   2   0.50000    -0.1150000    0.1150000   2.431434e-04  1.541678e-07
   1076   1040   2   0.50000     0.1150000    0.0850000   2.431434e-04  1.541678e-07
   1076   1077   2   0.50000     0.1150000    0.1150000   5.042375e-05  1.012808e-08
   1038   1079   2   0.50000     0.0850000    0.1150000   2.431434e-04  1.541678e-07
   1078   1035   2   0.50000     0.1150000    0.1380000   2.431434e-04  1.541678e-07
   1078   1079   2   0.50000     0.1150000    0.1150000   5.042375e-05  1.012808e-08
   1031   1081   2   0.50000     0.1380000    0.1150000   2.431434e-04  1.541678e-07
   1080   1028   2   0.50000     0.1150000    0.0850000   2.431434e-04  1.541678e-07
   1080   1081   2   0.50000     0.1150000    0.1150000   5.042375e-05  1.012808e-08

[ angles ]
; ai  aj  ak
      2      1     32   1    120.0000    527.1840
      2      1     55   1    120.0000    292.8800
     32      1     55   1    120.0000    292.8800
      1      2      3   1    120.0000    527.1840
      1      2     33   1    120.0000    292.8800
      3      2     33   1    120.0000    292.8800
      2      3      4   1    120.0000    527.1840
      2      3     34   1    120.0000    292.8800
      4      3     34   1    120.0000    292.8800
      3      4      5   1    117.0670    543.9200
      3      4     31   1    120.0000    527.1840
      5      4     31   1    117.0670    543.9200
      4      5      6   1    107.6710    836.8000
      4      5      7   1    107.6710    836.8000
      4      5      8   1    104.3600    658.3106
      6      5      7   1    120.1720    962.3200
      6      5      8   1    107.6710    836.8000
      7      5      8   1    107.6710    836.8000
      5      8      9   1    117.0670    543.9200
      5      8     30   1    117.0670    543.9200
      9      8     30   1    120.0000    527.1840
      8      9     10   1    120.0000    527.1840
      8      9     35   1    120.0000    292.8800
     10      9     35   1    120.0000    292.8800
      9     10     11   1    120.0000    527.1840
      9     10     36   1    120.0000    292.8800
     11     10     36   1    120.0000    292.8800
     10     11     12   1    120.0000    585.7600
     10     11     29   1    120.0000    527.1840
     12     11     29   1    120.0000    585.7600
     11     12     13   1    114.7000    711.2800
     12     13     14   1    120.0000    585.7600
     12     13     28   1    120.0000    585.7600
     14     13     28   1    120.0000    527.1840
     13     14     15   1    120.0000    527.1840
     13     14     37   1    120.0000    292.8800
     15     14     37   1    120.0000    292.8800
     14     15     16   1    120.0000    527.1840
     14     15     38   1    120.0000    292.8800
     16     15     38   1    120.0000    292.8800
     15     16     17   1    120.0000    585.7600
     15     16     27   1    120.0000    527.1840
     17     16     27   1    120.0000    585.7600
     16     17     18   1    112.1750    585.7600
     16     17     19   1    112.1750    585.7600
     16     17     20   1    112.0470    585.7600
     18     17     19   1    112.7000    488.2728
     18     17     20   1    112.1750    585.7600
     19     17     20   1    112.1750    585.7600
     17     18     39   1    110.7000    313.8000
     17     18     40   1    110.7000    313.8000
     17     18     41   1    110.7000    313.8000
     39     18     40   1    107.8000    276.1440
     39     18     41   1    107.8000    276.1440
     40     18     41   1    107.8000    276.1440
     17     19     42   1    110.7000    313.8000
     17     19     43   1    110.7000    313.8000
     17     19     44   1    110.7000    313.8000
     42     19     43   1    107.8000    276.1440
     42     19     44   1    107.8000    276.1440
     43     19     44   1    107.8000    276.1440
     17     20     21   1    120.0000    585.7600
     17     20     26   1    120.0000    585.7600
     21     20     26   1    120.0000    527.1840
     20     21     22   1    120.0000    527.1840
     20     21     45   1    120.0000    292.8800
     22     21     45   1    120.0000    292.8800
     21     22     23   1    120.0000    527.1840
     21     22     46   1    120.0000    292.8800
     23     22     46   1    120.0000    292.8800
     22     23     24   1    120.0000    585.7600
     22     23     25   1    120.0000    527.1840
     24     23     25   1    120.0000    585.7600
     23     24     56   1    114.7000    711.2800
     23     25     26   1    120.0000    527.1840
     23     25     47   1    120.0000    292.8800
     26     25     47   1    120.0000    292.8800
     20     26     25   1    120.0000    527.1840
     20     26     48   1    120.0000    292.8800
     25     26     48   1    120.0000    292.8800
     16     27     28   1    120.0000    527.1840
     16     27     49   1    120.0000    292.8800
     28     27     49   1    120.0000    292.8800
     13     28     27   1    120.0000    527.1840
     13     28     50   1    120.0000    292.8800
     27     28     50   1    120.0000    292.8800
     11     29     30   1    120.0000    527.1840
     11     29     51   1    120.0000    292.8800
     30     29     51   1    120.0000    292.8800
      8     30     29   1    120.0000    527.1840
      8     30     52   1    120.0000    292.8800
     29     30     52   1    120.0000    292.8800
      4     31     32   1    120.0000    527.1840
      4     31     53   1    120.0000    292.8800
     32     31     53   1    120.0000    292.8800
      1     32     31   1    120.0000    527.1840
      1     32     54   1    120.0000    292.8800
     31     32     54   1    120.0000    292.8800
     24     56     57   1    120.0000    585.7600
     24     56     87   1    120.0000    585.7600
     57     56     87   1    120.0000    527.1840
     56     57     58   1    120.0000    527.1840
     56     57     88   1    120.0000    292.8800
     58     57     88   1    120.0000    292.8800
     57     58     59   1    120.0000    527.1840
     57     58     89   1    120.0000    292.8800
     59     58     89   1    120.0000    292.8800
     58     59     60   1    117.0670    543.9200
     58     59     86   1    120.0000    527.1840
     60     59     86   1    117.0670    543.9200
     59     60     61   1    107.6710    836.8000
     59     60     62   1    107.6710    836.8000
     59     60     63   1    104.3600    658.3106
     61     60     62   1    120.1720    962.3200
     61     60     63   1    107.6710    836.8000
     62     60     63   1    107.6710    836.8000
     60     63     64   1    117.0670    543.9200
     60     63     85   1    117.0670    543.9200
     64     63     85   1    120.0000    527.1840
     63     64     65   1    120.0000    527.1840
     63     64     90   1    120.0000    292.8800
     65     64     90   1    120.0000    292.8800
     64     65     66   1    120.0000    527.1840
     64     65     91   1    120.0000    292.8800
     66     65     91   1    120.0000    292.8800
     65     66     67   1    120.0000    585.7600
     65     66     84   1    120.0000    527.1840
     67     66     84   1    120.0000    585.7600
     66     67     68   1    114.7000    711.2800
     67     68     69   1    120.0000    585.7600
     67     68     83   1    120.0000    585.7600
     69     68     83   1    120.0000    527.1840
     68     69     70   1    120.0000    527.1840
     68     69     92   1    120.0000    292.8800
     70     69     92   1    120.0000    292.8800
     69     70     71   1    120.0000    527.1840
     69     70     93   1    120.0000    292.8800
     71     70     93   1    120.0000    292.8800
     70     71     72   1    120.0000    585.7600
     70     71     82   1    120.0000    527.1840
     72     71     82   1    120.0000    585.7600
     71     72     73   1    112.1750    585.7600
     71     72     74   1    112.1750    585.7600
     71     72     75   1    112.0470    585.7600
     73     72     74   1    112.7000    488.2728
     73     72     75   1    112.1750    585.7600
     74     72     75   1    112.1750    585.7600
     72     73     94   1    110.7000    313.8000
     72     73     95   1    110.7000    313.8000
     72     73     96   1    110.7000    313.8000
     94     73     95   1    107.8000    276.1440
     94     73     96   1    107.8000    276.1440
     95     73     96   1    107.8000    276.1440
     72     74     97   1    110.7000    313.8000
     72     74     98   1    110.7000    313.8000
     72     74     99   1    110.7000    313.8000
     97     74     98   1    107.8000    276.1440
     97     74     99   1    107.8000    276.1440
     98     74     99   1    107.8000    276.1440
     72     75     76   1    120.0000    585.7600
     72     75     81   1    120.0000    585.7600
     76     75     81   1    120.0000    527.1840
     75     76     77   1    120.0000    527.1840
     75     76    100   1    120.0000    292.8800
     77     76    100   1    120.0000    292.8800
     76     77     78   1    120.0000    527.1840
     76     77    101   1    120.0000    292.8800
     78     77    101   1    120.0000    292.8800
     77     78     79   1    120.0000    585.7600
     77     78     80   1    120.0000    527.1840
     79     78     80   1    120.0000    585.7600
     78     79    110   1    114.7000    711.2800
     78     80     81   1    120.0000    527.1840
     78     80    102   1    120.0000    292.8800
     81     80    102   1    120.0000    292.8800
     75     81     80   1    120.0000    527.1840
     75     81    103   1    120.0000    292.8800
     80     81    103   1    120.0000    292.8800
     71     82     83   1    120.0000    527.1840
     71     82    104   1    120.0000    292.8800
     83     82    104   1    120.0000    292.8800
     68     83     82   1    120.0000    527.1840
     68     83    105   1    120.0000    292.8800
     82     83    105   1    120.0000    292.8800
     66     84     85   1    120.0000    527.1840
     66     84    106   1    120.0000    292.8800
     85     84    106   1    120.0000    292.8800
     63     85     84   1    120.0000    527.1840
     63     85    107   1    120.0000    292.8800
     84     85    107   1    120.0000    292.8800
     59     86     87   1    120.0000    527.1840
     59     86    108   1    120.0000    292.8800
     87     86    108   1    120.0000    292.8800
     56     87     86   1    120.0000    527.1840
     56     87    109   1    120.0000    292.8800
     86     87    109   1    120.0000    292.8800
     79    110    111   1    120.0000    585.7600
     79    110    141   1    120.0000    585.7600
    111    110    141   1    120.0000    527.1840
    110    111    112   1    120.0000    527.1840
    110    111    142   1    120.0000    292.8800
    112    111    142   1    120.0000    292.8800
    111    112    113   1    120.0000    527.1840
    111    112    143   1    120.0000    292.8800
    113    112    143   1    120.0000    292.8800
    112    113    114   1    117.0670    543.9200
    112    113    140   1    120.0000    527.1840
    114    113    140   1    117.0670    543.9200
    113    114    115   1    107.6710    836.8000
    113    114    116   1    107.6710    836.8000
    113    114    117   1    104.3600    658.3106
    115    114    116   1    120.1720    962.3200
    115    114    117   1    107.6710    836.8000
    116    114    117   1    107.6710    836.8000
    114    117    118   1    117.0670    543.9200
    114    117    139   1    117.0670    543.9200
    118    117    139   1    120.0000    527.1840
    117    118    119   1    120.0000    527.1840
    117    118    144   1    120.0000    292.8800
    119    118    144   1    120.0000    292.8800
    118    119    120   1    120.0000    527.1840
    118    119    145   1    120.0000    292.8800
    120    119    145   1    120.0000    292.8800
    119    120    121   1    120.0000    585.7600
    119    120    138   1    120.0000    527.1840
    121    120    138   1    120.0000    585.7600
    120    121    122   1    114.7000    711.2800
    121    122    123   1    120.0000    585.7600
    121    122    137   1    120.0000    585.7600
    123    122    137   1    120.0000    527.1840
    122    123    124   1    120.0000    527.1840
    122    123    146   1    120.0000    292.8800
    124    123    146   1    120.0000    292.8800
    123    124    125   1    120.0000    527.1840
    123    124    147   1    120.0000    292.8800
    125    124    147   1    120.0000    292.8800
    124    125    126   1    120.0000    585.7600
    124    125    136   1    120.0000    527.1840
    126    125    136   1    120.0000    585.7600
    125    126    127   1    112.1750    585.7600
    125    126    128   1    112.1750    585.7600
    125    126    129   1    112.0470    585.7600
    127    126    128   1    112.7000    488.2728
    127    126    129   1    112.1750    585.7600
    128    126    129   1    112.1750    585.7600
    126    127    148   1    110.7000    313.8000
    126    127    149   1    110.7000    313.8000
    126    127    150   1    110.7000    313.8000
    148    127    149   1    107.8000    276.1440
    148    127    150   1    107.8000    276.1440
    149    127    150   1    107.8000    276.1440
    126    128    151   1    110.7000    313.8000
    126    128    152   1    110.7000    313.8000
    126    128    153   1    110.7000    313.8000
    151    128    152   1    107.8000    276.1440
    151    128    153   1    107.8000    276.1440
    152    128    153   1    107.8000    276.1440
    126    129    130   1    120.0000    585.7600
    126    129    135   1    120.0000    585.7600
    130    129    135   1    120.0000    527.1840
    129    130    131   1    120.0000    527.1840
    129    130    154   1    120.0000    292.8800
    131    130    154   1    120.0000    292.8800
    130    131    132   1    120.0000    527.1840
    130    131    155   1    120.0000    292.8800
    132    131    155   1    120.0000    292.8800
    131    132    133   1    120.0000    585.7600
    131    132    134   1    120.0000    527.1840
    133    132    134   1    120.0000    585.7600
    132    133    164   1    114.7000    711.2800
    132    134    135   1    120.0000    527.1840
    132    134    156   1    120.0000    292.8800
    135    134    156   1    120.0000    292.8800
    129    135    134   1    120.0000    527.1840
    129    135    157   1    120.0000    292.8800
    134    135    157   1    120.0000    292.8800
    125    136    137   1    120.0000    527.1840
    125    136    158   1    120.0000    292.8800
    137    136    158   1    120.0000    292.8800
    122    137    136   1    120.0000    527.1840
    122    137    159   1    120.0000    292.8800
    136    137    159   1    120.0000    292.8800
    120    138    139   1    120.0000    527.1840
    120    138    160   1    120.0000    292.8800
    139    138    160   1    120.0000    292.8800
    117    139    138   1    120.0000    527.1840
    117    139    161   1    120.0000    292.8800
    138    139    161   1    120.0000    292.8800
    113    140    141   1    120.0000    527.1840
    113    140    162   1    120.0000    292.8800
    141    140    162   1    120.0000    292.8800
    110    141    140   1    120.0000    527.1840
    110    141    163   1    120.0000    292.8800
    140    141    163   1    120.0000    292.8800
    133    164    165   1    120.0000    585.7600
    133    164    195   1    120.0000    585.7600
    165    164    195   1    120.0000    527.1840
    164    165    166   1    120.0000    527.1840
    164    165    196   1    120.0000    292.8800
    166    165    196   1    120.0000    292.8800
    165    166    167   1    120.0000    527.1840
    165    166    197   1    120.0000    292.8800
    167    166    197   1    120.0000    292.8800
    166    167    168   1    117.0670    543.9200
    166    167    194   1    120.0000    527.1840
    168    167    194   1    117.0670    543.9200
    167    168    169   1    107.6710    836.8000
    167    168    170   1    107.6710    836.8000
    167    168    171   1    104.3600    658.3106
    169    168    170   1    120.1720    962.3200
    169    168    171   1    107.6710    836.8000
    170    168    171   1    107.6710    836.8000
    168    171    172   1    117.0670    543.9200
    168    171    193   1    117.0670    543.9200
    172    171    193   1    120.0000    527.1840
    171    172    173   1    120.0000    527.1840
    171    172    198   1    120.0000    292.8800
    173    172    198   1    120.0000    292.8800
    172    173    174   1    120.0000    527.1840
    172    173    199   1    120.0000    292.8800
    174    173    199   1    120.0000    292.8800
    173    174    175   1    120.0000    585.7600
    173    174    192   1    120.0000    527.1840
    175    174    192   1    120.0000    585.7600
    174    175    176   1    114.7000    711.2800
    175    176    177   1    120.0000    585.7600
    175    176    191   1    120.0000    585.7600
    177    176    191   1    120.0000    527.1840
    176    177    178   1    120.0000    527.1840
    176    177    200   1    120.0000    292.8800
    178    177    200   1    120.0000    292.8800
    177    178    179   1    120.0000    527.1840
    177    178    201   1    120.0000    292.8800
    179    178    201   1    120.0000    292.8800
    178    179    180   1    120.0000    585.7600
    178    179    190   1    120.0000    527.1840
    180    179    190   1    120.0000    585.7600
    179    180    181   1    112.1750    585.7600
    179    180    182   1    112.1750    585.7600
    179    180    183   1    112.0470    585.7600
    181    180    182   1    112.7000    488.2728
    181    180    183   1    112.1750    585.7600
    182    180    183   1    112.1750    585.7600
    180    181    202   1    110.7000    313.8000
    180    181    203   1    110.7000    313.8000
    180    181    204   1    110.7000    313.8000
    202    181    203   1    107.8000    276.1440
    202    181    204   1    107.8000    276.1440
    203    181    204   1    107.8000    276.1440
    180    182    205   1    110.7000    313.8000
    180    182    206   1    110.7000    313.8000
    180    182    207   1    110.7000    313.8000
    205    182    206   1    107.8000    276.1440
    205    182    207   1    107.8000    276.1440
    206    182    207   1    107.8000    276.1440
    180    183    184   1    120.0000    585.7600
    180    183    189   1    120.0000    585.7600
    184    183    189   1    120.0000    527.1840
    183    184    185   1    120.0000    527.1840
    183    184    208   1    120.0000    292.8800
    185    184    208   1    120.0000    292.8800
    184    185    186   1    120.0000    527.1840
    184    185    209   1    120.0000    292.8800
    186    185    209   1    120.0000    292.8800
    185    186    187   1    120.0000    585.7600
    185    186    188   1    120.0000    527.1840
    187    186    188   1    120.0000    585.7600
    186    187    218   1    114.7000    711.2800
    186    188    189   1    120.0000    527.1840
    186    188    210   1    120.0000    292.8800
    189    188    210   1    120.0000    292.8800
    183    189    188   1    120.0000    527.1840
    183    189    211   1    120.0000    292.8800
    188    189    211   1    120.0000    292.8800
    179    190    191   1    120.0000    527.1840
    179    190    212   1    120.0000    292.8800
    191    190    212   1    120.0000    292.8800
    176    191    190   1    120.0000    527.1840
    176    191    213   1    120.0000    292.8800
    190    191    213   1    120.0000    292.8800
    174    192    193   1    120.0000    527.1840
    174    192    214   1    120.0000    292.8800
    193    192    214   1    120.0000    292.8800
    171    193    192   1    120.0000    527.1840
    171    193    215   1    120.0000    292.8800
    192    193    215   1    120.0000    292.8800
    167    194    195   1    120.0000    527.1840
    167    194    216   1    120.0000    292.8800
    195    194    216   1    120.0000    292.8800
    164    195    194   1    120.0000    527.1840
    164    195    217   1    120.0000    292.8800
    194    195    217   1    120.0000    292.8800
    187    218    219   1    120.0000    585.7600
    187    218    249   1    120.0000    585.7600
    219    218    249   1    120.0000    527.1840
    218    219    220   1    120.0000    527.1840
    218    219    250   1    120.0000    292.8800
    220    219    250   1    120.0000    292.8800
    219    220    221   1    120.0000    527.1840
    219    220    251   1    120.0000    292.8800
    221    220    251   1    120.0000    292.8800
    220    221    222   1    117.0670    543.9200
    220    221    248   1    120.0000    527.1840
    222    221    248   1    117.0670    543.9200
    221    222    223   1    107.6710    836.8000
    221    222    224   1    107.6710    836.8000
    221    222    225   1    104.3600    658.3106
    223    222    224   1    120.1720    962.3200
    223    222    225   1    107.6710    836.8000
    224    222    225   1    107.6710    836.8000
    222    225    226   1    117.0670    543.9200
    222    225    247   1    117.0670    543.9200
    226    225    247   1    120.0000    527.1840
    225    226    227   1    120.0000    527.1840
    225    226    252   1    120.0000    292.8800
    227    226    252   1    120.0000    292.8800
    226    227    228   1    120.0000    527.1840
    226    227    253   1    120.0000    292.8800
    228    227    253   1    120.0000    292.8800
    227    228    229   1    120.0000    585.7600
    227    228    246   1    120.0000    527.1840
    229    228    246   1    120.0000    585.7600
    228    229    230   1    114.7000    711.2800
    229    230    231   1    120.0000    585.7600
    229    230    245   1    120.0000    585.7600
    231    230    245   1    120.0000    527.1840
    230    231    232   1    120.0000    527.1840
    230    231    254   1    120.0000    292.8800
    232    231    254   1    120.0000    292.8800
    231    232    233   1    120.0000    527.1840
    231    232    255   1    120.0000    292.8800
    233    232    255   1    120.0000    292.8800
    232    233    234   1    120.0000    585.7600
    232    233    244   1    120.0000    527.1840
    234    233    244   1    120.0000    585.7600
    233    234    235   1    112.1750    585.7600
    233    234    236   1    112.1750    585.7600
    233    234    237   1    112.0470    585.7600
    235    234    236   1    112.7000    488.2728
    235    234    237   1    112.1750    585.7600
    236    234    237   1    112.1750    585.7600
    234    235    256   1    110.7000    313.8000
    234    235    257   1    110.7000    313.8000
    234    235    258   1    110.7000    313.8000
    256    235    257   1    107.8000    276.1440
    256    235    258   1    107.8000    276.1440
    257    235    258   1    107.8000    276.1440
    234    236    259   1    110.7000    313.8000
    234    236    260   1    110.7000    313.8000
    234    236    261   1    110.7000    313.8000
    259    236    260   1    107.8000    276.1440
    259    236    261   1    107.8000    276.1440
    260    236    261   1    107.8000    276.1440
    234    237    238   1    120.0000    585.7600
    234    237    243   1    120.0000    585.7600
    238    237    243   1    120.0000    527.1840
    237    238    239   1    120.0000    527.1840
    237    238    262   1    120.0000    292.8800
    239    238    262   1    120.0000    292.8800
    238    239    240   1    120.0000    527.1840
    238    239    263   1    120.0000    292.8800
    240    239    263   1    120.0000    292.8800
    239    240    241   1    120.0000    585.7600
    239    240    242   1    120.0000    527.1840
    241    240    242   1    120.0000    585.7600
    240    241    272   1    114.7000    711.2800
    240    242    243   1    120.0000    527.1840
    240    242    264   1    120.0000    292.8800
    243    242    264   1    120.0000    292.8800
    237    243    242   1    120.0000    527.1840
    237    243    265   1    120.0000    292.8800
    242    243    265   1    120.0000    292.8800
    233    244    245   1    120.0000    527.1840
    233    244    266   1    120.0000    292.8800
    245    244    266   1    120.0000    292.8800
    230    245    244   1    120.0000    527.1840
    230    245    267   1    120.0000    292.8800
    244    245    267   1    120.0000    292.8800
    228    246    247   1    120.0000    527.1840
    228    246    268   1    120.0000    292.8800
    247    246    268   1    120.0000    292.8800
    225    247    246   1    120.0000    527.1840
    225    247    269   1    120.0000    292.8800
    246    247    269   1    120.0000    292.8800
    221    248    249   1    120.0000    527.1840
    221    248    270   1    120.0000    292.8800
    249    248    270   1    120.0000    292.8800
    218    249    248   1    120.0000    527.1840
    218    249    271   1    120.0000    292.8800
    248    249    271   1    120.0000    292.8800
    241    272    273   1    120.0000    585.7600
    241    272    303   1    120.0000    585.7600
    273    272    303   1    120.0000    527.1840
    272    273    274   1    120.0000    527.1840
    272    273    304   1    120.0000    292.8800
    274    273    304   1    120.0000    292.8800
    273    274    275   1    120.0000    527.1840
    273    274    305   1    120.0000    292.8800
    275    274    305   1    120.0000    292.8800
    274    275    276   1    117.0670    543.9200
    274    275    302   1    120.0000    527.1840
    276    275    302   1    117.0670    543.9200
    275    276    277   1    107.6710    836.8000
    275    276    278   1    107.6710    836.8000
    275    276    279   1    104.3600    658.3106
    277    276    278   1    120.1720    962.3200
    277    276    279   1    107.6710    836.8000
    278    276    279   1    107.6710    836.8000
    276    279    280   1    117.0670    543.9200
    276    279    301   1    117.0670    543.9200
    280    279    301   1    120.0000    527.1840
    279    280    281   1    120.0000    527.1840
    279    280    306   1    120.0000    292.8800
    281    280    306   1    120.0000    292.8800
    280    281    282   1    120.0000    527.1840
    280    281    307   1    120.0000    292.8800
    282    281    307   1    120.0000    292.8800
    281    282    283   1    120.0000    585.7600
    281    282    300   1    120.0000    527.1840
    283    282    300   1    120.0000    585.7600
    282    283    284   1    114.7000    711.2800
    283    284    285   1    120.0000    585.7600
    283    284    299   1    120.0000    585.7600
    285    284    299   1    120.0000    527.1840
    284    285    286   1    120.0000    527.1840
    284    285    308   1    120.0000    292.8800
    286    285    308   1    120.0000    292.8800
    285    286    287   1    120.0000    527.1840
    285    286    309   1    120.0000    292.8800
    287    286    309   1    120.0000    292.8800
    286    287    288   1    120.0000    585.7600
    286    287    298   1    120.0000    527.1840
    288    287    298   1    120.0000    585.7600
    287    288    289   1    112.1750    585.7600
    287    288    290   1    112.1750    585.7600
    287    288    291   1    112.0470    585.7600
    289    288    290   1    112.7000    488.2728
    289    288    291   1    112.1750    585.7600
    290    288    291   1    112.1750    585.7600
    288    289    310   1    110.7000    313.8000
    288    289    311   1    110.7000    313.8000
    288    289    312   1    110.7000    313.8000
    310    289    311   1    107.8000    276.1440
    310    289    312   1    107.8000    276.1440
    311    289    312   1    107.8000    276.1440
    288    290    313   1    110.7000    313.8000
    288    290    314   1    110.7000    313.8000
    288    290    315   1    110.7000    313.8000
    313    290    314   1    107.8000    276.1440
    313    290    315   1    107.8000    276.1440
    314    290    315   1    107.8000    276.1440
    288    291    292   1    120.0000    585.7600
    288    291    297   1    120.0000    585.7600
    292    291    297   1    120.0000    527.1840
    291    292    293   1    120.0000    527.1840
    291    292    316   1    120.0000    292.8800
    293    292    316   1    120.0000    292.8800
    292    293    294   1    120.0000    527.1840
    292    293    317   1    120.0000    292.8800
    294    293    317   1    120.0000    292.8800
    293    294    295   1    120.0000    585.7600
    293    294    296   1    120.0000    527.1840
    295    294    296   1    120.0000    585.7600
    294    295    326   1    114.7000    711.2800
    294    296    297   1    120.0000    527.1840
    294    296    318   1    120.0000    292.8800
    297    296    318   1    120.0000    292.8800
    291    297    296   1    120.0000    527.1840
    291    297    319   1    120.0000    292.8800
    296    297    319   1    120.0000    292.8800
    287    298    299   1    120.0000    527.1840
    287    298    320   1    120.0000    292.8800
    299    298    320   1    120.0000    292.8800
    284    299    298   1    120.0000    527.1840
    284    299    321   1    120.0000    292.8800
    298    299    321   1    120.0000    292.8800
    282    300    301   1    120.0000    527.1840
    282    300    322   1    120.0000    292.8800
    301    300    322   1    120.0000    292.8800
    279    301    300   1    120.0000    527.1840
    279    301    323   1    120.0000    292.8800
    300    301    323   1    120.0000    292.8800
    275    302    303   1    120.0000    527.1840
    275    302    324   1    120.0000    292.8800
    303    302    324   1    120.0000    292.8800
    272    303    302   1    120.0000    527.1840
    272    303    325   1    120.0000    292.8800
    302    303    325   1    120.0000    292.8800
    295    326    327   1    120.0000    585.7600
    295    326    357   1    120.0000    585.7600
    327    326    357   1    120.0000    527.1840
    326    327    328   1    120.0000    527.1840
    326    327    358   1    120.0000    292.8800
    328    327    358   1    120.0000    292.8800
    327    328    329   1    120.0000    527.1840
    327    328    359   1    120.0000    292.8800
    329    328    359   1    120.0000    292.8800
    328    329    330   1    117.0670    543.9200
    328    329    356   1    120.0000    527.1840
    330    329    356   1    117.0670    543.9200
    329    330    331   1    107.6710    836.8000
    329    330    332   1    107.6710    836.8000
    329    330    333   1    104.3600    658.3106
    331    330    332   1    120.1720    962.3200
    331    330    333   1    107.6710    836.8000
    332    330    333   1    107.6710    836.8000
    330    333    334   1    117.0670    543.9200
    330    333    355   1    117.0670    543.9200
    334    333    355   1    120.0000    527.1840
    333    334    335   1    120.0000    527.1840
    333    334    360   1    120.0000    292.8800
    335    334    360   1    120.0000    292.8800
    334    335    336   1    120.0000    527.1840
    334    335    361   1    120.0000    292.8800
    336    335    361   1    120.0000    292.8800
    335    336    337   1    120.0000    585.7600
    335    336    354   1    120.0000    527.1840
    337    336    354   1    120.0000    585.7600
    336    337    338   1    114.7000    711.2800
    337    338    339   1    120.0000    585.7600
    337    338    353   1    120.0000    585.7600
    339    338    353   1    120.0000    527.1840
    338    339    340   1    120.0000    527.1840
    338    339    362   1    120.0000    292.8800
    340    339    362   1    120.0000    292.8800
    339    340    341   1    120.0000    527.1840
    339    340    363   1    120.0000    292.8800
    341    340    363   1    120.0000    292.8800
    340    341    342   1    120.0000    585.7600
    340    341    352   1    120.0000    527.1840
    342    341    352   1    120.0000    585.7600
    341    342    343   1    112.1750    585.7600
    341    342    344   1    112.1750    585.7600
    341    342    345   1    112.0470    585.7600
    343    342    344   1    112.7000    488.2728
    343    342    345   1    112.1750    585.7600
    344    342    345   1    112.1750    585.7600
    342    343    364   1    110.7000    313.8000
    342    343    365   1    110.7000    313.8000
    342    343    366   1    110.7000    313.8000
    364    343    365   1    107.8000    276.1440
    364    343    366   1    107.8000    276.1440
    365    343    366   1    107.8000    276.1440
    342    344    367   1    110.7000    313.8000
    342    344    368   1    110.7000    313.8000
    342    344    369   1    110.7000    313.8000
    367    344    368   1    107.8000    276.1440
    367    344    369   1    107.8000    276.1440
    368    344    369   1    107.8000    276.1440
    342    345    346   1    120.0000    585.7600
    342    345    351   1    120.0000    585.7600
    346    345    351   1    120.0000    527.1840
    345    346    347   1    120.0000    527.1840
    345    346    370   1    120.0000    292.8800
    347    346    370   1    120.0000    292.8800
    346    347    348   1    120.0000    527.1840
    346    347    371   1    120.0000    292.8800
    348    347    371   1    120.0000    292.8800
    347    348    349   1    120.0000    585.7600
    347    348    350   1    120.0000    527.1840
    349    348    350   1    120.0000    585.7600
    348    349    380   1    114.7000    711.2800
    348    350    351   1    120.0000    527.1840
    348    350    372   1    120.0000    292.8800
    351    350    372   1    120.0000    292.8800
    345    351    350   1    120.0000    527.1840
    345    351    373   1    120.0000    292.8800
    350    351    373   1    120.0000    292.8800
    341    352    353   1    120.0000    527.1840
    341    352    374   1    120.0000    292.8800
    353    352    374   1    120.0000    292.8800
    338    353    352   1    120.0000    527.1840
    338    353    375   1    120.0000    292.8800
    352    353    375   1    120.0000    292.8800
    336    354    355   1    120.0000    527.1840
    336    354    376   1    120.0000    292.8800
    355    354    376   1    120.0000    292.8800
    333    355    354   1    120.0000    527.1840
    333    355    377   1    120.0000    292.8800
    354    355    377   1    120.0000    292.8800
    329    356    357   1    120.0000    527.1840
    329    356    378   1    120.0000    292.8800
    357    356    378   1    120.0000    292.8800
    326    357    356   1    120.0000    527.1840
    326    357    379   1    120.0000    292.8800
    356    357    379   1    120.0000    292.8800
    349    380    381   1    120.0000    585.7600
    349    380    411   1    120.0000    585.7600
    381    380    411   1    120.0000    527.1840
    380    381    382   1    120.0000    527.1840
    380    381    412   1    120.0000    292.8800
    382    381    412   1    120.0000    292.8800
    381    382    383   1    120.0000    527.1840
    381    382    413   1    120.0000    292.8800
    383    382    413   1    120.0000    292.8800
    382    383    384   1    117.0670    543.9200
    382    383    410   1    120.0000    527.1840
    384    383    410   1    117.0670    543.9200
    383    384    385   1    107.6710    836.8000
    383    384    386   1    107.6710    836.8000
    383    384    387   1    104.3600    658.3106
    385    384    386   1    120.1720    962.3200
    385    384    387   1    107.6710    836.8000
    386    384    387   1    107.6710    836.8000
    384    387    388   1    117.0670    543.9200
    384    387    409   1    117.0670    543.9200
    388    387    409   1    120.0000    527.1840
    387    388    389   1    120.0000    527.1840
    387    388    414   1    120.0000    292.8800
    389    388    414   1    120.0000    292.8800
    388    389    390   1    120.0000    527.1840
    388    389    415   1    120.0000    292.8800
    390    389    415   1    120.0000    292.8800
    389    390    391   1    120.0000    585.7600
    389    390    408   1    120.0000    527.1840
    391    390    408   1    120.0000    585.7600
    390    391    392   1    114.7000    711.2800
    391    392    393   1    120.0000    585.7600
    391    392    407   1    120.0000    585.7600
    393    392    407   1    120.0000    527.1840
    392    393    394   1    120.0000    527.1840
    392    393    416   1    120.0000    292.8800
    394    393    416   1    120.0000    292.8800
    393    394    395   1    120.0000    527.1840
    393    394    417   1    120.0000    292.8800
    395    394    417   1    120.0000    292.8800
    394    395    396   1    120.0000    585.7600
    394    395    406   1    120.0000    527.1840
    396    395    406   1    120.0000    585.7600
    395    396    397   1    112.1750    585.7600
    395    396    398   1    112.1750    585.7600
    395    396    399   1    112.0470    585.7600
    397    396    398   1    112.7000    488.2728
    397    396    399   1    112.1750    585.7600
    398    396    399   1    112.1750    585.7600
    396    397    418   1    110.7000    313.8000
    396    397    419   1    110.7000    313.8000
    396    397    420   1    110.7000    313.8000
    418    397    419   1    107.8000    276.1440
    418    397    420   1    107.8000    276.1440
    419    397    420   1    107.8000    276.1440
    396    398    421   1    110.7000    313.8000
    396    398    422   1    110.7000    313.8000
    396    398    423   1    110.7000    313.8000
    421    398    422   1    107.8000    276.1440
    421    398    423   1    107.8000    276.1440
    422    398    423   1    107.8000    276.1440
    396    399    400   1    120.0000    585.7600
    396    399    405   1    120.0000    585.7600
    400    399    405   1    120.0000    527.1840
    399    400    401   1    120.0000    527.1840
    399    400    424   1    120.0000    292.8800
    401    400    424   1    120.0000    292.8800
    400    401    402   1    120.0000    527.1840
    400    401    425   1    120.0000    292.8800
    402    401    425   1    120.0000    292.8800
    401    402    403   1    120.0000    585.7600
    401    402    404   1    120.0000    527.1840
    403    402    404   1    120.0000    585.7600
    402    403    434   1    114.7000    711.2800
    402    404    405   1    120.0000    527.1840
    402    404    426   1    120.0000    292.8800
    405    404    426   1    120.0000    292.8800
    399    405    404   1    120.0000    527.1840
    399    405    427   1    120.0000    292.8800
    404    405    427   1    120.0000    292.8800
    395    406    407   1    120.0000    527.1840
    395    406    428   1    120.0000    292.8800
    407    406    428   1    120.0000    292.8800
    392    407    406   1    120.0000    527.1840
    392    407    429   1    120.0000    292.8800
    406    407    429   1    120.0000    292.8800
    390    408    409   1    120.0000    527.1840
    390    408    430   1    120.0000    292.8800
    409    408    430   1    120.0000    292.8800
    387    409    408   1    120.0000    527.1840
    387    409    431   1    120.0000    292.8800
    408    409    431   1    120.0000    292.8800
    383    410    411   1    120.0000    527.1840
    383    410    432   1    120.0000    292.8800
    411    410    432   1    120.0000    292.8800
    380    411    410   1    120.0000    527.1840
    380    411    433   1    120.0000    292.8800
    410    411    433   1    120.0000    292.8800
    403    434    435   1    120.0000    585.7600
    403    434    465   1    120.0000    585.7600
    435    434    465   1    120.0000    527.1840
    434    435    436   1    120.0000    527.1840
    434    435    466   1    120.0000    292.8800
    436    435    466   1    120.0000    292.8800
    435    436    437   1    120.0000    527.1840
    435    436    467   1    120.0000    292.8800
    437    436    467   1    120.0000    292.8800
    436    437    438   1    117.0670    543.9200
    436    437    464   1    120.0000    527.1840
    438    437    464   1    117.0670    543.9200
    437    438    439   1    107.6710    836.8000
    437    438    440   1    107.6710    836.8000
    437    438    441   1    104.3600    658.3106
    439    438    440   1    120.1720    962.3200
    439    438    441   1    107.6710    836.8000
    440    438    441   1    107.6710    836.8000
    438    441    442   1    117.0670    543.9200
    438    441    463   1    117.0670    543.9200
    442    441    463   1    120.0000    527.1840
    441    442    443   1    120.0000    527.1840
    441    442    468   1    120.0000    292.8800
    443    442    468   1    120.0000    292.8800
    442    443    444   1    120.0000    527.1840
    442    443    469   1    120.0000    292.8800
    444    443    469   1    120.0000    292.8800
    443    444    445   1    120.0000    585.7600
    443    444    462   1    120.0000    527.1840
    445    444    462   1    120.0000    585.7600
    444    445    446   1    114.7000    711.2800
    445    446    447   1    120.0000    585.7600
    445    446    461   1    120.0000    585.7600
    447    446    461   1    120.0000    527.1840
    446    447    448   1    120.0000    527.1840
    446    447    470   1    120.0000    292.8800
    448    447    470   1    120.0000    292.8800
    447    448    449   1    120.0000    527.1840
    447    448    471   1    120.0000    292.8800
    449    448    471   1    120.0000    292.8800
    448    449    450   1    120.0000    585.7600
    448    449    460   1    120.0000    527.1840
    450    449    460   1    120.0000    585.7600
    449    450    451   1    112.1750    585.7600
    449    450    452   1    112.1750    585.7600
    449    450    453   1    112.0470    585.7600
    451    450    452   1    112.7000    488.2728
    451    450    453   1    112.1750    585.7600
    452    450    453   1    112.1750    585.7600
    450    451    472   1    110.7000    313.8000
    450    451    473   1    110.7000    313.8000
    450    451    474   1    110.7000    313.8000
    472    451    473   1    107.8000    276.1440
    472    451    474   1    107.8000    276.1440
    473    451    474   1    107.8000    276.1440
    450    452    475   1    110.7000    313.8000
    450    452    476   1    110.7000    313.8000
    450    452    477   1    110.7000    313.8000
    475    452    476   1    107.8000    276.1440
    475    452    477   1    107.8000    276.1440
    476    452    477   1    107.8000    276.1440
    450    453    454   1    120.0000    585.7600
    450    453    459   1    120.0000    585.7600
    454    453    459   1    120.0000    527.1840
    453    454    455   1    120.0000    527.1840
    453    454    478   1    120.0000    292.8800
    455    454    478   1    120.0000    292.8800
    454    455    456   1    120.0000    527.1840
    454    455    479   1    120.0000    292.8800
    456    455    479   1    120.0000    292.8800
    455    456    457   1    120.0000    585.7600
    455    456    458   1    120.0000    527.1840
    457    456    458   1    120.0000    585.7600
    456    457    488   1    114.7000    711.2800
    456    458    459   1    120.0000    527.1840
    456    458    480   1    120.0000    292.8800
    459    458    480   1    120.0000    292.8800
    453    459    458   1    120.0000    527.1840
    453    459    481   1    120.0000    292.8800
    458    459    481   1    120.0000    292.8800
    449    460    461   1    120.0000    527.1840
    449    460    482   1    120.0000    292.8800
    461    460    482   1    120.0000    292.8800
    446    461    460   1    120.0000    527.1840
    446    461    483   1    120.0000    292.8800
    460    461    483   1    120.0000    292.8800
    444    462    463   1    120.0000    527.1840
    444    462    484   1    120.0000    292.8800
    463    462    484   1    120.0000    292.8800
    441    463    462   1    120.0000    527.1840
    441    463    485   1    120.0000    292.8800
    462    463    485   1    120.0000    292.8800
    437    464    465   1    120.0000    527.1840
    437    464    486   1    120.0000    292.8800
    465    464    486   1    120.0000    292.8800
    434    465    464   1    120.0000    527.1840
    434    465    487   1    120.0000    292.8800
    464    465    487   1    120.0000    292.8800
    457    488    489   1    120.0000    585.7600
    457    488    519   1    120.0000    585.7600
    489    488    519   1    120.0000    527.1840
    488    489    490   1    120.0000    527.1840
    488    489    520   1    120.0000    292.8800
    490    489    520   1    120.0000    292.8800
    489    490    491   1    120.0000    527.1840
    489    490    521   1    120.0000    292.8800
    491    490    521   1    120.0000    292.8800
    490    491    492   1    117.0670    543.9200
    490    491    518   1    120.0000    527.1840
    492    491    518   1    117.0670    543.9200
    491    492    493   1    107.6710    836.8000
    491    492    494   1    107.6710    836.8000
    491    492    495   1    104.3600    658.3106
    493    492    494   1    120.1720    962.3200
    493    492    495   1    107.6710    836.8000
    494    492    495   1    107.6710    836.8000
    492    495    496   1    117.0670    543.9200
    492    495    517   1    117.0670    543.9200
    496    495    517   1    120.0000    527.1840
    495    496    497   1    120.0000    527.1840
    495    496    522   1    120.0000    292.8800
    497    496    522   1    120.0000    292.8800
    496    497    498   1    120.0000    527.1840
    496    497    523   1    120.0000    292.8800
    498    497    523   1    120.0000    292.8800
    497    498    499   1    120.0000    585.7600
    497    498    516   1    120.0000    527.1840
    499    498    516   1    120.0000    585.7600
    498    499    500   1    114.7000    711.2800
    499    500    501   1    120.0000    585.7600
    499    500    515   1    120.0000    585.7600
    501    500    515   1    120.0000    527.1840
    500    501    502   1    120.0000    527.1840
    500    501    524   1    120.0000    292.8800
    502    501    524   1    120.0000    292.8800
    501    502    503   1    120.0000    527.1840
    501    502    525   1    120.0000    292.8800
    503    502    525   1    120.0000    292.8800
    502    503    504   1    120.0000    585.7600
    502    503    514   1    120.0000    527.1840
    504    503    514   1    120.0000    585.7600
    503    504    505   1    112.1750    585.7600
    503    504    506   1    112.1750    585.7600
    503    504    507   1    112.0470    585.7600
    505    504    506   1    112.7000    488.2728
    505    504    507   1    112.1750    585.7600
    506    504    507   1    112.1750    585.7600
    504    505    526   1    110.7000    313.8000
    504    505    527   1    110.7000    313.8000
    504    505    528   1    110.7000    313.8000
    526    505    527   1    107.8000    276.1440
    526    505    528   1    107.8000    276.1440
    527    505    528   1    107.8000    276.1440
    504    506    529   1    110.7000    313.8000
    504    506    530   1    110.7000    313.8000
    504    506    531   1    110.7000    313.8000
    529    506    530   1    107.8000    276.1440
    529    506    531   1    107.8000    276.1440
    530    506    531   1    107.8000    276.1440
    504    507    508   1    120.0000    585.7600
    504    507    513   1    120.0000    585.7600
    508    507    513   1    120.0000    527.1840
    507    508    509   1    120.0000    527.1840
    507    508    532   1    120.0000    292.8800
    509    508    532   1    120.0000    292.8800
    508    509    510   1    120.0000    527.1840
    508    509    533   1    120.0000    292.8800
    510    509    533   1    120.0000    292.8800
    509    510    511   1    120.0000    585.7600
    509    510    512   1    120.0000    527.1840
    511    510    512   1    120.0000    585.7600
    510    511    542   1    114.7000    711.2800
    510    512    513   1    120.0000    527.1840
    510    512    534   1    120.0000    292.8800
    513    512    534   1    120.0000    292.8800
    507    513    512   1    120.0000    527.1840
    507    513    535   1    120.0000    292.8800
    512    513    535   1    120.0000    292.8800
    503    514    515   1    120.0000    527.1840
    503    514    536   1    120.0000    292.8800
    515    514    536   1    120.0000    292.8800
    500    515    514   1    120.0000    527.1840
    500    515    537   1    120.0000    292.8800
    514    515    537   1    120.0000    292.8800
    498    516    517   1    120.0000    527.1840
    498    516    538   1    120.0000    292.8800
    517    516    538   1    120.0000    292.8800
    495    517    516   1    120.0000    527.1840
    495    517    539   1    120.0000    292.8800
    516    517    539   1    120.0000    292.8800
    491    518    519   1    120.0000    527.1840
    491    518    540   1    120.0000    292.8800
    519    518    540   1    120.0000    292.8800
    488    519    518   1    120.0000    527.1840
    488    519    541   1    120.0000    292.8800
    518    519    541   1    120.0000    292.8800
    511    542    543   1    120.0000    585.7600
    511    542    573   1    120.0000    585.7600
    543    542    573   1    120.0000    527.1840
    542    543    544   1    120.0000    527.1840
    542    543    574   1    120.0000    292.8800
    544    543    574   1    120.0000    292.8800
    543    544    545   1    120.0000    527.1840
    543    544    575   1    120.0000    292.8800
    545    544    575   1    120.0000    292.8800
    544    545    546   1    117.0670    543.9200
    544    545    572   1    120.0000    527.1840
    546    545    572   1    117.0670    543.9200
    545    546    547   1    107.6710    836.8000
    545    546    548   1    107.6710    836.8000
    545    546    549   1    104.3600    658.3106
    547    546    548   1    120.1720    962.3200
    547    546    549   1    107.6710    836.8000
    548    546    549   1    107.6710    836.8000
    546    549    550   1    117.0670    543.9200
    546    549    571   1    117.0670    543.9200
    550    549    571   1    120.0000    527.1840
    549    550    551   1    120.0000    527.1840
    549    550    576   1    120.0000    292.8800
    551    550    576   1    120.0000    292.8800
    550    551    552   1    120.0000    527.1840
    550    551    577   1    120.0000    292.8800
    552    551    577   1    120.0000    292.8800
    551    552    553   1    120.0000    585.7600
    551    552    570   1    120.0000    527.1840
    553    552    570   1    120.0000    585.7600
    552    553    554   1    114.7000    711.2800
    553    554    555   1    120.0000    585.7600
    553    554    569   1    120.0000    585.7600
    555    554    569   1    120.0000    527.1840
    554    555    556   1    120.0000    527.1840
    554    555    578   1    120.0000    292.8800
    556    555    578   1    120.0000    292.8800
    555    556    557   1    120.0000    527.1840
    555    556    579   1    120.0000    292.8800
    557    556    579   1    120.0000    292.8800
    556    557    558   1    120.0000    585.7600
    556    557    568   1    120.0000    527.1840
    558    557    568   1    120.0000    585.7600
    557    558    559   1    112.1750    585.7600
    557    558    560   1    112.1750    585.7600
    557    558    561   1    112.0470    585.7600
    559    558    560   1    112.7000    488.2728
    559    558    561   1    112.1750    585.7600
    560    558    561   1    112.1750    585.7600
    558    559    580   1    110.7000    313.8000
    558    559    581   1    110.7000    313.8000
    558    559    582   1    110.7000    313.8000
    580    559    581   1    107.8000    276.1440
    580    559    582   1    107.8000    276.1440
    581    559    582   1    107.8000    276.1440
    558    560    583   1    110.7000    313.8000
    558    560    584   1    110.7000    313.8000
    558    560    585   1    110.7000    313.8000
    583    560    584   1    107.8000    276.1440
    583    560    585   1    107.8000    276.1440
    584    560    585   1    107.8000    276.1440
    558    561    562   1    120.0000    585.7600
    558    561    567   1    120.0000    585.7600
    562    561    567   1    120.0000    527.1840
    561    562    563   1    120.0000    527.1840
    561    562    586   1    120.0000    292.8800
    563    562    586   1    120.0000    292.8800
    562    563    564   1    120.0000    527.1840
    562    563    587   1    120.0000    292.8800
    564    563    587   1    120.0000    292.8800
    563    564    565   1    120.0000    585.7600
    563    564    566   1    120.0000    527.1840
    565    564    566   1    120.0000    585.7600
    564    565    596   1    114.7000    711.2800
    564    566    567   1    120.0000    527.1840
    564    566    588   1    120.0000    292.8800
    567    566    588   1    120.0000    292.8800
    561    567    566   1    120.0000    527.1840
    561    567    589   1    120.0000    292.8800
    566    567    589   1    120.0000    292.8800
    557    568    569   1    120.0000    527.1840
    557    568    590   1    120.0000    292.8800
    569    568    590   1    120.0000    292.8800
    554    569    568   1    120.0000    527.1840
    554    569    591   1    120.0000    292.8800
    568    569    591   1    120.0000    292.8800
    552    570    571   1    120.0000    527.1840
    552    570    592   1    120.0000    292.8800
    571    570    592   1    120.0000    292.8800
    549    571    570   1    120.0000    527.1840
    549    571    593   1    120.0000    292.8800
    570    571    593   1    120.0000    292.8800
    545    572    573   1    120.0000    527.1840
    545    572    594   1    120.0000    292.8800
    573    572    594   1    120.0000    292.8800
    542    573    572   1    120.0000    527.1840
    542    573    595   1    120.0000    292.8800
    572    573    595   1    120.0000    292.8800
    565    596    597   1    120.0000    585.7600
    565    596    627   1    120.0000    585.7600
    597    596    627   1    120.0000    527.1840
    596    597    598   1    120.0000    527.1840
    596    597    628   1    120.0000    292.8800
    598    597    628   1    120.0000    292.8800
    597    598    599   1    120.0000    527.1840
    597    598    629   1    120.0000    292.8800
    599    598    629   1    120.0000    292.8800
    598    599    600   1    117.0670    543.9200
    598    599    626   1    120.0000    527.1840
    600    599    626   1    117.0670    543.9200
    599    600    601   1    107.6710    836.8000
    599    600    602   1    107.6710    836.8000
    599    600    603   1    104.3600    658.3106
    601    600    602   1    120.1720    962.3200
    601    600    603   1    107.6710    836.8000
    602    600    603   1    107.6710    836.8000
    600    603    604   1    117.0670    543.9200
    600    603    625   1    117.0670    543.9200
    604    603    625   1    120.0000    527.1840
    603    604    605   1    120.0000    527.1840
    603    604    630   1    120.0000    292.8800
    605    604    630   1    120.0000    292.8800
    604    605    606   1    120.0000    527.1840
    604    605    631   1    120.0000    292.8800
    606    605    631   1    120.0000    292.8800
    605    606    607   1    120.0000    585.7600
    605    606    624   1    120.0000    527.1840
    607    606    624   1    120.0000    585.7600
    606    607    608   1    114.7000    711.2800
    607    608    609   1    120.0000    585.7600
    607    608    623   1    120.0000    585.7600
    609    608    623   1    120.0000    527.1840
    608    609    610   1    120.0000    527.1840
    608    609    632   1    120.0000    292.8800
    610    609    632   1    120.0000    292.8800
    609    610    611   1    120.0000    527.1840
    609    610    633   1    120.0000    292.8800
    611    610    633   1    120.0000    292.8800
    610    611    612   1    120.0000    585.7600
    610    611    622   1    120.0000    527.1840
    612    611    622   1    120.0000    585.7600
    611    612    613   1    112.1750    585.7600
    611    612    614   1    112.1750    585.7600
    611    612    615   1    112.0470    585.7600
    613    612    614   1    112.7000    488.2728
    613    612    615   1    112.1750    585.7600
    614    612    615   1    112.1750    585.7600
    612    613    634   1    110.7000    313.8000
    612    613    635   1    110.7000    313.8000
    612    613    636   1    110.7000    313.8000
    634    613    635   1    107.8000    276.1440
    634    613    636   1    107.8000    276.1440
    635    613    636   1    107.8000    276.1440
    612    614    637   1    110.7000    313.8000
    612    614    638   1    110.7000    313.8000
    612    614    639   1    110.7000    313.8000
    637    614    638   1    107.8000    276.1440
    637    614    639   1    107.8000    276.1440
    638    614    639   1    107.8000    276.1440
    612    615    616   1    120.0000    585.7600
    612    615    621   1    120.0000    585.7600
    616    615    621   1    120.0000    527.1840
    615    616    617   1    120.0000    527.1840
    615    616    640   1    120.0000    292.8800
    617    616    640   1    120.0000    292.8800
    616    617    618   1    120.0000    527.1840
    616    617    641   1    120.0000    292.8800
    618    617    641   1    120.0000    292.8800
    617    618    619   1    120.0000    585.7600
    617    618    620   1    120.0000    527.1840
    619    618    620   1    120.0000    585.7600
    618    619    650   1    114.7000    711.2800
    618    620    621   1    120.0000    527.1840
    618    620    642   1    120.0000    292.8800
    621    620    642   1    120.0000    292.8800
    615    621    620   1    120.0000    527.1840
    615    621    643   1    120.0000    292.8800
    620    621    643   1    120.0000    292.8800
    611    622    623   1    120.0000    527.1840
    611    622    644   1    120.0000    292.8800
    623    622    644   1    120.0000    292.8800
    608    623    622   1    120.0000    527.1840
    608    623    645   1    120.0000    292.8800
    622    623    645   1    120.0000    292.8800
    606    624    625   1    120.0000    527.1840
    606    624    646   1    120.0000    292.8800
    625    624    646   1    120.0000    292.8800
    603    625    624   1    120.0000    527.1840
    603    625    647   1    120.0000    292.8800
    624    625    647   1    120.0000    292.8800
    599    626    627   1    120.0000    527.1840
    599    626    648   1    120.0000    292.8800
    627    626    648   1    120.0000    292.8800
    596    627    626   1    120.0000    527.1840
    596    627    649   1    120.0000    292.8800
    626    627    649   1    120.0000    292.8800
    619    650    651   1    120.0000    585.7600
    619    650    681   1    120.0000    585.7600
    651    650    681   1    120.0000    527.1840
    650    651    652   1    120.0000    527.1840
    650    651    682   1    120.0000    292.8800
    652    651    682   1    120.0000    292.8800
    651    652    653   1    120.0000    527.1840
    651    652    683   1    120.0000    292.8800
    653    652    683   1    120.0000    292.8800
    652    653    654   1    117.0670    543.9200
    652    653    680   1    120.0000    527.1840
    654    653    680   1    117.0670    543.9200
    653    654    655   1    107.6710    836.8000
    653    654    656   1    107.6710    836.8000
    653    654    657   1    104.3600    658.3106
    655    654    656   1    120.1720    962.3200
    655    654    657   1    107.6710    836.8000
    656    654    657   1    107.6710    836.8000
    654    657    658   1    117.0670    543.9200
    654    657    679   1    117.0670    543.9200
    658    657    679   1    120.0000    527.1840
    657    658    659   1    120.0000    527.1840
    657    658    684   1    120.0000    292.8800
    659    658    684   1    120.0000    292.8800
    658    659    660   1    120.0000    527.1840
    658    659    685   1    120.0000    292.8800
    660    659    685   1    120.0000    292.8800
    659    660    661   1    120.0000    585.7600
    659    660    678   1    120.0000    527.1840
    661    660    678   1    120.0000    585.7600
    660    661    662   1    114.7000    711.2800
    661    662    663   1    120.0000    585.7600
    661    662    677   1    120.0000    585.7600
    663    662    677   1    120.0000    527.1840
    662    663    664   1    120.0000    527.1840
    662    663    686   1    120.0000    292.8800
    664    663    686   1    120.0000    292.8800
    663    664    665   1    120.0000    527.1840
    663    664    687   1    120.0000    292.8800
    665    664    687   1    120.0000    292.8800
    664    665    666   1    120.0000    585.7600
    664    665    676   1    120.0000    527.1840
    666    665    676   1    120.0000    585.7600
    665    666    667   1    112.1750    585.7600
    665    666    668   1    112.1750    585.7600
    665    666    669   1    112.0470    585.7600
    667    666    668   1    112.7000    488.2728
    667    666    669   1    112.1750    585.7600
    668    666    669   1    112.1750    585.7600
    666    667    688   1    110.7000    313.8000
    666    667    689   1    110.7000    313.8000
    666    667    690   1    110.7000    313.8000
    688    667    689   1    107.8000    276.1440
    688    667    690   1    107.8000    276.1440
    689    667    690   1    107.8000    276.1440
    666    668    691   1    110.7000    313.8000
    666    668    692   1    110.7000    313.8000
    666    668    693   1    110.7000    313.8000
    691    668    692   1    107.8000    276.1440
    691    668    693   1    107.8000    276.1440
    692    668    693   1    107.8000    276.1440
    666    669    670   1    120.0000    585.7600
    666    669    675   1    120.0000    585.7600
    670    669    675   1    120.0000    527.1840
    669    670    671   1    120.0000    527.1840
    669    670    694   1    120.0000    292.8800
    671    670    694   1    120.0000    292.8800
    670    671    672   1    120.0000    527.1840
    670    671    695   1    120.0000    292.8800
    672    671    695   1    120.0000    292.8800
    671    672    673   1    120.0000    585.7600
    671    672    674   1    120.0000    527.1840
    673    672    674   1    120.0000    585.7600
    672    673    704   1    114.7000    711.2800
    672    674    675   1    120.0000    527.1840
    672    674    696   1    120.0000    292.8800
    675    674    696   1    120.0000    292.8800
    669    675    674   1    120.0000    527.1840
    669    675    697   1    120.0000    292.8800
    674    675    697   1    120.0000    292.8800
    665    676    677   1    120.0000    527.1840
    665    676    698   1    120.0000    292.8800
    677    676    698   1    120.0000    292.8800
    662    677    676   1    120.0000    527.1840
    662    677    699   1    120.0000    292.8800
    676    677    699   1    120.0000    292.8800
    660    678    679   1    120.0000    527.1840
    660    678    700   1    120.0000    292.8800
    679    678    700   1    120.0000    292.8800
    657    679    678   1    120.0000    527.1840
    657    679    701   1    120.0000    292.8800
    678    679    701   1    120.0000    292.8800
    653    680    681   1    120.0000    527.1840
    653    680    702   1    120.0000    292.8800
    681    680    702   1    120.0000    292.8800
    650    681    680   1    120.0000    527.1840
    650    681    703   1    120.0000    292.8800
    680    681    703   1    120.0000    292.8800
    673    704    705   1    120.0000    585.7600
    673    704    735   1    120.0000    585.7600
    705    704    735   1    120.0000    527.1840
    704    705    706   1    120.0000    527.1840
    704    705    736   1    120.0000    292.8800
    706    705    736   1    120.0000    292.8800
    705    706    707   1    120.0000    527.1840
    705    706    737   1    120.0000    292.8800
    707    706    737   1    120.0000    292.8800
    706    707    708   1    117.0670    543.9200
    706    707    734   1    120.0000    527.1840
    708    707    734   1    117.0670    543.9200
    707    708    709   1    107.6710    836.8000
    707    708    710   1    107.6710    836.8000
    707    708    711   1    104.3600    658.3106
    709    708    710   1    120.1720    962.3200
    709    708    711   1    107.6710    836.8000
    710    708    711   1    107.6710    836.8000
    708    711    712   1    117.0670    543.9200
    708    711    733   1    117.0670    543.9200
    712    711    733   1    120.0000    527.1840
    711    712    713   1    120.0000    527.1840
    711    712    738   1    120.0000    292.8800
    713    712    738   1    120.0000    292.8800
    712    713    714   1    120.0000    527.1840
    712    713    739   1    120.0000    292.8800
    714    713    739   1    120.0000    292.8800
    713    714    715   1    120.0000    585.7600
    713    714    732   1    120.0000    527.1840
    715    714    732   1    120.0000    585.7600
    714    715    716   1    114.7000    711.2800
    715    716    717   1    120.0000    585.7600
    715    716    731   1    120.0000    585.7600
    717    716    731   1    120.0000    527.1840
    716    717    718   1    120.0000    527.1840
    716    717    740   1    120.0000    292.8800
    718    717    740   1    120.0000    292.8800
    717    718    719   1    120.0000    527.1840
    717    718    741   1    120.0000    292.8800
    719    718    741   1    120.0000    292.8800
    718    719    720   1    120.0000    585.7600
    718    719    730   1    120.0000    527.1840
    720    719    730   1    120.0000    585.7600
    719    720    721   1    112.1750    585.7600
    719    720    722   1    112.1750    585.7600
    719    720    723   1    112.0470    585.7600
    721    720    722   1    112.7000    488.2728
    721    720    723   1    112.1750    585.7600
    722    720    723   1    112.1750    585.7600
    720    721    742   1    110.7000    313.8000
    720    721    743   1    110.7000    313.8000
    720    721    744   1    110.7000    313.8000
    742    721    743   1    107.8000    276.1440
    742    721    744   1    107.8000    276.1440
    743    721    744   1    107.8000    276.1440
    720    722    745   1    110.7000    313.8000
    720    722    746   1    110.7000    313.8000
    720    722    747   1    110.7000    313.8000
    745    722    746   1    107.8000    276.1440
    745    722    747   1    107.8000    276.1440
    746    722    747   1    107.8000    276.1440
    720    723    724   1    120.0000    585.7600
    720    723    729   1    120.0000    585.7600
    724    723    729   1    120.0000    527.1840
    723    724    725   1    120.0000    527.1840
    723    724    748   1    120.0000    292.8800
    725    724    748   1    120.0000    292.8800
    724    725    726   1    120.0000    527.1840
    724    725    749   1    120.0000    292.8800
    726    725    749   1    120.0000    292.8800
    725    726    727   1    120.0000    585.7600
    725    726    728   1    120.0000    527.1840
    727    726    728   1    120.0000    585.7600
    726    727    758   1    114.7000    711.2800
    726    728    729   1    120.0000    527.1840
    726    728    750   1    120.0000    292.8800
    729    728    750   1    120.0000    292.8800
    723    729    728   1    120.0000    527.1840
    723    729    751   1    120.0000    292.8800
    728    729    751   1    120.0000    292.8800
    719    730    731   1    120.0000    527.1840
    719    730    752   1    120.0000    292.8800
    731    730    752   1    120.0000    292.8800
    716    731    730   1    120.0000    527.1840
    716    731    753   1    120.0000    292.8800
    730    731    753   1    120.0000    292.8800
    714    732    733   1    120.0000    527.1840
    714    732    754   1    120.0000    292.8800
    733    732    754   1    120.0000    292.8800
    711    733    732   1    120.0000    527.1840
    711    733    755   1    120.0000    292.8800
    732    733    755   1    120.0000    292.8800
    707    734    735   1    120.0000    527.1840
    707    734    756   1    120.0000    292.8800
    735    734    756   1    120.0000    292.8800
    704    735    734   1    120.0000    527.1840
    704    735    757   1    120.0000    292.8800
    734    735    757   1    120.0000    292.8800
    727    758    759   1    120.0000    585.7600
    727    758    789   1    120.0000    585.7600
    759    758    789   1    120.0000    527.1840
    758    759    760   1    120.0000    527.1840
    758    759    790   1    120.0000    292.8800
    760    759    790   1    120.0000    292.8800
    759    760    761   1    120.0000    527.1840
    759    760    791   1    120.0000    292.8800
    761    760    791   1    120.0000    292.8800
    760    761    762   1    117.0670    543.9200
    760    761    788   1    120.0000    527.1840
    762    761    788   1    117.0670    543.9200
    761    762    763   1    107.6710    836.8000
    761    762    764   1    107.6710    836.8000
    761    762    765   1    104.3600    658.3106
    763    762    764   1    120.1720    962.3200
    763    762    765   1    107.6710    836.8000
    764    762    765   1    107.6710    836.8000
    762    765    766   1    117.0670    543.9200
    762    765    787   1    117.0670    543.9200
    766    765    787   1    120.0000    527.1840
    765    766    767   1    120.0000    527.1840
    765    766    792   1    120.0000    292.8800
    767    766    792   1    120.0000    292.8800
    766    767    768   1    120.0000    527.1840
    766    767    793   1    120.0000    292.8800
    768    767    793   1    120.0000    292.8800
    767    768    769   1    120.0000    585.7600
    767    768    786   1    120.0000    527.1840
    769    768    786   1    120.0000    585.7600
    768    769    770   1    114.7000    711.2800
    769    770    771   1    120.0000    585.7600
    769    770    785   1    120.0000    585.7600
    771    770    785   1    120.0000    527.1840
    770    771    772   1    120.0000    527.1840
    770    771    794   1    120.0000    292.8800
    772    771    794   1    120.0000    292.8800
    771    772    773   1    120.0000    527.1840
    771    772    795   1    120.0000    292.8800
    773    772    795   1    120.0000    292.8800
    772    773    774   1    120.0000    585.7600
    772    773    784   1    120.0000    527.1840
    774    773    784   1    120.0000    585.7600
    773    774    775   1    112.1750    585.7600
    773    774    776   1    112.1750    585.7600
    773    774    777   1    112.0470    585.7600
    775    774    776   1    112.7000    488.2728
    775    774    777   1    112.1750    585.7600
    776    774    777   1    112.1750    585.7600
    774    775    796   1    110.7000    313.8000
    774    775    797   1    110.7000    313.8000
    774    775    798   1    110.7000    313.8000
    796    775    797   1    107.8000    276.1440
    796    775    798   1    107.8000    276.1440
    797    775    798   1    107.8000    276.1440
    774    776    799   1    110.7000    313.8000
    774    776    800   1    110.7000    313.8000
    774    776    801   1    110.7000    313.8000
    799    776    800   1    107.8000    276.1440
    799    776    801   1    107.8000    276.1440
    800    776    801   1    107.8000    276.1440
    774    777    778   1    120.0000    585.7600
    774    777    783   1    120.0000    585.7600
    778    777    783   1    120.0000    527.1840
    777    778    779   1    120.0000    527.1840
    777    778    802   1    120.0000    292.8800
    779    778    802   1    120.0000    292.8800
    778    779    780   1    120.0000    527.1840
    778    779    803   1    120.0000    292.8800
    780    779    803   1    120.0000    292.8800
    779    780    781   1    120.0000    585.7600
    779    780    782   1    120.0000    527.1840
    781    780    782   1    120.0000    585.7600
    780    781    812   1    114.7000    711.2800
    780    782    783   1    120.0000    527.1840
    780    782    804   1    120.0000    292.8800
    783    782    804   1    120.0000    292.8800
    777    783    782   1    120.0000    527.1840
    777    783    805   1    120.0000    292.8800
    782    783    805   1    120.0000    292.8800
    773    784    785   1    120.0000    527.1840
    773    784    806   1    120.0000    292.8800
    785    784    806   1    120.0000    292.8800
    770    785    784   1    120.0000    527.1840
    770    785    807   1    120.0000    292.8800
    784    785    807   1    120.0000    292.8800
    768    786    787   1    120.0000    527.1840
    768    786    808   1    120.0000    292.8800
    787    786    808   1    120.0000    292.8800
    765    787    786   1    120.0000    527.1840
    765    787    809   1    120.0000    292.8800
    786    787    809   1    120.0000    292.8800
    761    788    789   1    120.0000    527.1840
    761    788    810   1    120.0000    292.8800
    789    788    810   1    120.0000    292.8800
    758    789    788   1    120.0000    527.1840
    758    789    811   1    120.0000    292.8800
    788    789    811   1    120.0000    292.8800
    781    812    813   1    120.0000    585.7600
    781    812    843   1    120.0000    585.7600
    813    812    843   1    120.0000    527.1840
    812    813    814   1    120.0000    527.1840
    812    813    844   1    120.0000    292.8800
    814    813    844   1    120.0000    292.8800
    813    814    815   1    120.0000    527.1840
    813    814    845   1    120.0000    292.8800
    815    814    845   1    120.0000    292.8800
    814    815    816   1    117.0670    543.9200
    814    815    842   1    120.0000    527.1840
    816    815    842   1    117.0670    543.9200
    815    816    817   1    107.6710    836.8000
    815    816    818   1    107.6710    836.8000
    815    816    819   1    104.3600    658.3106
    817    816    818   1    120.1720    962.3200
    817    816    819   1    107.6710    836.8000
    818    816    819   1    107.6710    836.8000
    816    819    820   1    117.0670    543.9200
    816    819    841   1    117.0670    543.9200
    820    819    841   1    120.0000    527.1840
    819    820    821   1    120.0000    527.1840
    819    820    846   1    120.0000    292.8800
    821    820    846   1    120.0000    292.8800
    820    821    822   1    120.0000    527.1840
    820    821    847   1    120.0000    292.8800
    822    821    847   1    120.0000    292.8800
    821    822    823   1    120.0000    585.7600
    821    822    840   1    120.0000    527.1840
    823    822    840   1    120.0000    585.7600
    822    823    824   1    114.7000    711.2800
    823    824    825   1    120.0000    585.7600
    823    824    839   1    120.0000    585.7600
    825    824    839   1    120.0000    527.1840
    824    825    826   1    120.0000    527.1840
    824    825    848   1    120.0000    292.8800
    826    825    848   1    120.0000    292.8800
    825    826    827   1    120.0000    527.1840
    825    826    849   1    120.0000    292.8800
    827    826    849   1    120.0000    292.8800
    826    827    828   1    120.0000    585.7600
    826    827    838   1    120.0000    527.1840
    828    827    838   1    120.0000    585.7600
    827    828    829   1    112.1750    585.7600
    827    828    830   1    112.1750    585.7600
    827    828    831   1    112.0470    585.7600
    829    828    830   1    112.7000    488.2728
    829    828    831   1    112.1750    585.7600
    830    828    831   1    112.1750    585.7600
    828    829    850   1    110.7000    313.8000
    828    829    851   1    110.7000    313.8000
    828    829    852   1    110.7000    313.8000
    850    829    851   1    107.8000    276.1440
    850    829    852   1    107.8000    276.1440
    851    829    852   1    107.8000    276.1440
    828    830    853   1    110.7000    313.8000
    828    830    854   1    110.7000    313.8000
    828    830    855   1    110.7000    313.8000
    853    830    854   1    107.8000    276.1440
    853    830    855   1    107.8000    276.1440
    854    830    855   1    107.8000    276.1440
    828    831    832   1    120.0000    585.7600
    828    831    837   1    120.0000    585.7600
    832    831    837   1    120.0000    527.1840
    831    832    833   1    120.0000    527.1840
    831    832    856   1    120.0000    292.8800
    833    832    856   1    120.0000    292.8800
    832    833    834   1    120.0000    527.1840
    832    833    857   1    120.0000    292.8800
    834    833    857   1    120.0000    292.8800
    833    834    835   1    120.0000    585.7600
    833    834    836   1    120.0000    527.1840
    835    834    836   1    120.0000    585.7600
    834    835    866   1    114.7000    711.2800
    834    836    837   1    120.0000    527.1840
    834    836    858   1    120.0000    292.8800
    837    836    858   1    120.0000    292.8800
    831    837    836   1    120.0000    527.1840
    831    837    859   1    120.0000    292.8800
    836    837    859   1    120.0000    292.8800
    827    838    839   1    120.0000    527.1840
    827    838    860   1    120.0000    292.8800
    839    838    860   1    120.0000    292.8800
    824    839    838   1    120.0000    527.1840
    824    839    861   1    120.0000    292.8800
    838    839    861   1    120.0000    292.8800
    822    840    841   1    120.0000    527.1840
    822    840    862   1    120.0000    292.8800
    841    840    862   1    120.0000    292.8800
    819    841    840   1    120.0000    527.1840
    819    841    863   1    120.0000    292.8800
    840    841    863   1    120.0000    292.8800
    815    842    843   1    120.0000    527.1840
    815    842    864   1    120.0000    292.8800
    843    842    864   1    120.0000    292.8800
    812    843    842   1    120.0000    527.1840
    812    843    865   1    120.0000    292.8800
    842    843    865   1    120.0000    292.8800
    835    866    867   1    120.0000    585.7600
    835    866    897   1    120.0000    585.7600
    867    866    897   1    120.0000    527.1840
    866    867    868   1    120.0000    527.1840
    866    867    898   1    120.0000    292.8800
    868    867    898   1    120.0000    292.8800
    867    868    869   1    120.0000    527.1840
    867    868    899   1    120.0000    292.8800
    869    868    899   1    120.0000    292.8800
    868    869    870   1    117.0670    543.9200
    868    869    896   1    120.0000    527.1840
    870    869    896   1    117.0670    543.9200
    869    870    871   1    107.6710    836.8000
    869    870    872   1    107.6710    836.8000
    869    870    873   1    104.3600    658.3106
    871    870    872   1    120.1720    962.3200
    871    870    873   1    107.6710    836.8000
    872    870    873   1    107.6710    836.8000
    870    873    874   1    117.0670    543.9200
    870    873    895   1    117.0670    543.9200
    874    873    895   1    120.0000    527.1840
    873    874    875   1    120.0000    527.1840
    873    874    900   1    120.0000    292.8800
    875    874    900   1    120.0000    292.8800
    874    875    876   1    120.0000    527.1840
    874    875    901   1    120.0000    292.8800
    876    875    901   1    120.0000    292.8800
    875    876    877   1    120.0000    585.7600
    875    876    894   1    120.0000    527.1840
    877    876    894   1    120.0000    585.7600
    876    877    878   1    114.7000    711.2800
    877    878    879   1    120.0000    585.7600
    877    878    893   1    120.0000    585.7600
    879    878    893   1    120.0000    527.1840
    878    879    880   1    120.0000    527.1840
    878    879    902   1    120.0000    292.8800
    880    879    902   1    120.0000    292.8800
    879    880    881   1    120.0000    527.1840
    879    880    903   1    120.0000    292.8800
    881    880    903   1    120.0000    292.8800
    880    881    882   1    120.0000    585.7600
    880    881    892   1    120.0000    527.1840
    882    881    892   1    120.0000    585.7600
    881    882    883   1    112.1750    585.7600
    881    882    884   1    112.1750    585.7600
    881    882    885   1    112.0470    585.7600
    883    882    884   1    112.7000    488.2728
    883    882    885   1    112.1750    585.7600
    884    882    885   1    112.1750    585.7600
    882    883    904   1    110.7000    313.8000
    882    883    905   1    110.7000    313.8000
    882    883    906   1    110.7000    313.8000
    904    883    905   1    107.8000    276.1440
    904    883    906   1    107.8000    276.1440
    905    883    906   1    107.8000    276.1440
    882    884    907   1    110.7000    313.8000
    882    884    908   1    110.7000    313.8000
    882    884    909   1    110.7000    313.8000
    907    884    908   1    107.8000    276.1440
    907    884    909   1    107.8000    276.1440
    908    884    909   1    107.8000    276.1440
    882    885    886   1    120.0000    585.7600
    882    885    891   1    120.0000    585.7600
    886    885    891   1    120.0000    527.1840
    885    886    887   1    120.0000    527.1840
    885    886    910   1    120.0000    292.8800
    887    886    910   1    120.0000    292.8800
    886    887    888   1    120.0000    527.1840
    886    887    911   1    120.0000    292.8800
    888    887    911   1    120.0000    292.8800
    887    888    889   1    120.0000    585.7600
    887    888    890   1    120.0000    527.1840
    889    888    890   1    120.0000    585.7600
    888    889    920   1    114.7000    711.2800
    888    890    891   1    120.0000    527.1840
    888    890    912   1    120.0000    292.8800
    891    890    912   1    120.0000    292.8800
    885    891    890   1    120.0000    527.1840
    885    891    913   1    120.0000    292.8800
    890    891    913   1    120.0000    292.8800
    881    892    893   1    120.0000    527.1840
    881    892    914   1    120.0000    292.8800
    893    892    914   1    120.0000    292.8800
    878    893    892   1    120.0000    527.1840
    878    893    915   1    120.0000    292.8800
    892    893    915   1    120.0000    292.8800
    876    894    895   1    120.0000    527.1840
    876    894    916   1    120.0000    292.8800
    895    894    916   1    120.0000    292.8800
    873    895    894   1    120.0000    527.1840
    873    895    917   1    120.0000    292.8800
    894    895    917   1    120.0000    292.8800
    869    896    897   1    120.0000    527.1840
    869    896    918   1    120.0000    292.8800
    897    896    918   1    120.0000    292.8800
    866    897    896   1    120.0000    527.1840
    866    897    919   1    120.0000    292.8800
    896    897    919   1    120.0000    292.8800
    889    920    921   1    120.0000    585.7600
    889    920    951   1    120.0000    585.7600
    921    920    951   1    120.0000    527.1840
    920    921    922   1    120.0000    527.1840
    920    921    952   1    120.0000    292.8800
    922    921    952   1    120.0000    292.8800
    921    922    923   1    120.0000    527.1840
    921    922    953   1    120.0000    292.8800
    923    922    953   1    120.0000    292.8800
    922    923    924   1    117.0670    543.9200
    922    923    950   1    120.0000    527.1840
    924    923    950   1    117.0670    543.9200
    923    924    925   1    107.6710    836.8000
    923    924    926   1    107.6710    836.8000
    923    924    927   1    104.3600    658.3106
    925    924    926   1    120.1720    962.3200
    925    924    927   1    107.6710    836.8000
    926    924    927   1    107.6710    836.8000
    924    927    928   1    117.0670    543.9200
    924    927    949   1    117.0670    543.9200
    928    927    949   1    120.0000    527.1840
    927    928    929   1    120.0000    527.1840
    927    928    954   1    120.0000    292.8800
    929    928    954   1    120.0000    292.8800
    928    929    930   1    120.0000    527.1840
    928    929    955   1    120.0000    292.8800
    930    929    955   1    120.0000    292.8800
    929    930    931   1    120.0000    585.7600
    929    930    948   1    120.0000    527.1840
    931    930    948   1    120.0000    585.7600
    930    931    932   1    114.7000    711.2800
    931    932    933   1    120.0000    585.7600
    931    932    947   1    120.0000    585.7600
    933    932    947   1    120.0000    527.1840
    932    933    934   1    120.0000    527.1840
    932    933    956   1    120.0000    292.8800
    934    933    956   1    120.0000    292.8800
    933    934    935   1    120.0000    527.1840
    933    934    957   1    120.0000    292.8800
    935    934    957   1    120.0000    292.8800
    934    935    936   1    120.0000    585.7600
    934    935    946   1    120.0000    527.1840
    936    935    946   1    120.0000    585.7600
    935    936    937   1    112.1750    585.7600
    935    936    938   1    112.1750    585.7600
    935    936    939   1    112.0470    585.7600
    937    936    938   1    112.7000    488.2728
    937    936    939   1    112.1750    585.7600
    938    936    939   1    112.1750    585.7600
    936    937    958   1    110.7000    313.8000
    936    937    959   1    110.7000    313.8000
    936    937    960   1    110.7000    313.8000
    958    937    959   1    107.8000    276.1440
    958    937    960   1    107.8000    276.1440
    959    937    960   1    107.8000    276.1440
    936    938    961   1    110.7000    313.8000
    936    938    962   1    110.7000    313.8000
    936    938    963   1    110.7000    313.8000
    961    938    962   1    107.8000    276.1440
    961    938    963   1    107.8000    276.1440
    962    938    963   1    107.8000    276.1440
    936    939    940   1    120.0000    585.7600
    936    939    945   1    120.0000    585.7600
    940    939    945   1    120.0000    527.1840
    939    940    941   1    120.0000    527.1840
    939    940    964   1    120.0000    292.8800
    941    940    964   1    120.0000    292.8800
    940    941    942   1    120.0000    527.1840
    940    941    965   1    120.0000    292.8800
    942    941    965   1    120.0000    292.8800
    941    942    943   1    120.0000    585.7600
    941    942    944   1    120.0000    527.1840
    943    942    944   1    120.0000    585.7600
    942    943    974   1    114.7000    711.2800
    942    944    945   1    120.0000    527.1840
    942    944    966   1    120.0000    292.8800
    945    944    966   1    120.0000    292.8800
    939    945    944   1    120.0000    527.1840
    939    945    967   1    120.0000    292.8800
    944    945    967   1    120.0000    292.8800
    935    946    947   1    120.0000    527.1840
    935    946    968   1    120.0000    292.8800
    947    946    968   1    120.0000    292.8800
    932    947    946   1    120.0000    527.1840
    932    947    969   1    120.0000    292.8800
    946    947    969   1    120.0000    292.8800
    930    948    949   1    120.0000    527.1840
    930    948    970   1    120.0000    292.8800
    949    948    970   1    120.0000    292.8800
    927    949    948   1    120.0000    527.1840
    927    949    971   1    120.0000    292.8800
    948    949    971   1    120.0000    292.8800
    923    950    951   1    120.0000    527.1840
    923    950    972   1    120.0000    292.8800
    951    950    972   1    120.0000    292.8800
    920    951    950   1    120.0000    527.1840
    920    951    973   1    120.0000    292.8800
    950    951    973   1    120.0000    292.8800
    943    974    975   1    120.0000    585.7600
    943    974   1005   1    120.0000    585.7600
    975    974   1005   1    120.0000    527.1840
    974    975    976   1    120.0000    527.1840
    974    975   1006   1    120.0000    292.8800
    976    975   1006   1    120.0000    292.8800
    975    976    977   1    120.0000    527.1840
    975    976   1007   1    120.0000    292.8800
    977    976   1007   1    120.0000    292.8800
    976    977    978   1    117.0670    543.9200
    976    977   1004   1    120.0000    527.1840
    978    977   1004   1    117.0670    543.9200
    977    978    979   1    107.6710    836.8000
    977    978    980   1    107.6710    836.8000
    977    978    981   1    104.3600    658.3106
    979    978    980   1    120.1720    962.3200
    979    978    981   1    107.6710    836.8000
    980    978    981   1    107.6710    836.8000
    978    981    982   1    117.0670    543.9200
    978    981   1003   1    117.0670    543.9200
    982    981   1003   1    120.0000    527.1840
    981    982    983   1    120.0000    527.1840
    981    982   1008   1    120.0000    292.8800
    983    982   1008   1    120.0000    292.8800
    982    983    984   1    120.0000    527.1840
    982    983   1009   1    120.0000    292.8800
    984    983   1009   1    120.0000    292.8800
    983    984    985   1    120.0000    585.7600
    983    984   1002   1    120.0000    527.1840
    985    984   1002   1    120.0000    585.7600
    984    985    986   1    114.7000    711.2800
    985    986    987   1    120.0000    585.7600
    985    986   1001   1    120.0000    585.7600
    987    986   1001   1    120.0000    527.1840
    986    987    988   1    120.0000    527.1840
    986    987   1010   1    120.0000    292.8800
    988    987   1010   1    120.0000    292.8800
    987    988    989   1    120.0000    527.1840
    987    988   1011   1    120.0000    292.8800
    989    988   1011   1    120.0000    292.8800
    988    989    990   1    120.0000    585.7600
    988    989   1000   1    120.0000    527.1840
    990    989   1000   1    120.0000    585.7600
    989    990    991   1    112.1750    585.7600
    989    990    992   1    112.1750    585.7600
    989    990    993   1    112.0470    585.7600
    991    990    992   1    112.7000    488.2728
    991    990    993   1    112.1750    585.7600
    992    990    993   1    112.1750    585.7600
    990    991   1012   1    110.7000    313.8000
    990    991   1013   1    110.7000    313.8000
    990    991   1014   1    110.7000    313.8000
   1012    991   1013   1    107.8000    276.1440
   1012    991   1014   1    107.8000    276.1440
   1013    991   1014   1    107.8000    276.1440
    990    992   1015   1    110.7000    313.8000
    990    992   1016   1    110.7000    313.8000
    990    992   1017   1    110.7000    313.8000
   1015    992   1016   1    107.8000    276.1440
   1015    992   1017   1    107.8000    276.1440
   1016    992   1017   1    107.8000    276.1440
    990    993    994   1    120.0000    585.7600
    990    993    999   1    120.0000    585.7600
    994    993    999   1    120.0000    527.1840
    993    994    995   1    120.0000    527.1840
    993    994   1018   1    120.0000    292.8800
    995    994   1018   1    120.0000    292.8800
    994    995    996   1    120.0000    527.1840
    994    995   1019   1    120.0000    292.8800
    996    995   1019   1    120.0000    292.8800
    995    996    997   1    120.0000    585.7600
    995    996    998   1    120.0000    527.1840
    997    996    998   1    120.0000    585.7600
    996    997   1028   1    114.7000    711.2800
    996    998    999   1    120.0000    527.1840
    996    998   1020   1    120.0000    292.8800
    999    998   1020   1    120.0000    292.8800
    993    999    998   1    120.0000    527.1840
    993    999   1021   1    120.0000    292.8800
    998    999   1021   1    120.0000    292.8800
    989   1000   1001   1    120.0000    527.1840
    989   1000   1022   1    120.0000    292.8800
   1001   1000   1022   1    120.0000    292.8800
    986   1001   1000   1    120.0000    527.1840
    986   1001   1023   1    120.0000    292.8800
   1000   1001   1023   1    120.0000    292.8800
    984   1002   1003   1    120.0000    527.1840
    984   1002   1024   1    120.0000    292.8800
   1003   1002   1024   1    120.0000    292.8800
    981   1003   1002   1    120.0000    527.1840
    981   1003   1025   1    120.0000    292.8800
   1002   1003   1025   1    120.0000    292.8800
    977   1004   1005   1    120.0000    527.1840
    977   1004   1026   1    120.0000    292.8800
   1005   1004   1026   1    120.0000    292.8800
    974   1005   1004   1    120.0000    527.1840
    974   1005   1027   1    120.0000    292.8800
   1004   1005   1027   1    120.0000    292.8800
    997   1028   1029   1    120.0000    585.7600
    997   1028   1059   1    120.0000    585.7600
   1029   1028   1059   1    120.0000    527.1840
   1028   1029   1030   1    120.0000    527.1840
   1028   1029   1060   1    120.0000    292.8800
   1030   1029   1060   1    120.0000    292.8800
   1029   1030   1031   1    120.0000    527.1840
   1029   1030   1061   1    120.0000    292.8800
   1031   1030   1061   1    120.0000    292.8800
   1030   1031   1032   1    117.0670    543.9200
   1030   1031   1058   1    120.0000    527.1840
   1032   1031   1058   1    117.0670    543.9200
   1031   1032   1033   1    107.6710    836.8000
   1031   1032   1034   1    107.6710    836.8000
   1031   1032   1035   1    104.3600    658.3106
   1033   1032   1034   1    120.1720    962.3200
   1033   1032   1035   1    107.6710    836.8000
   1034   1032   1035   1    107.6710    836.8000
   1032   1035   1036   1    117.0670    543.9200
   1032   1035   1057   1    117.0670    543.9200
   1036   1035   1057   1    120.0000    527.1840
   1035   1036   1037   1    120.0000    527.1840
   1035   1036   1062   1    120.0000    292.8800
   1037   1036   1062   1    120.0000    292.8800
   1036   1037   1038   1    120.0000    527.1840
   1036   1037   1063   1    120.0000    292.8800
   1038   1037   1063   1    120.0000    292.8800
   1037   1038   1039   1    120.0000    585.7600
   1037   1038   1056   1    120.0000    527.1840
   1039   1038   1056   1    120.0000    585.7600
   1038   1039   1040   1    114.7000    711.2800
   1039   1040   1041   1    120.0000    585.7600
   1039   1040   1055   1    120.0000    585.7600
   1041   1040   1055   1    120.0000    527.1840
   1040   1041   1042   1    120.0000    527.1840
   1040   1041   1064   1    120.0000    292.8800
   1042   1041   1064   1    120.0000    292.8800
   1041   1042   1043   1    120.0000    527.1840
   1041   1042   1065   1    120.0000    292.8800
   1043   1042   1065   1    120.0000    292.8800
   1042   1043   1044   1    120.0000    585.7600
   1042   1043   1054   1    120.0000    527.1840
   1044   1043   1054   1    120.0000    585.7600
   1043   1044   1045   1    112.1750    585.7600
   1043   1044   1046   1    112.1750    585.7600
   1043   1044   1047   1    112.0470    585.7600
   1045   1044   1046   1    112.7000    488.2728
   1045   1044   1047   1    112.1750    585.7600
   1046   1044   1047   1    112.1750    585.7600
   1044   1045   1066   1    110.7000    313.8000
   1044   1045   1067   1    110.7000    313.8000
   1044   1045   1068   1    110.7000    313.8000
   1066   1045   1067   1    107.8000    276.1440
   1066   1045   1068   1    107.8000    276.1440
   1067   1045   1068   1    107.8000    276.1440
   1044   1046   1069   1    110.7000    313.8000
   1044   1046   1070   1    110.7000    313.8000
   1044   1046   1071   1    110.7000    313.8000
   1069   1046   1070   1    107.8000    276.1440
   1069   1046   1071   1    107.8000    276.1440
   1070   1046   1071   1    107.8000    276.1440
   1044   1047   1048   1    120.0000    585.7600
   1044   1047   1053   1    120.0000    585.7600
   1048   1047   1053   1    120.0000    527.1840
   1047   1048   1049   1    120.0000    527.1840
   1047   1048   1072   1    120.0000    292.8800
   1049   1048   1072   1    120.0000    292.8800
   1048   1049   1050   1    120.0000    527.1840
   1048   1049   1073   1    120.0000    292.8800
   1050   1049   1073   1    120.0000    292.8800
   1049   1050   1051   1    120.0000    585.7600
   1049   1050   1052   1    120.0000    527.1840
   1051   1050   1052   1    120.0000    585.7600
   1050   1051   1082   1    113.0000    292.8800
   1050   1052   1053   1    120.0000    527.1840
   1050   1052   1074   1    120.0000    292.8800
   1053   1052   1074   1    120.0000    292.8800
   1047   1053   1052   1    120.0000    527.1840
   1047   1053   1075   1    120.0000    292.8800
   1052   1053   1075   1    120.0000    292.8800
   1043   1054   1055   1    120.0000    527.1840
   1043   1054   1076   1    120.0000    292.8800
   1055   1054   1076   1    120.0000    292.8800
   1040   1055   1054   1    120.0000    527.1840
   1040   1055   1077   1    120.0000    292.8800
   1054   1055   1077   1    120.0000    292.8800
   1038   1056   1057   1    120.0000    527.1840
   1038   1056   1078   1    120.0000    292.8800
   1057   1056   1078   1    120.0000    292.8800
   1035   1057   1056   1    120.0000    527.1840
   1035   1057   1079   1    120.0000    292.8800
   1056   1057   1079   1    120.0000    292.8800
   1031   1058   1059   1    120.0000    527.1840
   1031   1058   1080   1    120.0000    292.8800
   1059   1058   1080   1    120.0000    292.8800
   1028   1059   1058   1    120.0000    527.1840
   1028   1059   1081   1    120.0000    292.8800
   1058   1059   1081   1    120.0000    292.8800

[ dihedrals ]
; Proper dihedrals
     32      1      2      3   5     0.00000    30.33400     0.00000  0.0
     32      1      2     33   5     0.00000    30.33400     0.00000  0.0
     55      1      2      3   5     0.00000    30.33400     0.00000  0.0
     55      1      2     33   5     0.00000    30.33400     0.00000  0.0
      2      1     32     31   5     0.00000    30.33400     0.00000  0.0
      2      1     32     54   5     0.00000    30.33400     0.00000  0.0
     55      1     32     31   5     0.00000    30.33400     0.00000  0.0
     55      1     32     54   5     0.00000    30.33400     0.00000  0.0
      1      2      3      4   5     0.00000    30.33400     0.00000  0.0
      1      2      3     34   5     0.00000    30.33400     0.00000  0.0
     33      2      3      4   5     0.00000    30.33400     0.00000  0.0
     33      2      3     34   5     0.00000    30.33400     0.00000  0.0
      2      3      4      5   5     0.00000    30.33400     0.00000  0.0
      2      3      4     31   5     0.00000    30.33400     0.00000  0.0
     34      3      4      5   5     0.00000    30.33400     0.00000  0.0
     34      3      4     31   5     0.00000    30.33400     0.00000  0.0
      3      4      5      6   5     1.63176     1.00416     0.00000  0.0
      3      4      5      7   5     1.63176     1.00416     0.00000  0.0
      3      4      5      8   5     0.00000     3.76560     0.00000  0.0
     31      4      5      6   5     1.63176     1.00416     0.00000  0.0
     31      4      5      7   5     1.63176     1.00416     0.00000  0.0
     31      4      5      8   5     0.00000     3.76560     0.00000  0.0
      3      4     31     32   5     0.00000    30.33400     0.00000  0.0
      3      4     31     53   5     0.00000    30.33400     0.00000  0.0
      5      4     31     32   5     0.00000    30.33400     0.00000  0.0
      5      4     31     53   5     0.00000    30.33400     0.00000  0.0
      4      5      8      9   5     0.00000     3.76560     0.00000  0.0
      4      5      8     30   5     0.00000     3.76560     0.00000  0.0
      6      5      8      9   5     1.63176     1.00416     0.00000  0.0
      6      5      8     30   5     1.63176     1.00416     0.00000  0.0
      7      5      8      9   5     1.63176     1.00416     0.00000  0.0
      7      5      8     30   5     1.63176     1.00416     0.00000  0.0
      5      8      9     10   5     0.00000    30.33400     0.00000  0.0
      5      8      9     35   5     0.00000    30.33400     0.00000  0.0
     30      8      9     10   5     0.00000    30.33400     0.00000  0.0
     30      8      9     35   5     0.00000    30.33400     0.00000  0.0
      5      8     30     29   5     0.00000    30.33400     0.00000  0.0
      5      8     30     52   5     0.00000    30.33400     0.00000  0.0
      9      8     30     29   5     0.00000    30.33400     0.00000  0.0
      9      8     30     52   5     0.00000    30.33400     0.00000  0.0
      8      9     10     11   5     0.00000    30.33400     0.00000  0.0
      8      9     10     36   5     0.00000    30.33400     0.00000  0.0
     35      9     10     11   5     0.00000    30.33400     0.00000  0.0
     35      9     10     36   5     0.00000    30.33400     0.00000  0.0
      9     10     11     12   5     0.00000    30.33400     0.00000  0.0
      9     10     11     29   5     0.00000    30.33400     0.00000  0.0
     36     10     11     12   5     0.00000    30.33400     0.00000  0.0
     36     10     11     29   5     0.00000    30.33400     0.00000  0.0
     10     11     12     13   5     0.00000     3.94551     0.00000  0.0
     29     11     12     13   5     0.00000     3.94551     0.00000  0.0
     10     11     29     30   5     0.00000    30.33400     0.00000  0.0
     10     11     29     51   5     0.00000    30.33400     0.00000  0.0
     12     11     29     30   5     0.00000    30.33400     0.00000  0.0
     12     11     29     51   5     0.00000    30.33400     0.00000  0.0
     11     12     13     14   5     0.00000     3.94551     0.00000  0.0
     11     12     13     28   5     0.00000     3.94551     0.00000  0.0
     12     13     14     15   5     0.00000    30.33400     0.00000  0.0
     12     13     14     37   5     0.00000    30.33400     0.00000  0.0
     28     13     14     15   5     0.00000    30.33400     0.00000  0.0
     28     13     14     37   5     0.00000    30.33400     0.00000  0.0
     12     13     28     27   5     0.00000    30.33400     0.00000  0.0
     12     13     28     50   5     0.00000    30.33400     0.00000  0.0
     14     13     28     27   5     0.00000    30.33400     0.00000  0.0
     14     13     28     50   5     0.00000    30.33400     0.00000  0.0
     13     14     15     16   5     0.00000    30.33400     0.00000  0.0
     13     14     15     38   5     0.00000    30.33400     0.00000  0.0
     37     14     15     16   5     0.00000    30.33400     0.00000  0.0
     37     14     15     38   5     0.00000    30.33400     0.00000  0.0
     14     15     16     17   5     0.00000    30.33400     0.00000  0.0
     14     15     16     27   5     0.00000    30.33400     0.00000  0.0
     38     15     16     17   5     0.00000    30.33400     0.00000  0.0
     38     15     16     27   5     0.00000    30.33400     0.00000  0.0
     15     16     17     18   5     0.00000     0.34727     0.00000  0.0
     15     16     17     19   5     0.00000     0.34727     0.00000  0.0
     15     16     17     20   5     0.00000     0.35982     0.00000  0.0
     27     16     17     18   5     0.00000     0.34727     0.00000  0.0
     27     16     17     19   5     0.00000     0.34727     0.00000  0.0
     27     16     17     20   5     0.00000     0.35982     0.00000  0.0
     15     16     27     28   5     0.00000    30.33400     0.00000  0.0
     15     16     27     49   5     0.00000    30.33400     0.00000  0.0
     17     16     27     28   5     0.00000    30.33400     0.00000  0.0
     17     16     27     49   5     0.00000    30.33400     0.00000  0.0
     16     17     18     39   5     0.00000     0.00000     3.61498  0.0
     16     17     18     40   5     0.00000     0.00000     3.61498  0.0
     16     17     18     41   5     0.00000     0.00000     3.61498  0.0
     19     17     18     39   5     0.00000     0.00000     1.25520  0.0
     19     17     18     40   5     0.00000     0.00000     1.25520  0.0
     19     17     18     41   5     0.00000     0.00000     1.25520  0.0
     20     17     18     39   5     0.00000     0.00000     3.61498  0.0
     20     17     18     40   5     0.00000     0.00000     3.61498  0.0
     20     17     18     41   5     0.00000     0.00000     3.61498  0.0
     16     17     19     42   5     0.00000     0.00000     3.61498  0.0
     16     17     19     43   5     0.00000     0.00000     3.61498  0.0
     16     17     19     44   5     0.00000     0.00000     3.61498  0.0
     18     17     19     42   5     0.00000     0.00000     1.25520  0.0
     18     17     19     43   5     0.00000     0.00000     1.25520  0.0
     18     17     19     44   5     0.00000     0.00000     1.25520  0.0
     20     17     19     42   5     0.00000     0.00000     3.61498  0.0
     20     17     19     43   5     0.00000     0.00000     3.61498  0.0
     20     17     19     44   5     0.00000     0.00000     3.61498  0.0
     16     17     20     21   5     0.00000     0.35982     0.00000  0.0
     16     17     20     26   5     0.00000     0.35982     0.00000  0.0
     18     17     20     21   5     0.00000     0.34727     0.00000  0.0
     18     17     20     26   5     0.00000     0.34727     0.00000  0.0
     19     17     20     21   5     0.00000     0.34727     0.00000  0.0
     19     17     20     26   5     0.00000     0.34727     0.00000  0.0
     17     20     21     22   5     0.00000    30.33400     0.00000  0.0
     17     20     21     45   5     0.00000    30.33400     0.00000  0.0
     26     20     21     22   5     0.00000    30.33400     0.00000  0.0
     26     20     21     45   5     0.00000    30.33400     0.00000  0.0
     17     20     26     25   5     0.00000    30.33400     0.00000  0.0
     17     20     26     48   5     0.00000    30.33400     0.00000  0.0
     21     20     26     25   5     0.00000    30.33400     0.00000  0.0
     21     20     26     48   5     0.00000    30.33400     0.00000  0.0
     20     21     22     23   5     0.00000    30.33400     0.00000  0.0
     20     21     22     46   5     0.00000    30.33400     0.00000  0.0
     45     21     22     23   5     0.00000    30.33400     0.00000  0.0
     45     21     22     46   5     0.00000    30.33400     0.00000  0.0
     21     22     23     24   5     0.00000    30.33400     0.00000  0.0
     21     22     23     25   5     0.00000    30.33400     0.00000  0.0
     46     22     23     24   5     0.00000    30.33400     0.00000  0.0
     46     22     23     25   5     0.00000    30.33400     0.00000  0.0
     22     23     24     56   5     0.00000     3.94551     0.00000  0.0
     25     23     24     56   5     0.00000     3.94551     0.00000  0.0
     22     23     25     26   5     0.00000    30.33400     0.00000  0.0
     22     23     25     47   5     0.00000    30.33400     0.00000  0.0
     24     23     25     26   5     0.00000    30.33400     0.00000  0.0
     24     23     25     47   5     0.00000    30.33400     0.00000  0.0
     23     24     56     57   5     0.00000     3.94551     0.00000  0.0
     23     24     56     87   5     0.00000     3.94551     0.00000  0.0
     23     25     26     20   5     0.00000    30.33400     0.00000  0.0
     23     25     26     48   5     0.00000    30.33400     0.00000  0.0
     47     25     26     20   5     0.00000    30.33400     0.00000  0.0
     47     25     26     48   5     0.00000    30.33400     0.00000  0.0
     16     27     28     13   5     0.00000    30.33400     0.00000  0.0
     16     27     28     50   5     0.00000    30.33400     0.00000  0.0
     49     27     28     13   5     0.00000    30.33400     0.00000  0.0
     49     27     28     50   5     0.00000    30.33400     0.00000  0.0
     11     29     30      8   5     0.00000    30.33400     0.00000  0.0
     11     29     30     52   5     0.00000    30.33400     0.00000  0.0
     51     29     30      8   5     0.00000    30.33400     0.00000  0.0
     51     29     30     52   5     0.00000    30.33400     0.00000  0.0
      4     31     32      1   5     0.00000    30.33400     0.00000  0.0
      4     31     32     54   5     0.00000    30.33400     0.00000  0.0
     53     31     32      1   5     0.00000    30.33400     0.00000  0.0
     53     31     32     54   5     0.00000    30.33400     0.00000  0.0
     24     56     57     58   5     0.00000    30.33400     0.00000  0.0
     24     56     57     88   5     0.00000    30.33400     0.00000  0.0
     87     56     57     58   5     0.00000    30.33400     0.00000  0.0
     87     56     57     88   5     0.00000    30.33400     0.00000  0.0
     24     56     87     86   5     0.00000    30.33400     0.00000  0.0
     24     56     87    109   5     0.00000    30.33400     0.00000  0.0
     57     56     87     86   5     0.00000    30.33400     0.00000  0.0
     57     56     87    109   5     0.00000    30.33400     0.00000  0.0
     56     57     58     59   5     0.00000    30.33400     0.00000  0.0
     56     57     58     89   5     0.00000    30.33400     0.00000  0.0
     88     57     58     59   5     0.00000    30.33400     0.00000  0.0
     88     57     58     89   5     0.00000    30.33400     0.00000  0.0
     57     58     59     60   5     0.00000    30.33400     0.00000  0.0
     57     58     59     86   5     0.00000    30.33400     0.00000  0.0
     89     58     59     60   5     0.00000    30.33400     0.00000  0.0
     89     58     59     86   5     0.00000    30.33400     0.00000  0.0
     58     59     60     61   5     1.63176     1.00416     0.00000  0.0
     58     59     60     62   5     1.63176     1.00416     0.00000  0.0
     58     59     60     63   5     0.00000     3.76560     0.00000  0.0
     86     59     60     61   5     1.63176     1.00416     0.00000  0.0
     86     59     60     62   5     1.63176     1.00416     0.00000  0.0
     86     59     60     63   5     0.00000     3.76560     0.00000  0.0
     58     59     86     87   5     0.00000    30.33400     0.00000  0.0
     58     59     86    108   5     0.00000    30.33400     0.00000  0.0
     60     59     86     87   5     0.00000    30.33400     0.00000  0.0
     60     59     86    108   5     0.00000    30.33400     0.00000  0.0
     59     60     63     64   5     0.00000     3.76560     0.00000  0.0
     59     60     63     85   5     0.00000     3.76560     0.00000  0.0
     61     60     63     64   5     1.63176     1.00416     0.00000  0.0
     61     60     63     85   5     1.63176     1.00416     0.00000  0.0
     62     60     63     64   5     1.63176     1.00416     0.00000  0.0
     62     60     63     85   5     1.63176     1.00416     0.00000  0.0
     60     63     64     65   5     0.00000    30.33400     0.00000  0.0
     60     63     64     90   5     0.00000    30.33400     0.00000  0.0
     85     63     64     65   5     0.00000    30.33400     0.00000  0.0
     85     63     64     90   5     0.00000    30.33400     0.00000  0.0
     60     63     85     84   5     0.00000    30.33400     0.00000  0.0
     60     63     85    107   5     0.00000    30.33400     0.00000  0.0
     64     63     85     84   5     0.00000    30.33400     0.00000  0.0
     64     63     85    107   5     0.00000    30.33400     0.00000  0.0
     63     64     65     66   5     0.00000    30.33400     0.00000  0.0
     63     64     65     91   5     0.00000    30.33400     0.00000  0.0
     90     64     65     66   5     0.00000    30.33400     0.00000  0.0
     90     64     65     91   5     0.00000    30.33400     0.00000  0.0
     64     65     66     67   5     0.00000    30.33400     0.00000  0.0
     64     65     66     84   5     0.00000    30.33400     0.00000  0.0
     91     65     66     67   5     0.00000    30.33400     0.00000  0.0
     91     65     66     84   5     0.00000    30.33400     0.00000  0.0
     65     66     67     68   5     0.00000     3.94551     0.00000  0.0
     84     66     67     68   5     0.00000     3.94551     0.00000  0.0
     65     66     84     85   5     0.00000    30.33400     0.00000  0.0
     65     66     84    106   5     0.00000    30.33400     0.00000  0.0
     67     66     84     85   5     0.00000    30.33400     0.00000  0.0
     67     66     84    106   5     0.00000    30.33400     0.00000  0.0
     66     67     68     69   5     0.00000     3.94551     0.00000  0.0
     66     67     68     83   5     0.00000     3.94551     0.00000  0.0
     67     68     69     70   5     0.00000    30.33400     0.00000  0.0
     67     68     69     92   5     0.00000    30.33400     0.00000  0.0
     83     68     69     70   5     0.00000    30.33400     0.00000  0.0
     83     68     69     92   5     0.00000    30.33400     0.00000  0.0
     67     68     83     82   5     0.00000    30.33400     0.00000  0.0
     67     68     83    105   5     0.00000    30.33400     0.00000  0.0
     69     68     83     82   5     0.00000    30.33400     0.00000  0.0
     69     68     83    105   5     0.00000    30.33400     0.00000  0.0
     68     69     70     71   5     0.00000    30.33400     0.00000  0.0
     68     69     70     93   5     0.00000    30.33400     0.00000  0.0
     92     69     70     71   5     0.00000    30.33400     0.00000  0.0
     92     69     70     93   5     0.00000    30.33400     0.00000  0.0
     69     70     71     72   5     0.00000    30.33400     0.00000  0.0
     69     70     71     82   5     0.00000    30.33400     0.00000  0.0
     93     70     71     72   5     0.00000    30.33400     0.00000  0.0
     93     70     71     82   5     0.00000    30.33400     0.00000  0.0
     70     71     72     73   5     0.00000     0.34727     0.00000  0.0
     70     71     72     74   5     0.00000     0.34727     0.00000  0.0
     70     71     72     75   5     0.00000     0.35982     0.00000  0.0
     82     71     72     73   5     0.00000     0.34727     0.00000  0.0
     82     71     72     74   5     0.00000     0.34727     0.00000  0.0
     82     71     72     75   5     0.00000     0.35982     0.00000  0.0
     70     71     82     83   5     0.00000    30.33400     0.00000  0.0
     70     71     82    104   5     0.00000    30.33400     0.00000  0.0
     72     71     82     83   5     0.00000    30.33400     0.00000  0.0
     72     71     82    104   5     0.00000    30.33400     0.00000  0.0
     71     72     73     94   5     0.00000     0.00000     3.61498  0.0
     71     72     73     95   5     0.00000     0.00000     3.61498  0.0
     71     72     73     96   5     0.00000     0.00000     3.61498  0.0
     74     72     73     94   5     0.00000     0.00000     1.25520  0.0
     74     72     73     95   5     0.00000     0.00000     1.25520  0.0
     74     72     73     96   5     0.00000     0.00000     1.25520  0.0
     75     72     73     94   5     0.00000     0.00000     3.61498  0.0
     75     72     73     95   5     0.00000     0.00000     3.61498  0.0
     75     72     73     96   5     0.00000     0.00000     3.61498  0.0
     71     72     74     97   5     0.00000     0.00000     3.61498  0.0
     71     72     74     98   5     0.00000     0.00000     3.61498  0.0
     71     72     74     99   5     0.00000     0.00000     3.61498  0.0
     73     72     74     97   5     0.00000     0.00000     1.25520  0.0
     73     72     74     98   5     0.00000     0.00000     1.25520  0.0
     73     72     74     99   5     0.00000     0.00000     1.25520  0.0
     75     72     74     97   5     0.00000     0.00000     3.61498  0.0
     75     72     74     98   5     0.00000     0.00000     3.61498  0.0
     75     72     74     99   5     0.00000     0.00000     3.61498  0.0
     71     72     75     76   5     0.00000     0.35982     0.00000  0.0
     71     72     75     81   5     0.00000     0.35982     0.00000  0.0
     73     72     75     76   5     0.00000     0.34727     0.00000  0.0
     73     72     75     81   5     0.00000     0.34727     0.00000  0.0
     74     72     75     76   5     0.00000     0.34727     0.00000  0.0
     74     72     75     81   5     0.00000     0.34727     0.00000  0.0
     72     75     76     77   5     0.00000    30.33400     0.00000  0.0
     72     75     76    100   5     0.00000    30.33400     0.00000  0.0
     81     75     76     77   5     0.00000    30.33400     0.00000  0.0
     81     75     76    100   5     0.00000    30.33400     0.00000  0.0
     72     75     81     80   5     0.00000    30.33400     0.00000  0.0
     72     75     81    103   5     0.00000    30.33400     0.00000  0.0
     76     75     81     80   5     0.00000    30.33400     0.00000  0.0
     76     75     81    103   5     0.00000    30.33400     0.00000  0.0
     75     76     77     78   5     0.00000    30.33400     0.00000  0.0
     75     76     77    101   5     0.00000    30.33400     0.00000  0.0
    100     76     77     78   5     0.00000    30.33400     0.00000  0.0
    100     76     77    101   5     0.00000    30.33400     0.00000  0.0
     76     77     78     79   5     0.00000    30.33400     0.00000  0.0
     76     77     78     80   5     0.00000    30.33400     0.00000  0.0
    101     77     78     79   5     0.00000    30.33400     0.00000  0.0
    101     77     78     80   5     0.00000    30.33400     0.00000  0.0
     77     78     79    110   5     0.00000     3.94551     0.00000  0.0
     80     78     79    110   5     0.00000     3.94551     0.00000  0.0
     77     78     80     81   5     0.00000    30.33400     0.00000  0.0
     77     78     80    102   5     0.00000    30.33400     0.00000  0.0
     79     78     80     81   5     0.00000    30.33400     0.00000  0.0
     79     78     80    102   5     0.00000    30.33400     0.00000  0.0
     78     79    110    111   5     0.00000     3.94551     0.00000  0.0
     78     79    110    141   5     0.00000     3.94551     0.00000  0.0
     78     80     81     75   5     0.00000    30.33400     0.00000  0.0
     78     80     81    103   5     0.00000    30.33400     0.00000  0.0
    102     80     81     75   5     0.00000    30.33400     0.00000  0.0
    102     80     81    103   5     0.00000    30.33400     0.00000  0.0
     71     82     83     68   5     0.00000    30.33400     0.00000  0.0
     71     82     83    105   5     0.00000    30.33400     0.00000  0.0
    104     82     83     68   5     0.00000    30.33400     0.00000  0.0
    104     82     83    105   5     0.00000    30.33400     0.00000  0.0
     66     84     85     63   5     0.00000    30.33400     0.00000  0.0
     66     84     85    107   5     0.00000    30.33400     0.00000  0.0
    106     84     85     63   5     0.00000    30.33400     0.00000  0.0
    106     84     85    107   5     0.00000    30.33400     0.00000  0.0
     59     86     87     56   5     0.00000    30.33400     0.00000  0.0
     59     86     87    109   5     0.00000    30.33400     0.00000  0.0
    108     86     87     56   5     0.00000    30.33400     0.00000  0.0
    108     86     87    109   5     0.00000    30.33400     0.00000  0.0
     79    110    111    112   5     0.00000    30.33400     0.00000  0.0
     79    110    111    142   5     0.00000    30.33400     0.00000  0.0
    141    110    111    112   5     0.00000    30.33400     0.00000  0.0
    141    110    111    142   5     0.00000    30.33400     0.00000  0.0
     79    110    141    140   5     0.00000    30.33400     0.00000  0.0
     79    110    141    163   5     0.00000    30.33400     0.00000  0.0
    111    110    141    140   5     0.00000    30.33400     0.00000  0.0
    111    110    141    163   5     0.00000    30.33400     0.00000  0.0
    110    111    112    113   5     0.00000    30.33400     0.00000  0.0
    110    111    112    143   5     0.00000    30.33400     0.00000  0.0
    142    111    112    113   5     0.00000    30.33400     0.00000  0.0
    142    111    112    143   5     0.00000    30.33400     0.00000  0.0
    111    112    113    114   5     0.00000    30.33400     0.00000  0.0
    111    112    113    140   5     0.00000    30.33400     0.00000  0.0
    143    112    113    114   5     0.00000    30.33400     0.00000  0.0
    143    112    113    140   5     0.00000    30.33400     0.00000  0.0
    112    113    114    115   5     1.63176     1.00416     0.00000  0.0
    112    113    114    116   5     1.63176     1.00416     0.00000  0.0
    112    113    114    117   5     0.00000     3.76560     0.00000  0.0
    140    113    114    115   5     1.63176     1.00416     0.00000  0.0
    140    113    114    116   5     1.63176     1.00416     0.00000  0.0
    140    113    114    117   5     0.00000     3.76560     0.00000  0.0
    112    113    140    141   5     0.00000    30.33400     0.00000  0.0
    112    113    140    162   5     0.00000    30.33400     0.00000  0.0
    114    113    140    141   5     0.00000    30.33400     0.00000  0.0
    114    113    140    162   5     0.00000    30.33400     0.00000  0.0
    113    114    117    118   5     0.00000     3.76560     0.00000  0.0
    113    114    117    139   5     0.00000     3.76560     0.00000  0.0
    115    114    117    118   5     1.63176     1.00416     0.00000  0.0
    115    114    117    139   5     1.63176     1.00416     0.00000  0.0
    116    114    117    118   5     1.63176     1.00416     0.00000  0.0
    116    114    117    139   5     1.63176     1.00416     0.00000  0.0
    114    117    118    119   5     0.00000    30.33400     0.00000  0.0
    114    117    118    144   5     0.00000    30.33400     0.00000  0.0
    139    117    118    119   5     0.00000    30.33400     0.00000  0.0
    139    117    118    144   5     0.00000    30.33400     0.00000  0.0
    114    117    139    138   5     0.00000    30.33400     0.00000  0.0
    114    117    139    161   5     0.00000    30.33400     0.00000  0.0
    118    117    139    138   5     0.00000    30.33400     0.00000  0.0
    118    117    139    161   5     0.00000    30.33400     0.00000  0.0
    117    118    119    120   5     0.00000    30.33400     0.00000  0.0
    117    118    119    145   5     0.00000    30.33400     0.00000  0.0
    144    118    119    120   5     0.00000    30.33400     0.00000  0.0
    144    118    119    145   5     0.00000    30.33400     0.00000  0.0
    118    119    120    121   5     0.00000    30.33400     0.00000  0.0
    118    119    120    138   5     0.00000    30.33400     0.00000  0.0
    145    119    120    121   5     0.00000    30.33400     0.00000  0.0
    145    119    120    138   5     0.00000    30.33400     0.00000  0.0
    119    120    121    122   5     0.00000     3.94551     0.00000  0.0
    138    120    121    122   5     0.00000     3.94551     0.00000  0.0
    119    120    138    139   5     0.00000    30.33400     0.00000  0.0
    119    120    138    160   5     0.00000    30.33400     0.00000  0.0
    121    120    138    139   5     0.00000    30.33400     0.00000  0.0
    121    120    138    160   5     0.00000    30.33400     0.00000  0.0
    120    121    122    123   5     0.00000     3.94551     0.00000  0.0
    120    121    122    137   5     0.00000     3.94551     0.00000  0.0
    121    122    123    124   5     0.00000    30.33400     0.00000  0.0
    121    122    123    146   5     0.00000    30.33400     0.00000  0.0
    137    122    123    124   5     0.00000    30.33400     0.00000  0.0
    137    122    123    146   5     0.00000    30.33400     0.00000  0.0
    121    122    137    136   5     0.00000    30.33400     0.00000  0.0
    121    122    137    159   5     0.00000    30.33400     0.00000  0.0
    123    122    137    136   5     0.00000    30.33400     0.00000  0.0
    123    122    137    159   5     0.00000    30.33400     0.00000  0.0
    122    123    124    125   5     0.00000    30.33400     0.00000  0.0
    122    123    124    147   5     0.00000    30.33400     0.00000  0.0
    146    123    124    125   5     0.00000    30.33400     0.00000  0.0
    146    123    124    147   5     0.00000    30.33400     0.00000  0.0
    123    124    125    126   5     0.00000    30.33400     0.00000  0.0
    123    124    125    136   5     0.00000    30.33400     0.00000  0.0
    147    124    125    126   5     0.00000    30.33400     0.00000  0.0
    147    124    125    136   5     0.00000    30.33400     0.00000  0.0
    124    125    126    127   5     0.00000     0.34727     0.00000  0.0
    124    125    126    128   5     0.00000     0.34727     0.00000  0.0
    124    125    126    129   5     0.00000     0.35982     0.00000  0.0
    136    125    126    127   5     0.00000     0.34727     0.00000  0.0
    136    125    126    128   5     0.00000     0.34727     0.00000  0.0
    136    125    126    129   5     0.00000     0.35982     0.00000  0.0
    124    125    136    137   5     0.00000    30.33400     0.00000  0.0
    124    125    136    158   5     0.00000    30.33400     0.00000  0.0
    126    125    136    137   5     0.00000    30.33400     0.00000  0.0
    126    125    136    158   5     0.00000    30.33400     0.00000  0.0
    125    126    127    148   5     0.00000     0.00000     3.61498  0.0
    125    126    127    149   5     0.00000     0.00000     3.61498  0.0
    125    126    127    150   5     0.00000     0.00000     3.61498  0.0
    128    126    127    148   5     0.00000     0.00000     1.25520  0.0
    128    126    127    149   5     0.00000     0.00000     1.25520  0.0
    128    126    127    150   5     0.00000     0.00000     1.25520  0.0
    129    126    127    148   5     0.00000     0.00000     3.61498  0.0
    129    126    127    149   5     0.00000     0.00000     3.61498  0.0
    129    126    127    150   5     0.00000     0.00000     3.61498  0.0
    125    126    128    151   5     0.00000     0.00000     3.61498  0.0
    125    126    128    152   5     0.00000     0.00000     3.61498  0.0
    125    126    128    153   5     0.00000     0.00000     3.61498  0.0
    127    126    128    151   5     0.00000     0.00000     1.25520  0.0
    127    126    128    152   5     0.00000     0.00000     1.25520  0.0
    127    126    128    153   5     0.00000     0.00000     1.25520  0.0
    129    126    128    151   5     0.00000     0.00000     3.61498  0.0
    129    126    128    152   5     0.00000     0.00000     3.61498  0.0
    129    126    128    153   5     0.00000     0.00000     3.61498  0.0
    125    126    129    130   5     0.00000     0.35982     0.00000  0.0
    125    126    129    135   5     0.00000     0.35982     0.00000  0.0
    127    126    129    130   5     0.00000     0.34727     0.00000  0.0
    127    126    129    135   5     0.00000     0.34727     0.00000  0.0
    128    126    129    130   5     0.00000     0.34727     0.00000  0.0
    128    126    129    135   5     0.00000     0.34727     0.00000  0.0
    126    129    130    131   5     0.00000    30.33400     0.00000  0.0
    126    129    130    154   5     0.00000    30.33400     0.00000  0.0
    135    129    130    131   5     0.00000    30.33400     0.00000  0.0
    135    129    130    154   5     0.00000    30.33400     0.00000  0.0
    126    129    135    134   5     0.00000    30.33400     0.00000  0.0
    126    129    135    157   5     0.00000    30.33400     0.00000  0.0
    130    129    135    134   5     0.00000    30.33400     0.00000  0.0
    130    129    135    157   5     0.00000    30.33400     0.00000  0.0
    129    130    131    132   5     0.00000    30.33400     0.00000  0.0
    129    130    131    155   5     0.00000    30.33400     0.00000  0.0
    154    130    131    132   5     0.00000    30.33400     0.00000  0.0
    154    130    131    155   5     0.00000    30.33400     0.00000  0.0
    130    131    132    133   5     0.00000    30.33400     0.00000  0.0
    130    131    132    134   5     0.00000    30.33400     0.00000  0.0
    155    131    132    133   5     0.00000    30.33400     0.00000  0.0
    155    131    132    134   5     0.00000    30.33400     0.00000  0.0
    131    132    133    164   5     0.00000     3.94551     0.00000  0.0
    134    132    133    164   5     0.00000     3.94551     0.00000  0.0
    131    132    134    135   5     0.00000    30.33400     0.00000  0.0
    131    132    134    156   5     0.00000    30.33400     0.00000  0.0
    133    132    134    135   5     0.00000    30.33400     0.00000  0.0
    133    132    134    156   5     0.00000    30.33400     0.00000  0.0
    132    133    164    165   5     0.00000     3.94551     0.00000  0.0
    132    133    164    195   5     0.00000     3.94551     0.00000  0.0
    132    134    135    129   5     0.00000    30.33400     0.00000  0.0
    132    134    135    157   5     0.00000    30.33400     0.00000  0.0
    156    134    135    129   5     0.00000    30.33400     0.00000  0.0
    156    134    135    157   5     0.00000    30.33400     0.00000  0.0
    125    136    137    122   5     0.00000    30.33400     0.00000  0.0
    125    136    137    159   5     0.00000    30.33400     0.00000  0.0
    158    136    137    122   5     0.00000    30.33400     0.00000  0.0
    158    136    137    159   5     0.00000    30.33400     0.00000  0.0
    120    138    139    117   5     0.00000    30.33400     0.00000  0.0
    120    138    139    161   5     0.00000    30.33400     0.00000  0.0
    160    138    139    117   5     0.00000    30.33400     0.00000  0.0
    160    138    139    161   5     0.00000    30.33400     0.00000  0.0
    113    140    141    110   5     0.00000    30.33400     0.00000  0.0
    113    140    141    163   5     0.00000    30.33400     0.00000  0.0
    162    140    141    110   5     0.00000    30.33400     0.00000  0.0
    162    140    141    163   5     0.00000    30.33400     0.00000  0.0
    133    164    165    166   5     0.00000    30.33400     0.00000  0.0
    133    164    165    196   5     0.00000    30.33400     0.00000  0.0
    195    164    165    166   5     0.00000    30.33400     0.00000  0.0
    195    164    165    196   5     0.00000    30.33400     0.00000  0.0
    133    164    195    194   5     0.00000    30.33400     0.00000  0.0
    133    164    195    217   5     0.00000    30.33400     0.00000  0.0
    165    164    195    194   5     0.00000    30.33400     0.00000  0.0
    165    164    195    217   5     0.00000    30.33400     0.00000  0.0
    164    165    166    167   5     0.00000    30.33400     0.00000  0.0
    164    165    166    197   5     0.00000    30.33400     0.00000  0.0
    196    165    166    167   5     0.00000    30.33400     0.00000  0.0
    196    165    166    197   5     0.00000    30.33400     0.00000  0.0
    165    166    167    168   5     0.00000    30.33400     0.00000  0.0
    165    166    167    194   5     0.00000    30.33400     0.00000  0.0
    197    166    167    168   5     0.00000    30.33400     0.00000  0.0
    197    166    167    194   5     0.00000    30.33400     0.00000  0.0
    166    167    168    169   5     1.63176     1.00416     0.00000  0.0
    166    167    168    170   5     1.63176     1.00416     0.00000  0.0
    166    167    168    171   5     0.00000     3.76560     0.00000  0.0
    194    167    168    169   5     1.63176     1.00416     0.00000  0.0
    194    167    168    170   5     1.63176     1.00416     0.00000  0.0
    194    167    168    171   5     0.00000     3.76560     0.00000  0.0
    166    167    194    195   5     0.00000    30.33400     0.00000  0.0
    166    167    194    216   5     0.00000    30.33400     0.00000  0.0
    168    167    194    195   5     0.00000    30.33400     0.00000  0.0
    168    167    194    216   5     0.00000    30.33400     0.00000  0.0
    167    168    171    172   5     0.00000     3.76560     0.00000  0.0
    167    168    171    193   5     0.00000     3.76560     0.00000  0.0
    169    168    171    172   5     1.63176     1.00416     0.00000  0.0
    169    168    171    193   5     1.63176     1.00416     0.00000  0.0
    170    168    171    172   5     1.63176     1.00416     0.00000  0.0
    170    168    171    193   5     1.63176     1.00416     0.00000  0.0
    168    171    172    173   5     0.00000    30.33400     0.00000  0.0
    168    171    172    198   5     0.00000    30.33400     0.00000  0.0
    193    171    172    173   5     0.00000    30.33400     0.00000  0.0
    193    171    172    198   5     0.00000    30.33400     0.00000  0.0
    168    171    193    192   5     0.00000    30.33400     0.00000  0.0
    168    171    193    215   5     0.00000    30.33400     0.00000  0.0
    172    171    193    192   5     0.00000    30.33400     0.00000  0.0
    172    171    193    215   5     0.00000    30.33400     0.00000  0.0
    171    172    173    174   5     0.00000    30.33400     0.00000  0.0
    171    172    173    199   5     0.00000    30.33400     0.00000  0.0
    198    172    173    174   5     0.00000    30.33400     0.00000  0.0
    198    172    173    199   5     0.00000    30.33400     0.00000  0.0
    172    173    174    175   5     0.00000    30.33400     0.00000  0.0
    172    173    174    192   5     0.00000    30.33400     0.00000  0.0
    199    173    174    175   5     0.00000    30.33400     0.00000  0.0
    199    173    174    192   5     0.00000    30.33400     0.00000  0.0
    173    174    175    176   5     0.00000     3.94551     0.00000  0.0
    192    174    175    176   5     0.00000     3.94551     0.00000  0.0
    173    174    192    193   5     0.00000    30.33400     0.00000  0.0
    173    174    192    214   5     0.00000    30.33400     0.00000  0.0
    175    174    192    193   5     0.00000    30.33400     0.00000  0.0
    175    174    192    214   5     0.00000    30.33400     0.00000  0.0
    174    175    176    177   5     0.00000     3.94551     0.00000  0.0
    174    175    176    191   5     0.00000     3.94551     0.00000  0.0
    175    176    177    178   5     0.00000    30.33400     0.00000  0.0
    175    176    177    200   5     0.00000    30.33400     0.00000  0.0
    191    176    177    178   5     0.00000    30.33400     0.00000  0.0
    191    176    177    200   5     0.00000    30.33400     0.00000  0.0
    175    176    191    190   5     0.00000    30.33400     0.00000  0.0
    175    176    191    213   5     0.00000    30.33400     0.00000  0.0
    177    176    191    190   5     0.00000    30.33400     0.00000  0.0
    177    176    191    213   5     0.00000    30.33400     0.00000  0.0
    176    177    178    179   5     0.00000    30.33400     0.00000  0.0
    176    177    178    201   5     0.00000    30.33400     0.00000  0.0
    200    177    178    179   5     0.00000    30.33400     0.00000  0.0
    200    177    178    201   5     0.00000    30.33400     0.00000  0.0
    177    178    179    180   5     0.00000    30.33400     0.00000  0.0
    177    178    179    190   5     0.00000    30.33400     0.00000  0.0
    201    178    179    180   5     0.00000    30.33400     0.00000  0.0
    201    178    179    190   5     0.00000    30.33400     0.00000  0.0
    178    179    180    181   5     0.00000     0.34727     0.00000  0.0
    178    179    180    182   5     0.00000     0.34727     0.00000  0.0
    178    179    180    183   5     0.00000     0.35982     0.00000  0.0
    190    179    180    181   5     0.00000     0.34727     0.00000  0.0
    190    179    180    182   5     0.00000     0.34727     0.00000  0.0
    190    179    180    183   5     0.00000     0.35982     0.00000  0.0
    178    179    190    191   5     0.00000    30.33400     0.00000  0.0
    178    179    190    212   5     0.00000    30.33400     0.00000  0.0
    180    179    190    191   5     0.00000    30.33400     0.00000  0.0
    180    179    190    212   5     0.00000    30.33400     0.00000  0.0
    179    180    181    202   5     0.00000     0.00000     3.61498  0.0
    179    180    181    203   5     0.00000     0.00000     3.61498  0.0
    179    180    181    204   5     0.00000     0.00000     3.61498  0.0
    182    180    181    202   5     0.00000     0.00000     1.25520  0.0
    182    180    181    203   5     0.00000     0.00000     1.25520  0.0
    182    180    181    204   5     0.00000     0.00000     1.25520  0.0
    183    180    181    202   5     0.00000     0.00000     3.61498  0.0
    183    180    181    203   5     0.00000     0.00000     3.61498  0.0
    183    180    181    204   5     0.00000     0.00000     3.61498  0.0
    179    180    182    205   5     0.00000     0.00000     3.61498  0.0
    179    180    182    206   5     0.00000     0.00000     3.61498  0.0
    179    180    182    207   5     0.00000     0.00000     3.61498  0.0
    181    180    182    205   5     0.00000     0.00000     1.25520  0.0
    181    180    182    206   5     0.00000     0.00000     1.25520  0.0
    181    180    182    207   5     0.00000     0.00000     1.25520  0.0
    183    180    182    205   5     0.00000     0.00000     3.61498  0.0
    183    180    182    206   5     0.00000     0.00000     3.61498  0.0
    183    180    182    207   5     0.00000     0.00000     3.61498  0.0
    179    180    183    184   5     0.00000     0.35982     0.00000  0.0
    179    180    183    189   5     0.00000     0.35982     0.00000  0.0
    181    180    183    184   5     0.00000     0.34727     0.00000  0.0
    181    180    183    189   5     0.00000     0.34727     0.00000  0.0
    182    180    183    184   5     0.00000     0.34727     0.00000  0.0
    182    180    183    189   5     0.00000     0.34727     0.00000  0.0
    180    183    184    185   5     0.00000    30.33400     0.00000  0.0
    180    183    184    208   5     0.00000    30.33400     0.00000  0.0
    189    183    184    185   5     0.00000    30.33400     0.00000  0.0
    189    183    184    208   5     0.00000    30.33400     0.00000  0.0
    180    183    189    188   5     0.00000    30.33400     0.00000  0.0
    180    183    189    211   5     0.00000    30.33400     0.00000  0.0
    184    183    189    188   5     0.00000    30.33400     0.00000  0.0
    184    183    189    211   5     0.00000    30.33400     0.00000  0.0
    183    184    185    186   5     0.00000    30.33400     0.00000  0.0
    183    184    185    209   5     0.00000    30.33400     0.00000  0.0
    208    184    185    186   5     0.00000    30.33400     0.00000  0.0
    208    184    185    209   5     0.00000    30.33400     0.00000  0.0
    184    185    186    187   5     0.00000    30.33400     0.00000  0.0
    184    185    186    188   5     0.00000    30.33400     0.00000  0.0
    209    185    186    187   5     0.00000    30.33400     0.00000  0.0
    209    185    186    188   5     0.00000    30.33400     0.00000  0.0
    185    186    187    218   5     0.00000     3.94551     0.00000  0.0
    188    186    187    218   5     0.00000     3.94551     0.00000  0.0
    185    186    188    189   5     0.00000    30.33400     0.00000  0.0
    185    186    188    210   5     0.00000    30.33400     0.00000  0.0
    187    186    188    189   5     0.00000    30.33400     0.00000  0.0
    187    186    188    210   5     0.00000    30.33400     0.00000  0.0
    186    187    218    219   5     0.00000     3.94551     0.00000  0.0
    186    187    218    249   5     0.00000     3.94551     0.00000  0.0
    186    188    189    183   5     0.00000    30.33400     0.00000  0.0
    186    188    189    211   5     0.00000    30.33400     0.00000  0.0
    210    188    189    183   5     0.00000    30.33400     0.00000  0.0
    210    188    189    211   5     0.00000    30.33400     0.00000  0.0
    179    190    191    176   5     0.00000    30.33400     0.00000  0.0
    179    190    191    213   5     0.00000    30.33400     0.00000  0.0
    212    190    191    176   5     0.00000    30.33400     0.00000  0.0
    212    190    191    213   5     0.00000    30.33400     0.00000  0.0
    174    192    193    171   5     0.00000    30.33400     0.00000  0.0
    174    192    193    215   5     0.00000    30.33400     0.00000  0.0
    214    192    193    171   5     0.00000    30.33400     0.00000  0.0
    214    192    193    215   5     0.00000    30.33400     0.00000  0.0
    167    194    195    164   5     0.00000    30.33400     0.00000  0.0
    167    194    195    217   5     0.00000    30.33400     0.00000  0.0
    216    194    195    164   5     0.00000    30.33400     0.00000  0.0
    216    194    195    217   5     0.00000    30.33400     0.00000  0.0
    187    218    219    220   5     0.00000    30.33400     0.00000  0.0
    187    218    219    250   5     0.00000    30.33400     0.00000  0.0
    249    218    219    220   5     0.00000    30.33400     0.00000  0.0
    249    218    219    250   5     0.00000    30.33400     0.00000  0.0
    187    218    249    248   5     0.00000    30.33400     0.00000  0.0
    187    218    249    271   5     0.00000    30.33400     0.00000  0.0
    219    218    249    248   5     0.00000    30.33400     0.00000  0.0
    219    218    249    271   5     0.00000    30.33400     0.00000  0.0
    218    219    220    221   5     0.00000    30.33400     0.00000  0.0
    218    219    220    251   5     0.00000    30.33400     0.00000  0.0
    250    219    220    221   5     0.00000    30.33400     0.00000  0.0
    250    219    220    251   5     0.00000    30.33400     0.00000  0.0
    219    220    221    222   5     0.00000    30.33400     0.00000  0.0
    219    220    221    248   5     0.00000    30.33400     0.00000  0.0
    251    220    221    222   5     0.00000    30.33400     0.00000  0.0
    251    220    221    248   5     0.00000    30.33400     0.00000  0.0
    220    221    222    223   5     1.63176     1.00416     0.00000  0.0
    220    221    222    224   5     1.63176     1.00416     0.00000  0.0
    220    221    222    225   5     0.00000     3.76560     0.00000  0.0
    248    221    222    223   5     1.63176     1.00416     0.00000  0.0
    248    221    222    224   5     1.63176     1.00416     0.00000  0.0
    248    221    222    225   5     0.00000     3.76560     0.00000  0.0
    220    221    248    249   5     0.00000    30.33400     0.00000  0.0
    220    221    248    270   5     0.00000    30.33400     0.00000  0.0
    222    221    248    249   5     0.00000    30.33400     0.00000  0.0
    222    221    248    270   5     0.00000    30.33400     0.00000  0.0
    221    222    225    226   5     0.00000     3.76560     0.00000  0.0
    221    222    225    247   5     0.00000     3.76560     0.00000  0.0
    223    222    225    226   5     1.63176     1.00416     0.00000  0.0
    223    222    225    247   5     1.63176     1.00416     0.00000  0.0
    224    222    225    226   5     1.63176     1.00416     0.00000  0.0
    224    222    225    247   5     1.63176     1.00416     0.00000  0.0
    222    225    226    227   5     0.00000    30.33400     0.00000  0.0
    222    225    226    252   5     0.00000    30.33400     0.00000  0.0
    247    225    226    227   5     0.00000    30.33400     0.00000  0.0
    247    225    226    252   5     0.00000    30.33400     0.00000  0.0
    222    225    247    246   5     0.00000    30.33400     0.00000  0.0
    222    225    247    269   5     0.00000    30.33400     0.00000  0.0
    226    225    247    246   5     0.00000    30.33400     0.00000  0.0
    226    225    247    269   5     0.00000    30.33400     0.00000  0.0
    225    226    227    228   5     0.00000    30.33400     0.00000  0.0
    225    226    227    253   5     0.00000    30.33400     0.00000  0.0
    252    226    227    228   5     0.00000    30.33400     0.00000  0.0
    252    226    227    253   5     0.00000    30.33400     0.00000  0.0
    226    227    228    229   5     0.00000    30.33400     0.00000  0.0
    226    227    228    246   5     0.00000    30.33400     0.00000  0.0
    253    227    228    229   5     0.00000    30.33400     0.00000  0.0
    253    227    228    246   5     0.00000    30.33400     0.00000  0.0
    227    228    229    230   5     0.00000     3.94551     0.00000  0.0
    246    228    229    230   5     0.00000     3.94551     0.00000  0.0
    227    228    246    247   5     0.00000    30.33400     0.00000  0.0
    227    228    246    268   5     0.00000    30.33400     0.00000  0.0
    229    228    246    247   5     0.00000    30.33400     0.00000  0.0
    229    228    246    268   5     0.00000    30.33400     0.00000  0.0
    228    229    230    231   5     0.00000     3.94551     0.00000  0.0
    228    229    230    245   5     0.00000     3.94551     0.00000  0.0
    229    230    231    232   5     0.00000    30.33400     0.00000  0.0
    229    230    231    254   5     0.00000    30.33400     0.00000  0.0
    245    230    231    232   5     0.00000    30.33400     0.00000  0.0
    245    230    231    254   5     0.00000    30.33400     0.00000  0.0
    229    230    245    244   5     0.00000    30.33400     0.00000  0.0
    229    230    245    267   5     0.00000    30.33400     0.00000  0.0
    231    230    245    244   5     0.00000    30.33400     0.00000  0.0
    231    230    245    267   5     0.00000    30.33400     0.00000  0.0
    230    231    232    233   5     0.00000    30.33400     0.00000  0.0
    230    231    232    255   5     0.00000    30.33400     0.00000  0.0
    254    231    232    233   5     0.00000    30.33400     0.00000  0.0
    254    231    232    255   5     0.00000    30.33400     0.00000  0.0
    231    232    233    234   5     0.00000    30.33400     0.00000  0.0
    231    232    233    244   5     0.00000    30.33400     0.00000  0.0
    255    232    233    234   5     0.00000    30.33400     0.00000  0.0
    255    232    233    244   5     0.00000    30.33400     0.00000  0.0
    232    233    234    235   5     0.00000     0.34727     0.00000  0.0
    232    233    234    236   5     0.00000     0.34727     0.00000  0.0
    232    233    234    237   5     0.00000     0.35982     0.00000  0.0
    244    233    234    235   5     0.00000     0.34727     0.00000  0.0
    244    233    234    236   5     0.00000     0.34727     0.00000  0.0
    244    233    234    237   5     0.00000     0.35982     0.00000  0.0
    232    233    244    245   5     0.00000    30.33400     0.00000  0.0
    232    233    244    266   5     0.00000    30.33400     0.00000  0.0
    234    233    244    245   5     0.00000    30.33400     0.00000  0.0
    234    233    244    266   5     0.00000    30.33400     0.00000  0.0
    233    234    235    256   5     0.00000     0.00000     3.61498  0.0
    233    234    235    257   5     0.00000     0.00000     3.61498  0.0
    233    234    235    258   5     0.00000     0.00000     3.61498  0.0
    236    234    235    256   5     0.00000     0.00000     1.25520  0.0
    236    234    235    257   5     0.00000     0.00000     1.25520  0.0
    236    234    235    258   5     0.00000     0.00000     1.25520  0.0
    237    234    235    256   5     0.00000     0.00000     3.61498  0.0
    237    234    235    257   5     0.00000     0.00000     3.61498  0.0
    237    234    235    258   5     0.00000     0.00000     3.61498  0.0
    233    234    236    259   5     0.00000     0.00000     3.61498  0.0
    233    234    236    260   5     0.00000     0.00000     3.61498  0.0
    233    234    236    261   5     0.00000     0.00000     3.61498  0.0
    235    234    236    259   5     0.00000     0.00000     1.25520  0.0
    235    234    236    260   5     0.00000     0.00000     1.25520  0.0
    235    234    236    261   5     0.00000     0.00000     1.25520  0.0
    237    234    236    259   5     0.00000     0.00000     3.61498  0.0
    237    234    236    260   5     0.00000     0.00000     3.61498  0.0
    237    234    236    261   5     0.00000     0.00000     3.61498  0.0
    233    234    237    238   5     0.00000     0.35982     0.00000  0.0
    233    234    237    243   5     0.00000     0.35982     0.00000  0.0
    235    234    237    238   5     0.00000     0.34727     0.00000  0.0
    235    234    237    243   5     0.00000     0.34727     0.00000  0.0
    236    234    237    238   5     0.00000     0.34727     0.00000  0.0
    236    234    237    243   5     0.00000     0.34727     0.00000  0.0
    234    237    238    239   5     0.00000    30.33400     0.00000  0.0
    234    237    238    262   5     0.00000    30.33400     0.00000  0.0
    243    237    238    239   5     0.00000    30.33400     0.00000  0.0
    243    237    238    262   5     0.00000    30.33400     0.00000  0.0
    234    237    243    242   5     0.00000    30.33400     0.00000  0.0
    234    237    243    265   5     0.00000    30.33400     0.00000  0.0
    238    237    243    242   5     0.00000    30.33400     0.00000  0.0
    238    237    243    265   5     0.00000    30.33400     0.00000  0.0
    237    238    239    240   5     0.00000    30.33400     0.00000  0.0
    237    238    239    263   5     0.00000    30.33400     0.00000  0.0
    262    238    239    240   5     0.00000    30.33400     0.00000  0.0
    262    238    239    263   5     0.00000    30.33400     0.00000  0.0
    238    239    240    241   5     0.00000    30.33400     0.00000  0.0
    238    239    240    242   5     0.00000    30.33400     0.00000  0.0
    263    239    240    241   5     0.00000    30.33400     0.00000  0.0
    263    239    240    242   5     0.00000    30.33400     0.00000  0.0
    239    240    241    272   5     0.00000     3.94551     0.00000  0.0
    242    240    241    272   5     0.00000     3.94551     0.00000  0.0
    239    240    242    243   5     0.00000    30.33400     0.00000  0.0
    239    240    242    264   5     0.00000    30.33400     0.00000  0.0
    241    240    242    243   5     0.00000    30.33400     0.00000  0.0
    241    240    242    264   5     0.00000    30.33400     0.00000  0.0
    240    241    272    273   5     0.00000     3.94551     0.00000  0.0
    240    241    272    303   5     0.00000     3.94551     0.00000  0.0
    240    242    243    237   5     0.00000    30.33400     0.00000  0.0
    240    242    243    265   5     0.00000    30.33400     0.00000  0.0
    264    242    243    237   5     0.00000    30.33400     0.00000  0.0
    264    242    243    265   5     0.00000    30.33400     0.00000  0.0
    233    244    245    230   5     0.00000    30.33400     0.00000  0.0
    233    244    245    267   5     0.00000    30.33400     0.00000  0.0
    266    244    245    230   5     0.00000    30.33400     0.00000  0.0
    266    244    245    267   5     0.00000    30.33400     0.00000  0.0
    228    246    247    225   5     0.00000    30.33400     0.00000  0.0
    228    246    247    269   5     0.00000    30.33400     0.00000  0.0
    268    246    247    225   5     0.00000    30.33400     0.00000  0.0
    268    246    247    269   5     0.00000    30.33400     0.00000  0.0
    221    248    249    218   5     0.00000    30.33400     0.00000  0.0
    221    248    249    271   5     0.00000    30.33400     0.00000  0.0
    270    248    249    218   5     0.00000    30.33400     0.00000  0.0
    270    248    249    271   5     0.00000    30.33400     0.00000  0.0
    241    272    273    274   5     0.00000    30.33400     0.00000  0.0
    241    272    273    304   5     0.00000    30.33400     0.00000  0.0
    303    272    273    274   5     0.00000    30.33400     0.00000  0.0
    303    272    273    304   5     0.00000    30.33400     0.00000  0.0
    241    272    303    302   5     0.00000    30.33400     0.00000  0.0
    241    272    303    325   5     0.00000    30.33400     0.00000  0.0
    273    272    303    302   5     0.00000    30.33400     0.00000  0.0
    273    272    303    325   5     0.00000    30.33400     0.00000  0.0
    272    273    274    275   5     0.00000    30.33400     0.00000  0.0
    272    273    274    305   5     0.00000    30.33400     0.00000  0.0
    304    273    274    275   5     0.00000    30.33400     0.00000  0.0
    304    273    274    305   5     0.00000    30.33400     0.00000  0.0
    273    274    275    276   5     0.00000    30.33400     0.00000  0.0
    273    274    275    302   5     0.00000    30.33400     0.00000  0.0
    305    274    275    276   5     0.00000    30.33400     0.00000  0.0
    305    274    275    302   5     0.00000    30.33400     0.00000  0.0
    274    275    276    277   5     1.63176     1.00416     0.00000  0.0
    274    275    276    278   5     1.63176     1.00416     0.00000  0.0
    274    275    276    279   5     0.00000     3.76560     0.00000  0.0
    302    275    276    277   5     1.63176     1.00416     0.00000  0.0
    302    275    276    278   5     1.63176     1.00416     0.00000  0.0
    302    275    276    279   5     0.00000     3.76560     0.00000  0.0
    274    275    302    303   5     0.00000    30.33400     0.00000  0.0
    274    275    302    324   5     0.00000    30.33400     0.00000  0.0
    276    275    302    303   5     0.00000    30.33400     0.00000  0.0
    276    275    302    324   5     0.00000    30.33400     0.00000  0.0
    275    276    279    280   5     0.00000     3.76560     0.00000  0.0
    275    276    279    301   5     0.00000     3.76560     0.00000  0.0
    277    276    279    280   5     1.63176     1.00416     0.00000  0.0
    277    276    279    301   5     1.63176     1.00416     0.00000  0.0
    278    276    279    280   5     1.63176     1.00416     0.00000  0.0
    278    276    279    301   5     1.63176     1.00416     0.00000  0.0
    276    279    280    281   5     0.00000    30.33400     0.00000  0.0
    276    279    280    306   5     0.00000    30.33400     0.00000  0.0
    301    279    280    281   5     0.00000    30.33400     0.00000  0.0
    301    279    280    306   5     0.00000    30.33400     0.00000  0.0
    276    279    301    300   5     0.00000    30.33400     0.00000  0.0
    276    279    301    323   5     0.00000    30.33400     0.00000  0.0
    280    279    301    300   5     0.00000    30.33400     0.00000  0.0
    280    279    301    323   5     0.00000    30.33400     0.00000  0.0
    279    280    281    282   5     0.00000    30.33400     0.00000  0.0
    279    280    281    307   5     0.00000    30.33400     0.00000  0.0
    306    280    281    282   5     0.00000    30.33400     0.00000  0.0
    306    280    281    307   5     0.00000    30.33400     0.00000  0.0
    280    281    282    283   5     0.00000    30.33400     0.00000  0.0
    280    281    282    300   5     0.00000    30.33400     0.00000  0.0
    307    281    282    283   5     0.00000    30.33400     0.00000  0.0
    307    281    282    300   5     0.00000    30.33400     0.00000  0.0
    281    282    283    284   5     0.00000     3.94551     0.00000  0.0
    300    282    283    284   5     0.00000     3.94551     0.00000  0.0
    281    282    300    301   5     0.00000    30.33400     0.00000  0.0
    281    282    300    322   5     0.00000    30.33400     0.00000  0.0
    283    282    300    301   5     0.00000    30.33400     0.00000  0.0
    283    282    300    322   5     0.00000    30.33400     0.00000  0.0
    282    283    284    285   5     0.00000     3.94551     0.00000  0.0
    282    283    284    299   5     0.00000     3.94551     0.00000  0.0
    283    284    285    286   5     0.00000    30.33400     0.00000  0.0
    283    284    285    308   5     0.00000    30.33400     0.00000  0.0
    299    284    285    286   5     0.00000    30.33400     0.00000  0.0
    299    284    285    308   5     0.00000    30.33400     0.00000  0.0
    283    284    299    298   5     0.00000    30.33400     0.00000  0.0
    283    284    299    321   5     0.00000    30.33400     0.00000  0.0
    285    284    299    298   5     0.00000    30.33400     0.00000  0.0
    285    284    299    321   5     0.00000    30.33400     0.00000  0.0
    284    285    286    287   5     0.00000    30.33400     0.00000  0.0
    284    285    286    309   5     0.00000    30.33400     0.00000  0.0
    308    285    286    287   5     0.00000    30.33400     0.00000  0.0
    308    285    286    309   5     0.00000    30.33400     0.00000  0.0
    285    286    287    288   5     0.00000    30.33400     0.00000  0.0
    285    286    287    298   5     0.00000    30.33400     0.00000  0.0
    309    286    287    288   5     0.00000    30.33400     0.00000  0.0
    309    286    287    298   5     0.00000    30.33400     0.00000  0.0
    286    287    288    289   5     0.00000     0.34727     0.00000  0.0
    286    287    288    290   5     0.00000     0.34727     0.00000  0.0
    286    287    288    291   5     0.00000     0.35982     0.00000  0.0
    298    287    288    289   5     0.00000     0.34727     0.00000  0.0
    298    287    288    290   5     0.00000     0.34727     0.00000  0.0
    298    287    288    291   5     0.00000     0.35982     0.00000  0.0
    286    287    298    299   5     0.00000    30.33400     0.00000  0.0
    286    287    298    320   5     0.00000    30.33400     0.00000  0.0
    288    287    298    299   5     0.00000    30.33400     0.00000  0.0
    288    287    298    320   5     0.00000    30.33400     0.00000  0.0
    287    288    289    310   5     0.00000     0.00000     3.61498  0.0
    287    288    289    311   5     0.00000     0.00000     3.61498  0.0
    287    288    289    312   5     0.00000     0.00000     3.61498  0.0
    290    288    289    310   5     0.00000     0.00000     1.25520  0.0
    290    288    289    311   5     0.00000     0.00000     1.25520  0.0
    290    288    289    312   5     0.00000     0.00000     1.25520  0.0
    291    288    289    310   5     0.00000     0.00000     3.61498  0.0
    291    288    289    311   5     0.00000     0.00000     3.61498  0.0
    291    288    289    312   5     0.00000     0.00000     3.61498  0.0
    287    288    290    313   5     0.00000     0.00000     3.61498  0.0
    287    288    290    314   5     0.00000     0.00000     3.61498  0.0
    287    288    290    315   5     0.00000     0.00000     3.61498  0.0
    289    288    290    313   5     0.00000     0.00000     1.25520  0.0
    289    288    290    314   5     0.00000     0.00000     1.25520  0.0
    289    288    290    315   5     0.00000     0.00000     1.25520  0.0
    291    288    290    313   5     0.00000     0.00000     3.61498  0.0
    291    288    290    314   5     0.00000     0.00000     3.61498  0.0
    291    288    290    315   5     0.00000     0.00000     3.61498  0.0
    287    288    291    292   5     0.00000     0.35982     0.00000  0.0
    287    288    291    297   5     0.00000     0.35982     0.00000  0.0
    289    288    291    292   5     0.00000     0.34727     0.00000  0.0
    289    288    291    297   5     0.00000     0.34727     0.00000  0.0
    290    288    291    292   5     0.00000     0.34727     0.00000  0.0
    290    288    291    297   5     0.00000     0.34727     0.00000  0.0
    288    291    292    293   5     0.00000    30.33400     0.00000  0.0
    288    291    292    316   5     0.00000    30.33400     0.00000  0.0
    297    291    292    293   5     0.00000    30.33400     0.00000  0.0
    297    291    292    316   5     0.00000    30.33400     0.00000  0.0
    288    291    297    296   5     0.00000    30.33400     0.00000  0.0
    288    291    297    319   5     0.00000    30.33400     0.00000  0.0
    292    291    297    296   5     0.00000    30.33400     0.00000  0.0
    292    291    297    319   5     0.00000    30.33400     0.00000  0.0
    291    292    293    294   5     0.00000    30.33400     0.00000  0.0
    291    292    293    317   5     0.00000    30.33400     0.00000  0.0
    316    292    293    294   5     0.00000    30.33400     0.00000  0.0
    316    292    293    317   5     0.00000    30.33400     0.00000  0.0
    292    293    294    295   5     0.00000    30.33400     0.00000  0.0
    292    293    294    296   5     0.00000    30.33400     0.00000  0.0
    317    293    294    295   5     0.00000    30.33400     0.00000  0.0
    317    293    294    296   5     0.00000    30.33400     0.00000  0.0
    293    294    295    326   5     0.00000     3.94551     0.00000  0.0
    296    294    295    326   5     0.00000     3.94551     0.00000  0.0
    293    294    296    297   5     0.00000    30.33400     0.00000  0.0
    293    294    296    318   5     0.00000    30.33400     0.00000  0.0
    295    294    296    297   5     0.00000    30.33400     0.00000  0.0
    295    294    296    318   5     0.00000    30.33400     0.00000  0.0
    294    295    326    327   5     0.00000     3.94551     0.00000  0.0
    294    295    326    357   5     0.00000     3.94551     0.00000  0.0
    294    296    297    291   5     0.00000    30.33400     0.00000  0.0
    294    296    297    319   5     0.00000    30.33400     0.00000  0.0
    318    296    297    291   5     0.00000    30.33400     0.00000  0.0
    318    296    297    319   5     0.00000    30.33400     0.00000  0.0
    287    298    299    284   5     0.00000    30.33400     0.00000  0.0
    287    298    299    321   5     0.00000    30.33400     0.00000  0.0
    320    298    299    284   5     0.00000    30.33400     0.00000  0.0
    320    298    299    321   5     0.00000    30.33400     0.00000  0.0
    282    300    301    279   5     0.00000    30.33400     0.00000  0.0
    282    300    301    323   5     0.00000    30.33400     0.00000  0.0
    322    300    301    279   5     0.00000    30.33400     0.00000  0.0
    322    300    301    323   5     0.00000    30.33400     0.00000  0.0
    275    302    303    272   5     0.00000    30.33400     0.00000  0.0
    275    302    303    325   5     0.00000    30.33400     0.00000  0.0
    324    302    303    272   5     0.00000    30.33400     0.00000  0.0
    324    302    303    325   5     0.00000    30.33400     0.00000  0.0
    295    326    327    328   5     0.00000    30.33400     0.00000  0.0
    295    326    327    358   5     0.00000    30.33400     0.00000  0.0
    357    326    327    328   5     0.00000    30.33400     0.00000  0.0
    357    326    327    358   5     0.00000    30.33400     0.00000  0.0
    295    326    357    356   5     0.00000    30.33400     0.00000  0.0
    295    326    357    379   5     0.00000    30.33400     0.00000  0.0
    327    326    357    356   5     0.00000    30.33400     0.00000  0.0
    327    326    357    379   5     0.00000    30.33400     0.00000  0.0
    326    327    328    329   5     0.00000    30.33400     0.00000  0.0
    326    327    328    359   5     0.00000    30.33400     0.00000  0.0
    358    327    328    329   5     0.00000    30.33400     0.00000  0.0
    358    327    328    359   5     0.00000    30.33400     0.00000  0.0
    327    328    329    330   5     0.00000    30.33400     0.00000  0.0
    327    328    329    356   5     0.00000    30.33400     0.00000  0.0
    359    328    329    330   5     0.00000    30.33400     0.00000  0.0
    359    328    329    356   5     0.00000    30.33400     0.00000  0.0
    328    329    330    331   5     1.63176     1.00416     0.00000  0.0
    328    329    330    332   5     1.63176     1.00416     0.00000  0.0
    328    329    330    333   5     0.00000     3.76560     0.00000  0.0
    356    329    330    331   5     1.63176     1.00416     0.00000  0.0
    356    329    330    332   5     1.63176     1.00416     0.00000  0.0
    356    329    330    333   5     0.00000     3.76560     0.00000  0.0
    328    329    356    357   5     0.00000    30.33400     0.00000  0.0
    328    329    356    378   5     0.00000    30.33400     0.00000  0.0
    330    329    356    357   5     0.00000    30.33400     0.00000  0.0
    330    329    356    378   5     0.00000    30.33400     0.00000  0.0
    329    330    333    334   5     0.00000     3.76560     0.00000  0.0
    329    330    333    355   5     0.00000     3.76560     0.00000  0.0
    331    330    333    334   5     1.63176     1.00416     0.00000  0.0
    331    330    333    355   5     1.63176     1.00416     0.00000  0.0
    332    330    333    334   5     1.63176     1.00416     0.00000  0.0
    332    330    333    355   5     1.63176     1.00416     0.00000  0.0
    330    333    334    335   5     0.00000    30.33400     0.00000  0.0
    330    333    334    360   5     0.00000    30.33400     0.00000  0.0
    355    333    334    335   5     0.00000    30.33400     0.00000  0.0
    355    333    334    360   5     0.00000    30.33400     0.00000  0.0
    330    333    355    354   5     0.00000    30.33400     0.00000  0.0
    330    333    355    377   5     0.00000    30.33400     0.00000  0.0
    334    333    355    354   5     0.00000    30.33400     0.00000  0.0
    334    333    355    377   5     0.00000    30.33400     0.00000  0.0
    333    334    335    336   5     0.00000    30.33400     0.00000  0.0
    333    334    335    361   5     0.00000    30.33400     0.00000  0.0
    360    334    335    336   5     0.00000    30.33400     0.00000  0.0
    360    334    335    361   5     0.00000    30.33400     0.00000  0.0
    334    335    336    337   5     0.00000    30.33400     0.00000  0.0
    334    335    336    354   5     0.00000    30.33400     0.00000  0.0
    361    335    336    337   5     0.00000    30.33400     0.00000  0.0
    361    335    336    354   5     0.00000    30.33400     0.00000  0.0
    335    336    337    338   5     0.00000     3.94551     0.00000  0.0
    354    336    337    338   5     0.00000     3.94551     0.00000  0.0
    335    336    354    355   5     0.00000    30.33400     0.00000  0.0
    335    336    354    376   5     0.00000    30.33400     0.00000  0.0
    337    336    354    355   5     0.00000    30.33400     0.00000  0.0
    337    336    354    376   5     0.00000    30.33400     0.00000  0.0
    336    337    338    339   5     0.00000     3.94551     0.00000  0.0
    336    337    338    353   5     0.00000     3.94551     0.00000  0.0
    337    338    339    340   5     0.00000    30.33400     0.00000  0.0
    337    338    339    362   5     0.00000    30.33400     0.00000  0.0
    353    338    339    340   5     0.00000    30.33400     0.00000  0.0
    353    338    339    362   5     0.00000    30.33400     0.00000  0.0
    337    338    353    352   5     0.00000    30.33400     0.00000  0.0
    337    338    353    375   5     0.00000    30.33400     0.00000  0.0
    339    338    353    352   5     0.00000    30.33400     0.00000  0.0
    339    338    353    375   5     0.00000    30.33400     0.00000  0.0
    338    339    340    341   5     0.00000    30.33400     0.00000  0.0
    338    339    340    363   5     0.00000    30.33400     0.00000  0.0
    362    339    340    341   5     0.00000    30.33400     0.00000  0.0
    362    339    340    363   5     0.00000    30.33400     0.00000  0.0
    339    340    341    342   5     0.00000    30.33400     0.00000  0.0
    339    340    341    352   5     0.00000    30.33400     0.00000  0.0
    363    340    341    342   5     0.00000    30.33400     0.00000  0.0
    363    340    341    352   5     0.00000    30.33400     0.00000  0.0
    340    341    342    343   5     0.00000     0.34727     0.00000  0.0
    340    341    342    344   5     0.00000     0.34727     0.00000  0.0
    340    341    342    345   5     0.00000     0.35982     0.00000  0.0
    352    341    342    343   5     0.00000     0.34727     0.00000  0.0
    352    341    342    344   5     0.00000     0.34727     0.00000  0.0
    352    341    342    345   5     0.00000     0.35982     0.00000  0.0
    340    341    352    353   5     0.00000    30.33400     0.00000  0.0
    340    341    352    374   5     0.00000    30.33400     0.00000  0.0
    342    341    352    353   5     0.00000    30.33400     0.00000  0.0
    342    341    352    374   5     0.00000    30.33400     0.00000  0.0
    341    342    343    364   5     0.00000     0.00000     3.61498  0.0
    341    342    343    365   5     0.00000     0.00000     3.61498  0.0
    341    342    343    366   5     0.00000     0.00000     3.61498  0.0
    344    342    343    364   5     0.00000     0.00000     1.25520  0.0
    344    342    343    365   5     0.00000     0.00000     1.25520  0.0
    344    342    343    366   5     0.00000     0.00000     1.25520  0.0
    345    342    343    364   5     0.00000     0.00000     3.61498  0.0
    345    342    343    365   5     0.00000     0.00000     3.61498  0.0
    345    342    343    366   5     0.00000     0.00000     3.61498  0.0
    341    342    344    367   5     0.00000     0.00000     3.61498  0.0
    341    342    344    368   5     0.00000     0.00000     3.61498  0.0
    341    342    344    369   5     0.00000     0.00000     3.61498  0.0
    343    342    344    367   5     0.00000     0.00000     1.25520  0.0
    343    342    344    368   5     0.00000     0.00000     1.25520  0.0
    343    342    344    369   5     0.00000     0.00000     1.25520  0.0
    345    342    344    367   5     0.00000     0.00000     3.61498  0.0
    345    342    344    368   5     0.00000     0.00000     3.61498  0.0
    345    342    344    369   5     0.00000     0.00000     3.61498  0.0
    341    342    345    346   5     0.00000     0.35982     0.00000  0.0
    341    342    345    351   5     0.00000     0.35982     0.00000  0.0
    343    342    345    346   5     0.00000     0.34727     0.00000  0.0
    343    342    345    351   5     0.00000     0.34727     0.00000  0.0
    344    342    345    346   5     0.00000     0.34727     0.00000  0.0
    344    342    345    351   5     0.00000     0.34727     0.00000  0.0
    342    345    346    347   5     0.00000    30.33400     0.00000  0.0
    342    345    346    370   5     0.00000    30.33400     0.00000  0.0
    351    345    346    347   5     0.00000    30.33400     0.00000  0.0
    351    345    346    370   5     0.00000    30.33400     0.00000  0.0
    342    345    351    350   5     0.00000    30.33400     0.00000  0.0
    342    345    351    373   5     0.00000    30.33400     0.00000  0.0
    346    345    351    350   5     0.00000    30.33400     0.00000  0.0
    346    345    351    373   5     0.00000    30.33400     0.00000  0.0
    345    346    347    348   5     0.00000    30.33400     0.00000  0.0
    345    346    347    371   5     0.00000    30.33400     0.00000  0.0
    370    346    347    348   5     0.00000    30.33400     0.00000  0.0
    370    346    347    371   5     0.00000    30.33400     0.00000  0.0
    346    347    348    349   5     0.00000    30.33400     0.00000  0.0
    346    347    348    350   5     0.00000    30.33400     0.00000  0.0
    371    347    348    349   5     0.00000    30.33400     0.00000  0.0
    371    347    348    350   5     0.00000    30.33400     0.00000  0.0
    347    348    349    380   5     0.00000     3.94551     0.00000  0.0
    350    348    349    380   5     0.00000     3.94551     0.00000  0.0
    347    348    350    351   5     0.00000    30.33400     0.00000  0.0
    347    348    350    372   5     0.00000    30.33400     0.00000  0.0
    349    348    350    351   5     0.00000    30.33400     0.00000  0.0
    349    348    350    372   5     0.00000    30.33400     0.00000  0.0
    348    349    380    381   5     0.00000     3.94551     0.00000  0.0
    348    349    380    411   5     0.00000     3.94551     0.00000  0.0
    348    350    351    345   5     0.00000    30.33400     0.00000  0.0
    348    350    351    373   5     0.00000    30.33400     0.00000  0.0
    372    350    351    345   5     0.00000    30.33400     0.00000  0.0
    372    350    351    373   5     0.00000    30.33400     0.00000  0.0
    341    352    353    338   5     0.00000    30.33400     0.00000  0.0
    341    352    353    375   5     0.00000    30.33400     0.00000  0.0
    374    352    353    338   5     0.00000    30.33400     0.00000  0.0
    374    352    353    375   5     0.00000    30.33400     0.00000  0.0
    336    354    355    333   5     0.00000    30.33400     0.00000  0.0
    336    354    355    377   5     0.00000    30.33400     0.00000  0.0
    376    354    355    333   5     0.00000    30.33400     0.00000  0.0
    376    354    355    377   5     0.00000    30.33400     0.00000  0.0
    329    356    357    326   5     0.00000    30.33400     0.00000  0.0
    329    356    357    379   5     0.00000    30.33400     0.00000  0.0
    378    356    357    326   5     0.00000    30.33400     0.00000  0.0
    378    356    357    379   5     0.00000    30.33400     0.00000  0.0
    349    380    381    382   5     0.00000    30.33400     0.00000  0.0
    349    380    381    412   5     0.00000    30.33400     0.00000  0.0
    411    380    381    382   5     0.00000    30.33400     0.00000  0.0
    411    380    381    412   5     0.00000    30.33400     0.00000  0.0
    349    380    411    410   5     0.00000    30.33400     0.00000  0.0
    349    380    411    433   5     0.00000    30.33400     0.00000  0.0
    381    380    411    410   5     0.00000    30.33400     0.00000  0.0
    381    380    411    433   5     0.00000    30.33400     0.00000  0.0
    380    381    382    383   5     0.00000    30.33400     0.00000  0.0
    380    381    382    413   5     0.00000    30.33400     0.00000  0.0
    412    381    382    383   5     0.00000    30.33400     0.00000  0.0
    412    381    382    413   5     0.00000    30.33400     0.00000  0.0
    381    382    383    384   5     0.00000    30.33400     0.00000  0.0
    381    382    383    410   5     0.00000    30.33400     0.00000  0.0
    413    382    383    384   5     0.00000    30.33400     0.00000  0.0
    413    382    383    410   5     0.00000    30.33400     0.00000  0.0
    382    383    384    385   5     1.63176     1.00416     0.00000  0.0
    382    383    384    386   5     1.63176     1.00416     0.00000  0.0
    382    383    384    387   5     0.00000     3.76560     0.00000  0.0
    410    383    384    385   5     1.63176     1.00416     0.00000  0.0
    410    383    384    386   5     1.63176     1.00416     0.00000  0.0
    410    383    384    387   5     0.00000     3.76560     0.00000  0.0
    382    383    410    411   5     0.00000    30.33400     0.00000  0.0
    382    383    410    432   5     0.00000    30.33400     0.00000  0.0
    384    383    410    411   5     0.00000    30.33400     0.00000  0.0
    384    383    410    432   5     0.00000    30.33400     0.00000  0.0
    383    384    387    388   5     0.00000     3.76560     0.00000  0.0
    383    384    387    409   5     0.00000     3.76560     0.00000  0.0
    385    384    387    388   5     1.63176     1.00416     0.00000  0.0
    385    384    387    409   5     1.63176     1.00416     0.00000  0.0
    386    384    387    388   5     1.63176     1.00416     0.00000  0.0
    386    384    387    409   5     1.63176     1.00416     0.00000  0.0
    384    387    388    389   5     0.00000    30.33400     0.00000  0.0
    384    387    388    414   5     0.00000    30.33400     0.00000  0.0
    409    387    388    389   5     0.00000    30.33400     0.00000  0.0
    409    387    388    414   5     0.00000    30.33400     0.00000  0.0
    384    387    409    408   5     0.00000    30.33400     0.00000  0.0
    384    387    409    431   5     0.00000    30.33400     0.00000  0.0
    388    387    409    408   5     0.00000    30.33400     0.00000  0.0
    388    387    409    431   5     0.00000    30.33400     0.00000  0.0
    387    388    389    390   5     0.00000    30.33400     0.00000  0.0
    387    388    389    415   5     0.00000    30.33400     0.00000  0.0
    414    388    389    390   5     0.00000    30.33400     0.00000  0.0
    414    388    389    415   5     0.00000    30.33400     0.00000  0.0
    388    389    390    391   5     0.00000    30.33400     0.00000  0.0
    388    389    390    408   5     0.00000    30.33400     0.00000  0.0
    415    389    390    391   5     0.00000    30.33400     0.00000  0.0
    415    389    390    408   5     0.00000    30.33400     0.00000  0.0
    389    390    391    392   5     0.00000     3.94551     0.00000  0.0
    408    390    391    392   5     0.00000     3.94551     0.00000  0.0
    389    390    408    409   5     0.00000    30.33400     0.00000  0.0
    389    390    408    430   5     0.00000    30.33400     0.00000  0.0
    391    390    408    409   5     0.00000    30.33400     0.00000  0.0
    391    390    408    430   5     0.00000    30.33400     0.00000  0.0
    390    391    392    393   5     0.00000     3.94551     0.00000  0.0
    390    391    392    407   5     0.00000     3.94551     0.00000  0.0
    391    392    393    394   5     0.00000    30.33400     0.00000  0.0
    391    392    393    416   5     0.00000    30.33400     0.00000  0.0
    407    392    393    394   5     0.00000    30.33400     0.00000  0.0
    407    392    393    416   5     0.00000    30.33400     0.00000  0.0
    391    392    407    406   5     0.00000    30.33400     0.00000  0.0
    391    392    407    429   5     0.00000    30.33400     0.00000  0.0
    393    392    407    406   5     0.00000    30.33400     0.00000  0.0
    393    392    407    429   5     0.00000    30.33400     0.00000  0.0
    392    393    394    395   5     0.00000    30.33400     0.00000  0.0
    392    393    394    417   5     0.00000    30.33400     0.00000  0.0
    416    393    394    395   5     0.00000    30.33400     0.00000  0.0
    416    393    394    417   5     0.00000    30.33400     0.00000  0.0
    393    394    395    396   5     0.00000    30.33400     0.00000  0.0
    393    394    395    406   5     0.00000    30.33400     0.00000  0.0
    417    394    395    396   5     0.00000    30.33400     0.00000  0.0
    417    394    395    406   5     0.00000    30.33400     0.00000  0.0
    394    395    396    397   5     0.00000     0.34727     0.00000  0.0
    394    395    396    398   5     0.00000     0.34727     0.00000  0.0
    394    395    396    399   5     0.00000     0.35982     0.00000  0.0
    406    395    396    397   5     0.00000     0.34727     0.00000  0.0
    406    395    396    398   5     0.00000     0.34727     0.00000  0.0
    406    395    396    399   5     0.00000     0.35982     0.00000  0.0
    394    395    406    407   5     0.00000    30.33400     0.00000  0.0
    394    395    406    428   5     0.00000    30.33400     0.00000  0.0
    396    395    406    407   5     0.00000    30.33400     0.00000  0.0
    396    395    406    428   5     0.00000    30.33400     0.00000  0.0
    395    396    397    418   5     0.00000     0.00000     3.61498  0.0
    395    396    397    419   5     0.00000     0.00000     3.61498  0.0
    395    396    397    420   5     0.00000     0.00000     3.61498  0.0
    398    396    397    418   5     0.00000     0.00000     1.25520  0.0
    398    396    397    419   5     0.00000     0.00000     1.25520  0.0
    398    396    397    420   5     0.00000     0.00000     1.25520  0.0
    399    396    397    418   5     0.00000     0.00000     3.61498  0.0
    399    396    397    419   5     0.00000     0.00000     3.61498  0.0
    399    396    397    420   5     0.00000     0.00000     3.61498  0.0
    395    396    398    421   5     0.00000     0.00000     3.61498  0.0
    395    396    398    422   5     0.00000     0.00000     3.61498  0.0
    395    396    398    423   5     0.00000     0.00000     3.61498  0.0
    397    396    398    421   5     0.00000     0.00000     1.25520  0.0
    397    396    398    422   5     0.00000     0.00000     1.25520  0.0
    397    396    398    423   5     0.00000     0.00000     1.25520  0.0
    399    396    398    421   5     0.00000     0.00000     3.61498  0.0
    399    396    398    422   5     0.00000     0.00000     3.61498  0.0
    399    396    398    423   5     0.00000     0.00000     3.61498  0.0
    395    396    399    400   5     0.00000     0.35982     0.00000  0.0
    395    396    399    405   5     0.00000     0.35982     0.00000  0.0
    397    396    399    400   5     0.00000     0.34727     0.00000  0.0
    397    396    399    405   5     0.00000     0.34727     0.00000  0.0
    398    396    399    400   5     0.00000     0.34727     0.00000  0.0
    398    396    399    405   5     0.00000     0.34727     0.00000  0.0
    396    399    400    401   5     0.00000    30.33400     0.00000  0.0
    396    399    400    424   5     0.00000    30.33400     0.00000  0.0
    405    399    400    401   5     0.00000    30.33400     0.00000  0.0
    405    399    400    424   5     0.00000    30.33400     0.00000  0.0
    396    399    405    404   5     0.00000    30.33400     0.00000  0.0
    396    399    405    427   5     0.00000    30.33400     0.00000  0.0
    400    399    405    404   5     0.00000    30.33400     0.00000  0.0
    400    399    405    427   5     0.00000    30.33400     0.00000  0.0
    399    400    401    402   5     0.00000    30.33400     0.00000  0.0
    399    400    401    425   5     0.00000    30.33400     0.00000  0.0
    424    400    401    402   5     0.00000    30.33400     0.00000  0.0
    424    400    401    425   5     0.00000    30.33400     0.00000  0.0
    400    401    402    403   5     0.00000    30.33400     0.00000  0.0
    400    401    402    404   5     0.00000    30.33400     0.00000  0.0
    425    401    402    403   5     0.00000    30.33400     0.00000  0.0
    425    401    402    404   5     0.00000    30.33400     0.00000  0.0
    401    402    403    434   5     0.00000     3.94551     0.00000  0.0
    404    402    403    434   5     0.00000     3.94551     0.00000  0.0
    401    402    404    405   5     0.00000    30.33400     0.00000  0.0
    401    402    404    426   5     0.00000    30.33400     0.00000  0.0
    403    402    404    405   5     0.00000    30.33400     0.00000  0.0
    403    402    404    426   5     0.00000    30.33400     0.00000  0.0
    402    403    434    435   5     0.00000     3.94551     0.00000  0.0
    402    403    434    465   5     0.00000     3.94551     0.00000  0.0
    402    404    405    399   5     0.00000    30.33400     0.00000  0.0
    402    404    405    427   5     0.00000    30.33400     0.00000  0.0
    426    404    405    399   5     0.00000    30.33400     0.00000  0.0
    426    404    405    427   5     0.00000    30.33400     0.00000  0.0
    395    406    407    392   5     0.00000    30.33400     0.00000  0.0
    395    406    407    429   5     0.00000    30.33400     0.00000  0.0
    428    406    407    392   5     0.00000    30.33400     0.00000  0.0
    428    406    407    429   5     0.00000    30.33400     0.00000  0.0
    390    408    409    387   5     0.00000    30.33400     0.00000  0.0
    390    408    409    431   5     0.00000    30.33400     0.00000  0.0
    430    408    409    387   5     0.00000    30.33400     0.00000  0.0
    430    408    409    431   5     0.00000    30.33400     0.00000  0.0
    383    410    411    380   5     0.00000    30.33400     0.00000  0.0
    383    410    411    433   5     0.00000    30.33400     0.00000  0.0
    432    410    411    380   5     0.00000    30.33400     0.00000  0.0
    432    410    411    433   5     0.00000    30.33400     0.00000  0.0
    403    434    435    436   5     0.00000    30.33400     0.00000  0.0
    403    434    435    466   5     0.00000    30.33400     0.00000  0.0
    465    434    435    436   5     0.00000    30.33400     0.00000  0.0
    465    434    435    466   5     0.00000    30.33400     0.00000  0.0
    403    434    465    464   5     0.00000    30.33400     0.00000  0.0
    403    434    465    487   5     0.00000    30.33400     0.00000  0.0
    435    434    465    464   5     0.00000    30.33400     0.00000  0.0
    435    434    465    487   5     0.00000    30.33400     0.00000  0.0
    434    435    436    437   5     0.00000    30.33400     0.00000  0.0
    434    435    436    467   5     0.00000    30.33400     0.00000  0.0
    466    435    436    437   5     0.00000    30.33400     0.00000  0.0
    466    435    436    467   5     0.00000    30.33400     0.00000  0.0
    435    436    437    438   5     0.00000    30.33400     0.00000  0.0
    435    436    437    464   5     0.00000    30.33400     0.00000  0.0
    467    436    437    438   5     0.00000    30.33400     0.00000  0.0
    467    436    437    464   5     0.00000    30.33400     0.00000  0.0
    436    437    438    439   5     1.63176     1.00416     0.00000  0.0
    436    437    438    440   5     1.63176     1.00416     0.00000  0.0
    436    437    438    441   5     0.00000     3.76560     0.00000  0.0
    464    437    438    439   5     1.63176     1.00416     0.00000  0.0
    464    437    438    440   5     1.63176     1.00416     0.00000  0.0
    464    437    438    441   5     0.00000     3.76560     0.00000  0.0
    436    437    464    465   5     0.00000    30.33400     0.00000  0.0
    436    437    464    486   5     0.00000    30.33400     0.00000  0.0
    438    437    464    465   5     0.00000    30.33400     0.00000  0.0
    438    437    464    486   5     0.00000    30.33400     0.00000  0.0
    437    438    441    442   5     0.00000     3.76560     0.00000  0.0
    437    438    441    463   5     0.00000     3.76560     0.00000  0.0
    439    438    441    442   5     1.63176     1.00416     0.00000  0.0
    439    438    441    463   5     1.63176     1.00416     0.00000  0.0
    440    438    441    442   5     1.63176     1.00416     0.00000  0.0
    440    438    441    463   5     1.63176     1.00416     0.00000  0.0
    438    441    442    443   5     0.00000    30.33400     0.00000  0.0
    438    441    442    468   5     0.00000    30.33400     0.00000  0.0
    463    441    442    443   5     0.00000    30.33400     0.00000  0.0
    463    441    442    468   5     0.00000    30.33400     0.00000  0.0
    438    441    463    462   5     0.00000    30.33400     0.00000  0.0
    438    441    463    485   5     0.00000    30.33400     0.00000  0.0
    442    441    463    462   5     0.00000    30.33400     0.00000  0.0
    442    441    463    485   5     0.00000    30.33400     0.00000  0.0
    441    442    443    444   5     0.00000    30.33400     0.00000  0.0
    441    442    443    469   5     0.00000    30.33400     0.00000  0.0
    468    442    443    444   5     0.00000    30.33400     0.00000  0.0
    468    442    443    469   5     0.00000    30.33400     0.00000  0.0
    442    443    444    445   5     0.00000    30.33400     0.00000  0.0
    442    443    444    462   5     0.00000    30.33400     0.00000  0.0
    469    443    444    445   5     0.00000    30.33400     0.00000  0.0
    469    443    444    462   5     0.00000    30.33400     0.00000  0.0
    443    444    445    446   5     0.00000     3.94551     0.00000  0.0
    462    444    445    446   5     0.00000     3.94551     0.00000  0.0
    443    444    462    463   5     0.00000    30.33400     0.00000  0.0
    443    444    462    484   5     0.00000    30.33400     0.00000  0.0
    445    444    462    463   5     0.00000    30.33400     0.00000  0.0
    445    444    462    484   5     0.00000    30.33400     0.00000  0.0
    444    445    446    447   5     0.00000     3.94551     0.00000  0.0
    444    445    446    461   5     0.00000     3.94551     0.00000  0.0
    445    446    447    448   5     0.00000    30.33400     0.00000  0.0
    445    446    447    470   5     0.00000    30.33400     0.00000  0.0
    461    446    447    448   5     0.00000    30.33400     0.00000  0.0
    461    446    447    470   5     0.00000    30.33400     0.00000  0.0
    445    446    461    460   5     0.00000    30.33400     0.00000  0.0
    445    446    461    483   5     0.00000    30.33400     0.00000  0.0
    447    446    461    460   5     0.00000    30.33400     0.00000  0.0
    447    446    461    483   5     0.00000    30.33400     0.00000  0.0
    446    447    448    449   5     0.00000    30.33400     0.00000  0.0
    446    447    448    471   5     0.00000    30.33400     0.00000  0.0
    470    447    448    449   5     0.00000    30.33400     0.00000  0.0
    470    447    448    471   5     0.00000    30.33400     0.00000  0.0
    447    448    449    450   5     0.00000    30.33400     0.00000  0.0
    447    448    449    460   5     0.00000    30.33400     0.00000  0.0
    471    448    449    450   5     0.00000    30.33400     0.00000  0.0
    471    448    449    460   5     0.00000    30.33400     0.00000  0.0
    448    449    450    451   5     0.00000     0.34727     0.00000  0.0
    448    449    450    452   5     0.00000     0.34727     0.00000  0.0
    448    449    450    453   5     0.00000     0.35982     0.00000  0.0
    460    449    450    451   5     0.00000     0.34727     0.00000  0.0
    460    449    450    452   5     0.00000     0.34727     0.00000  0.0
    460    449    450    453   5     0.00000     0.35982     0.00000  0.0
    448    449    460    461   5     0.00000    30.33400     0.00000  0.0
    448    449    460    482   5     0.00000    30.33400     0.00000  0.0
    450    449    460    461   5     0.00000    30.33400     0.00000  0.0
    450    449    460    482   5     0.00000    30.33400     0.00000  0.0
    449    450    451    472   5     0.00000     0.00000     3.61498  0.0
    449    450    451    473   5     0.00000     0.00000     3.61498  0.0
    449    450    451    474   5     0.00000     0.00000     3.61498  0.0
    452    450    451    472   5     0.00000     0.00000     1.25520  0.0
    452    450    451    473   5     0.00000     0.00000     1.25520  0.0
    452    450    451    474   5     0.00000     0.00000     1.25520  0.0
    453    450    451    472   5     0.00000     0.00000     3.61498  0.0
    453    450    451    473   5     0.00000     0.00000     3.61498  0.0
    453    450    451    474   5     0.00000     0.00000     3.61498  0.0
    449    450    452    475   5     0.00000     0.00000     3.61498  0.0
    449    450    452    476   5     0.00000     0.00000     3.61498  0.0
    449    450    452    477   5     0.00000     0.00000     3.61498  0.0
    451    450    452    475   5     0.00000     0.00000     1.25520  0.0
    451    450    452    476   5     0.00000     0.00000     1.25520  0.0
    451    450    452    477   5     0.00000     0.00000     1.25520  0.0
    453    450    452    475   5     0.00000     0.00000     3.61498  0.0
    453    450    452    476   5     0.00000     0.00000     3.61498  0.0
    453    450    452    477   5     0.00000     0.00000     3.61498  0.0
    449    450    453    454   5     0.00000     0.35982     0.00000  0.0
    449    450    453    459   5     0.00000     0.35982     0.00000  0.0
    451    450    453    454   5     0.00000     0.34727     0.00000  0.0
    451    450    453    459   5     0.00000     0.34727     0.00000  0.0
    452    450    453    454   5     0.00000     0.34727     0.00000  0.0
    452    450    453    459   5     0.00000     0.34727     0.00000  0.0
    450    453    454    455   5     0.00000    30.33400     0.00000  0.0
    450    453    454    478   5     0.00000    30.33400     0.00000  0.0
    459    453    454    455   5     0.00000    30.33400     0.00000  0.0
    459    453    454    478   5     0.00000    30.33400     0.00000  0.0
    450    453    459    458   5     0.00000    30.33400     0.00000  0.0
    450    453    459    481   5     0.00000    30.33400     0.00000  0.0
    454    453    459    458   5     0.00000    30.33400     0.00000  0.0
    454    453    459    481   5     0.00000    30.33400     0.00000  0.0
    453    454    455    456   5     0.00000    30.33400     0.00000  0.0
    453    454    455    479   5     0.00000    30.33400     0.00000  0.0
    478    454    455    456   5     0.00000    30.33400     0.00000  0.0
    478    454    455    479   5     0.00000    30.33400     0.00000  0.0
    454    455    456    457   5     0.00000    30.33400     0.00000  0.0
    454    455    456    458   5     0.00000    30.33400     0.00000  0.0
    479    455    456    457   5     0.00000    30.33400     0.00000  0.0
    479    455    456    458   5     0.00000    30.33400     0.00000  0.0
    455    456    457    488   5     0.00000     3.94551     0.00000  0.0
    458    456    457    488   5     0.00000     3.94551     0.00000  0.0
    455    456    458    459   5     0.00000    30.33400     0.00000  0.0
    455    456    458    480   5     0.00000    30.33400     0.00000  0.0
    457    456    458    459   5     0.00000    30.33400     0.00000  0.0
    457    456    458    480   5     0.00000    30.33400     0.00000  0.0
    456    457    488    489   5     0.00000     3.94551     0.00000  0.0
    456    457    488    519   5     0.00000     3.94551     0.00000  0.0
    456    458    459    453   5     0.00000    30.33400     0.00000  0.0
    456    458    459    481   5     0.00000    30.33400     0.00000  0.0
    480    458    459    453   5     0.00000    30.33400     0.00000  0.0
    480    458    459    481   5     0.00000    30.33400     0.00000  0.0
    449    460    461    446   5     0.00000    30.33400     0.00000  0.0
    449    460    461    483   5     0.00000    30.33400     0.00000  0.0
    482    460    461    446   5     0.00000    30.33400     0.00000  0.0
    482    460    461    483   5     0.00000    30.33400     0.00000  0.0
    444    462    463    441   5     0.00000    30.33400     0.00000  0.0
    444    462    463    485   5     0.00000    30.33400     0.00000  0.0
    484    462    463    441   5     0.00000    30.33400     0.00000  0.0
    484    462    463    485   5     0.00000    30.33400     0.00000  0.0
    437    464    465    434   5     0.00000    30.33400     0.00000  0.0
    437    464    465    487   5     0.00000    30.33400     0.00000  0.0
    486    464    465    434   5     0.00000    30.33400     0.00000  0.0
    486    464    465    487   5     0.00000    30.33400     0.00000  0.0
    457    488    489    490   5     0.00000    30.33400     0.00000  0.0
    457    488    489    520   5     0.00000    30.33400     0.00000  0.0
    519    488    489    490   5     0.00000    30.33400     0.00000  0.0
    519    488    489    520   5     0.00000    30.33400     0.00000  0.0
    457    488    519    518   5     0.00000    30.33400     0.00000  0.0
    457    488    519    541   5     0.00000    30.33400     0.00000  0.0
    489    488    519    518   5     0.00000    30.33400     0.00000  0.0
    489    488    519    541   5     0.00000    30.33400     0.00000  0.0
    488    489    490    491   5     0.00000    30.33400     0.00000  0.0
    488    489    490    521   5     0.00000    30.33400     0.00000  0.0
    520    489    490    491   5     0.00000    30.33400     0.00000  0.0
    520    489    490    521   5     0.00000    30.33400     0.00000  0.0
    489    490    491    492   5     0.00000    30.33400     0.00000  0.0
    489    490    491    518   5     0.00000    30.33400     0.00000  0.0
    521    490    491    492   5     0.00000    30.33400     0.00000  0.0
    521    490    491    518   5     0.00000    30.33400     0.00000  0.0
    490    491    492    493   5     1.63176     1.00416     0.00000  0.0
    490    491    492    494   5     1.63176     1.00416     0.00000  0.0
    490    491    492    495   5     0.00000     3.76560     0.00000  0.0
    518    491    492    493   5     1.63176     1.00416     0.00000  0.0
    518    491    492    494   5     1.63176     1.00416     0.00000  0.0
    518    491    492    495   5     0.00000     3.76560     0.00000  0.0
    490    491    518    519   5     0.00000    30.33400     0.00000  0.0
    490    491    518    540   5     0.00000    30.33400     0.00000  0.0
    492    491    518    519   5     0.00000    30.33400     0.00000  0.0
    492    491    518    540   5     0.00000    30.33400     0.00000  0.0
    491    492    495    496   5     0.00000     3.76560     0.00000  0.0
    491    492    495    517   5     0.00000     3.76560     0.00000  0.0
    493    492    495    496   5     1.63176     1.00416     0.00000  0.0
    493    492    495    517   5     1.63176     1.00416     0.00000  0.0
    494    492    495    496   5     1.63176     1.00416     0.00000  0.0
    494    492    495    517   5     1.63176     1.00416     0.00000  0.0
    492    495    496    497   5     0.00000    30.33400     0.00000  0.0
    492    495    496    522   5     0.00000    30.33400     0.00000  0.0
    517    495    496    497   5     0.00000    30.33400     0.00000  0.0
    517    495    496    522   5     0.00000    30.33400     0.00000  0.0
    492    495    517    516   5     0.00000    30.33400     0.00000  0.0
    492    495    517    539   5     0.00000    30.33400     0.00000  0.0
    496    495    517    516   5     0.00000    30.33400     0.00000  0.0
    496    495    517    539   5     0.00000    30.33400     0.00000  0.0
    495    496    497    498   5     0.00000    30.33400     0.00000  0.0
    495    496    497    523   5     0.00000    30.33400     0.00000  0.0
    522    496    497    498   5     0.00000    30.33400     0.00000  0.0
    522    496    497    523   5     0.00000    30.33400     0.00000  0.0
    496    497    498    499   5     0.00000    30.33400     0.00000  0.0
    496    497    498    516   5     0.00000    30.33400     0.00000  0.0
    523    497    498    499   5     0.00000    30.33400     0.00000  0.0
    523    497    498    516   5     0.00000    30.33400     0.00000  0.0
    497    498    499    500   5     0.00000     3.94551     0.00000  0.0
    516    498    499    500   5     0.00000     3.94551     0.00000  0.0
    497    498    516    517   5     0.00000    30.33400     0.00000  0.0
    497    498    516    538   5     0.00000    30.33400     0.00000  0.0
    499    498    516    517   5     0.00000    30.33400     0.00000  0.0
    499    498    516    538   5     0.00000    30.33400     0.00000  0.0
    498    499    500    501   5     0.00000     3.94551     0.00000  0.0
    498    499    500    515   5     0.00000     3.94551     0.00000  0.0
    499    500    501    502   5     0.00000    30.33400     0.00000  0.0
    499    500    501    524   5     0.00000    30.33400     0.00000  0.0
    515    500    501    502   5     0.00000    30.33400     0.00000  0.0
    515    500    501    524   5     0.00000    30.33400     0.00000  0.0
    499    500    515    514   5     0.00000    30.33400     0.00000  0.0
    499    500    515    537   5     0.00000    30.33400     0.00000  0.0
    501    500    515    514   5     0.00000    30.33400     0.00000  0.0
    501    500    515    537   5     0.00000    30.33400     0.00000  0.0
    500    501    502    503   5     0.00000    30.33400     0.00000  0.0
    500    501    502    525   5     0.00000    30.33400     0.00000  0.0
    524    501    502    503   5     0.00000    30.33400     0.00000  0.0
    524    501    502    525   5     0.00000    30.33400     0.00000  0.0
    501    502    503    504   5     0.00000    30.33400     0.00000  0.0
    501    502    503    514   5     0.00000    30.33400     0.00000  0.0
    525    502    503    504   5     0.00000    30.33400     0.00000  0.0
    525    502    503    514   5     0.00000    30.33400     0.00000  0.0
    502    503    504    505   5     0.00000     0.34727     0.00000  0.0
    502    503    504    506   5     0.00000     0.34727     0.00000  0.0
    502    503    504    507   5     0.00000     0.35982     0.00000  0.0
    514    503    504    505   5     0.00000     0.34727     0.00000  0.0
    514    503    504    506   5     0.00000     0.34727     0.00000  0.0
    514    503    504    507   5     0.00000     0.35982     0.00000  0.0
    502    503    514    515   5     0.00000    30.33400     0.00000  0.0
    502    503    514    536   5     0.00000    30.33400     0.00000  0.0
    504    503    514    515   5     0.00000    30.33400     0.00000  0.0
    504    503    514    536   5     0.00000    30.33400     0.00000  0.0
    503    504    505    526   5     0.00000     0.00000     3.61498  0.0
    503    504    505    527   5     0.00000     0.00000     3.61498  0.0
    503    504    505    528   5     0.00000     0.00000     3.61498  0.0
    506    504    505    526   5     0.00000     0.00000     1.25520  0.0
    506    504    505    527   5     0.00000     0.00000     1.25520  0.0
    506    504    505    528   5     0.00000     0.00000     1.25520  0.0
    507    504    505    526   5     0.00000     0.00000     3.61498  0.0
    507    504    505    527   5     0.00000     0.00000     3.61498  0.0
    507    504    505    528   5     0.00000     0.00000     3.61498  0.0
    503    504    506    529   5     0.00000     0.00000     3.61498  0.0
    503    504    506    530   5     0.00000     0.00000     3.61498  0.0
    503    504    506    531   5     0.00000     0.00000     3.61498  0.0
    505    504    506    529   5     0.00000     0.00000     1.25520  0.0
    505    504    506    530   5     0.00000     0.00000     1.25520  0.0
    505    504    506    531   5     0.00000     0.00000     1.25520  0.0
    507    504    506    529   5     0.00000     0.00000     3.61498  0.0
    507    504    506    530   5     0.00000     0.00000     3.61498  0.0
    507    504    506    531   5     0.00000     0.00000     3.61498  0.0
    503    504    507    508   5     0.00000     0.35982     0.00000  0.0
    503    504    507    513   5     0.00000     0.35982     0.00000  0.0
    505    504    507    508   5     0.00000     0.34727     0.00000  0.0
    505    504    507    513   5     0.00000     0.34727     0.00000  0.0
    506    504    507    508   5     0.00000     0.34727     0.00000  0.0
    506    504    507    513   5     0.00000     0.34727     0.00000  0.0
    504    507    508    509   5     0.00000    30.33400     0.00000  0.0
    504    507    508    532   5     0.00000    30.33400     0.00000  0.0
    513    507    508    509   5     0.00000    30.33400     0.00000  0.0
    513    507    508    532   5     0.00000    30.33400     0.00000  0.0
    504    507    513    512   5     0.00000    30.33400     0.00000  0.0
    504    507    513    535   5     0.00000    30.33400     0.00000  0.0
    508    507    513    512   5     0.00000    30.33400     0.00000  0.0
    508    507    513    535   5     0.00000    30.33400     0.00000  0.0
    507    508    509    510   5     0.00000    30.33400     0.00000  0.0
    507    508    509    533   5     0.00000    30.33400     0.00000  0.0
    532    508    509    510   5     0.00000    30.33400     0.00000  0.0
    532    508    509    533   5     0.00000    30.33400     0.00000  0.0
    508    509    510    511   5     0.00000    30.33400     0.00000  0.0
    508    509    510    512   5     0.00000    30.33400     0.00000  0.0
    533    509    510    511   5     0.00000    30.33400     0.00000  0.0
    533    509    510    512   5     0.00000    30.33400     0.00000  0.0
    509    510    511    542   5     0.00000     3.94551     0.00000  0.0
    512    510    511    542   5     0.00000     3.94551     0.00000  0.0
    509    510    512    513   5     0.00000    30.33400     0.00000  0.0
    509    510    512    534   5     0.00000    30.33400     0.00000  0.0
    511    510    512    513   5     0.00000    30.33400     0.00000  0.0
    511    510    512    534   5     0.00000    30.33400     0.00000  0.0
    510    511    542    543   5     0.00000     3.94551     0.00000  0.0
    510    511    542    573   5     0.00000     3.94551     0.00000  0.0
    510    512    513    507   5     0.00000    30.33400     0.00000  0.0
    510    512    513    535   5     0.00000    30.33400     0.00000  0.0
    534    512    513    507   5     0.00000    30.33400     0.00000  0.0
    534    512    513    535   5     0.00000    30.33400     0.00000  0.0
    503    514    515    500   5     0.00000    30.33400     0.00000  0.0
    503    514    515    537   5     0.00000    30.33400     0.00000  0.0
    536    514    515    500   5     0.00000    30.33400     0.00000  0.0
    536    514    515    537   5     0.00000    30.33400     0.00000  0.0
    498    516    517    495   5     0.00000    30.33400     0.00000  0.0
    498    516    517    539   5     0.00000    30.33400     0.00000  0.0
    538    516    517    495   5     0.00000    30.33400     0.00000  0.0
    538    516    517    539   5     0.00000    30.33400     0.00000  0.0
    491    518    519    488   5     0.00000    30.33400     0.00000  0.0
    491    518    519    541   5     0.00000    30.33400     0.00000  0.0
    540    518    519    488   5     0.00000    30.33400     0.00000  0.0
    540    518    519    541   5     0.00000    30.33400     0.00000  0.0
    511    542    543    544   5     0.00000    30.33400     0.00000  0.0
    511    542    543    574   5     0.00000    30.33400     0.00000  0.0
    573    542    543    544   5     0.00000    30.33400     0.00000  0.0
    573    542    543    574   5     0.00000    30.33400     0.00000  0.0
    511    542    573    572   5     0.00000    30.33400     0.00000  0.0
    511    542    573    595   5     0.00000    30.33400     0.00000  0.0
    543    542    573    572   5     0.00000    30.33400     0.00000  0.0
    543    542    573    595   5     0.00000    30.33400     0.00000  0.0
    542    543    544    545   5     0.00000    30.33400     0.00000  0.0
    542    543    544    575   5     0.00000    30.33400     0.00000  0.0
    574    543    544    545   5     0.00000    30.33400     0.00000  0.0
    574    543    544    575   5     0.00000    30.33400     0.00000  0.0
    543    544    545    546   5     0.00000    30.33400     0.00000  0.0
    543    544    545    572   5     0.00000    30.33400     0.00000  0.0
    575    544    545    546   5     0.00000    30.33400     0.00000  0.0
    575    544    545    572   5     0.00000    30.33400     0.00000  0.0
    544    545    546    547   5     1.63176     1.00416     0.00000  0.0
    544    545    546    548   5     1.63176     1.00416     0.00000  0.0
    544    545    546    549   5     0.00000     3.76560     0.00000  0.0
    572    545    546    547   5     1.63176     1.00416     0.00000  0.0
    572    545    546    548   5     1.63176     1.00416     0.00000  0.0
    572    545    546    549   5     0.00000     3.76560     0.00000  0.0
    544    545    572    573   5     0.00000    30.33400     0.00000  0.0
    544    545    572    594   5     0.00000    30.33400     0.00000  0.0
    546    545    572    573   5     0.00000    30.33400     0.00000  0.0
    546    545    572    594   5     0.00000    30.33400     0.00000  0.0
    545    546    549    550   5     0.00000     3.76560     0.00000  0.0
    545    546    549    571   5     0.00000     3.76560     0.00000  0.0
    547    546    549    550   5     1.63176     1.00416     0.00000  0.0
    547    546    549    571   5     1.63176     1.00416     0.00000  0.0
    548    546    549    550   5     1.63176     1.00416     0.00000  0.0
    548    546    549    571   5     1.63176     1.00416     0.00000  0.0
    546    549    550    551   5     0.00000    30.33400     0.00000  0.0
    546    549    550    576   5     0.00000    30.33400     0.00000  0.0
    571    549    550    551   5     0.00000    30.33400     0.00000  0.0
    571    549    550    576   5     0.00000    30.33400     0.00000  0.0
    546    549    571    570   5     0.00000    30.33400     0.00000  0.0
    546    549    571    593   5     0.00000    30.33400     0.00000  0.0
    550    549    571    570   5     0.00000    30.33400     0.00000  0.0
    550    549    571    593   5     0.00000    30.33400     0.00000  0.0
    549    550    551    552   5     0.00000    30.33400     0.00000  0.0
    549    550    551    577   5     0.00000    30.33400     0.00000  0.0
    576    550    551    552   5     0.00000    30.33400     0.00000  0.0
    576    550    551    577   5     0.00000    30.33400     0.00000  0.0
    550    551    552    553   5     0.00000    30.33400     0.00000  0.0
    550    551    552    570   5     0.00000    30.33400     0.00000  0.0
    577    551    552    553   5     0.00000    30.33400     0.00000  0.0
    577    551    552    570   5     0.00000    30.33400     0.00000  0.0
    551    552    553    554   5     0.00000     3.94551     0.00000  0.0
    570    552    553    554   5     0.00000     3.94551     0.00000  0.0
    551    552    570    571   5     0.00000    30.33400     0.00000  0.0
    551    552    570    592   5     0.00000    30.33400     0.00000  0.0
    553    552    570    571   5     0.00000    30.33400     0.00000  0.0
    553    552    570    592   5     0.00000    30.33400     0.00000  0.0
    552    553    554    555   5     0.00000     3.94551     0.00000  0.0
    552    553    554    569   5     0.00000     3.94551     0.00000  0.0
    553    554    555    556   5     0.00000    30.33400     0.00000  0.0
    553    554    555    578   5     0.00000    30.33400     0.00000  0.0
    569    554    555    556   5     0.00000    30.33400     0.00000  0.0
    569    554    555    578   5     0.00000    30.33400     0.00000  0.0
    553    554    569    568   5     0.00000    30.33400     0.00000  0.0
    553    554    569    591   5     0.00000    30.33400     0.00000  0.0
    555    554    569    568   5     0.00000    30.33400     0.00000  0.0
    555    554    569    591   5     0.00000    30.33400     0.00000  0.0
    554    555    556    557   5     0.00000    30.33400     0.00000  0.0
    554    555    556    579   5     0.00000    30.33400     0.00000  0.0
    578    555    556    557   5     0.00000    30.33400     0.00000  0.0
    578    555    556    579   5     0.00000    30.33400     0.00000  0.0
    555    556    557    558   5     0.00000    30.33400     0.00000  0.0
    555    556    557    568   5     0.00000    30.33400     0.00000  0.0
    579    556    557    558   5     0.00000    30.33400     0.00000  0.0
    579    556    557    568   5     0.00000    30.33400     0.00000  0.0
    556    557    558    559   5     0.00000     0.34727     0.00000  0.0
    556    557    558    560   5     0.00000     0.34727     0.00000  0.0
    556    557    558    561   5     0.00000     0.35982     0.00000  0.0
    568    557    558    559   5     0.00000     0.34727     0.00000  0.0
    568    557    558    560   5     0.00000     0.34727     0.00000  0.0
    568    557    558    561   5     0.00000     0.35982     0.00000  0.0
    556    557    568    569   5     0.00000    30.33400     0.00000  0.0
    556    557    568    590   5     0.00000    30.33400     0.00000  0.0
    558    557    568    569   5     0.00000    30.33400     0.00000  0.0
    558    557    568    590   5     0.00000    30.33400     0.00000  0.0
    557    558    559    580   5     0.00000     0.00000     3.61498  0.0
    557    558    559    581   5     0.00000     0.00000     3.61498  0.0
    557    558    559    582   5     0.00000     0.00000     3.61498  0.0
    560    558    559    580   5     0.00000     0.00000     1.25520  0.0
    560    558    559    581   5     0.00000     0.00000     1.25520  0.0
    560    558    559    582   5     0.00000     0.00000     1.25520  0.0
    561    558    559    580   5     0.00000     0.00000     3.61498  0.0
    561    558    559    581   5     0.00000     0.00000     3.61498  0.0
    561    558    559    582   5     0.00000     0.00000     3.61498  0.0
    557    558    560    583   5     0.00000     0.00000     3.61498  0.0
    557    558    560    584   5     0.00000     0.00000     3.61498  0.0
    557    558    560    585   5     0.00000     0.00000     3.61498  0.0
    559    558    560    583   5     0.00000     0.00000     1.25520  0.0
    559    558    560    584   5     0.00000     0.00000     1.25520  0.0
    559    558    560    585   5     0.00000     0.00000     1.25520  0.0
    561    558    560    583   5     0.00000     0.00000     3.61498  0.0
    561    558    560    584   5     0.00000     0.00000     3.61498  0.0
    561    558    560    585   5     0.00000     0.00000     3.61498  0.0
    557    558    561    562   5     0.00000     0.35982     0.00000  0.0
    557    558    561    567   5     0.00000     0.35982     0.00000  0.0
    559    558    561    562   5     0.00000     0.34727     0.00000  0.0
    559    558    561    567   5     0.00000     0.34727     0.00000  0.0
    560    558    561    562   5     0.00000     0.34727     0.00000  0.0
    560    558    561    567   5     0.00000     0.34727     0.00000  0.0
    558    561    562    563   5     0.00000    30.33400     0.00000  0.0
    558    561    562    586   5     0.00000    30.33400     0.00000  0.0
    567    561    562    563   5     0.00000    30.33400     0.00000  0.0
    567    561    562    586   5     0.00000    30.33400     0.00000  0.0
    558    561    567    566   5     0.00000    30.33400     0.00000  0.0
    558    561    567    589   5     0.00000    30.33400     0.00000  0.0
    562    561    567    566   5     0.00000    30.33400     0.00000  0.0
    562    561    567    589   5     0.00000    30.33400     0.00000  0.0
    561    562    563    564   5     0.00000    30.33400     0.00000  0.0
    561    562    563    587   5     0.00000    30.33400     0.00000  0.0
    586    562    563    564   5     0.00000    30.33400     0.00000  0.0
    586    562    563    587   5     0.00000    30.33400     0.00000  0.0
    562    563    564    565   5     0.00000    30.33400     0.00000  0.0
    562    563    564    566   5     0.00000    30.33400     0.00000  0.0
    587    563    564    565   5     0.00000    30.33400     0.00000  0.0
    587    563    564    566   5     0.00000    30.33400     0.00000  0.0
    563    564    565    596   5     0.00000     3.94551     0.00000  0.0
    566    564    565    596   5     0.00000     3.94551     0.00000  0.0
    563    564    566    567   5     0.00000    30.33400     0.00000  0.0
    563    564    566    588   5     0.00000    30.33400     0.00000  0.0
    565    564    566    567   5     0.00000    30.33400     0.00000  0.0
    565    564    566    588   5     0.00000    30.33400     0.00000  0.0
    564    565    596    597   5     0.00000     3.94551     0.00000  0.0
    564    565    596    627   5     0.00000     3.94551     0.00000  0.0
    564    566    567    561   5     0.00000    30.33400     0.00000  0.0
    564    566    567    589   5     0.00000    30.33400     0.00000  0.0
    588    566    567    561   5     0.00000    30.33400     0.00000  0.0
    588    566    567    589   5     0.00000    30.33400     0.00000  0.0
    557    568    569    554   5     0.00000    30.33400     0.00000  0.0
    557    568    569    591   5     0.00000    30.33400     0.00000  0.0
    590    568    569    554   5     0.00000    30.33400     0.00000  0.0
    590    568    569    591   5     0.00000    30.33400     0.00000  0.0
    552    570    571    549   5     0.00000    30.33400     0.00000  0.0
    552    570    571    593   5     0.00000    30.33400     0.00000  0.0
    592    570    571    549   5     0.00000    30.33400     0.00000  0.0
    592    570    571    593   5     0.00000    30.33400     0.00000  0.0
    545    572    573    542   5     0.00000    30.33400     0.00000  0.0
    545    572    573    595   5     0.00000    30.33400     0.00000  0.0
    594    572    573    542   5     0.00000    30.33400     0.00000  0.0
    594    572    573    595   5     0.00000    30.33400     0.00000  0.0
    565    596    597    598   5     0.00000    30.33400     0.00000  0.0
    565    596    597    628   5     0.00000    30.33400     0.00000  0.0
    627    596    597    598   5     0.00000    30.33400     0.00000  0.0
    627    596    597    628   5     0.00000    30.33400     0.00000  0.0
    565    596    627    626   5     0.00000    30.33400     0.00000  0.0
    565    596    627    649   5     0.00000    30.33400     0.00000  0.0
    597    596    627    626   5     0.00000    30.33400     0.00000  0.0
    597    596    627    649   5     0.00000    30.33400     0.00000  0.0
    596    597    598    599   5     0.00000    30.33400     0.00000  0.0
    596    597    598    629   5     0.00000    30.33400     0.00000  0.0
    628    597    598    599   5     0.00000    30.33400     0.00000  0.0
    628    597    598    629   5     0.00000    30.33400     0.00000  0.0
    597    598    599    600   5     0.00000    30.33400     0.00000  0.0
    597    598    599    626   5     0.00000    30.33400     0.00000  0.0
    629    598    599    600   5     0.00000    30.33400     0.00000  0.0
    629    598    599    626   5     0.00000    30.33400     0.00000  0.0
    598    599    600    601   5     1.63176     1.00416     0.00000  0.0
    598    599    600    602   5     1.63176     1.00416     0.00000  0.0
    598    599    600    603   5     0.00000     3.76560     0.00000  0.0
    626    599    600    601   5     1.63176     1.00416     0.00000  0.0
    626    599    600    602   5     1.63176     1.00416     0.00000  0.0
    626    599    600    603   5     0.00000     3.76560     0.00000  0.0
    598    599    626    627   5     0.00000    30.33400     0.00000  0.0
    598    599    626    648   5     0.00000    30.33400     0.00000  0.0
    600    599    626    627   5     0.00000    30.33400     0.00000  0.0
    600    599    626    648   5     0.00000    30.33400     0.00000  0.0
    599    600    603    604   5     0.00000     3.76560     0.00000  0.0
    599    600    603    625   5     0.00000     3.76560     0.00000  0.0
    601    600    603    604   5     1.63176     1.00416     0.00000  0.0
    601    600    603    625   5     1.63176     1.00416     0.00000  0.0
    602    600    603    604   5     1.63176     1.00416     0.00000  0.0
    602    600    603    625   5     1.63176     1.00416     0.00000  0.0
    600    603    604    605   5     0.00000    30.33400     0.00000  0.0
    600    603    604    630   5     0.00000    30.33400     0.00000  0.0
    625    603    604    605   5     0.00000    30.33400     0.00000  0.0
    625    603    604    630   5     0.00000    30.33400     0.00000  0.0
    600    603    625    624   5     0.00000    30.33400     0.00000  0.0
    600    603    625    647   5     0.00000    30.33400     0.00000  0.0
    604    603    625    624   5     0.00000    30.33400     0.00000  0.0
    604    603    625    647   5     0.00000    30.33400     0.00000  0.0
    603    604    605    606   5     0.00000    30.33400     0.00000  0.0
    603    604    605    631   5     0.00000    30.33400     0.00000  0.0
    630    604    605    606   5     0.00000    30.33400     0.00000  0.0
    630    604    605    631   5     0.00000    30.33400     0.00000  0.0
    604    605    606    607   5     0.00000    30.33400     0.00000  0.0
    604    605    606    624   5     0.00000    30.33400     0.00000  0.0
    631    605    606    607   5     0.00000    30.33400     0.00000  0.0
    631    605    606    624   5     0.00000    30.33400     0.00000  0.0
    605    606    607    608   5     0.00000     3.94551     0.00000  0.0
    624    606    607    608   5     0.00000     3.94551     0.00000  0.0
    605    606    624    625   5     0.00000    30.33400     0.00000  0.0
    605    606    624    646   5     0.00000    30.33400     0.00000  0.0
    607    606    624    625   5     0.00000    30.33400     0.00000  0.0
    607    606    624    646   5     0.00000    30.33400     0.00000  0.0
    606    607    608    609   5     0.00000     3.94551     0.00000  0.0
    606    607    608    623   5     0.00000     3.94551     0.00000  0.0
    607    608    609    610   5     0.00000    30.33400     0.00000  0.0
    607    608    609    632   5     0.00000    30.33400     0.00000  0.0
    623    608    609    610   5     0.00000    30.33400     0.00000  0.0
    623    608    609    632   5     0.00000    30.33400     0.00000  0.0
    607    608    623    622   5     0.00000    30.33400     0.00000  0.0
    607    608    623    645   5     0.00000    30.33400     0.00000  0.0
    609    608    623    622   5     0.00000    30.33400     0.00000  0.0
    609    608    623    645   5     0.00000    30.33400     0.00000  0.0
    608    609    610    611   5     0.00000    30.33400     0.00000  0.0
    608    609    610    633   5     0.00000    30.33400     0.00000  0.0
    632    609    610    611   5     0.00000    30.33400     0.00000  0.0
    632    609    610    633   5     0.00000    30.33400     0.00000  0.0
    609    610    611    612   5     0.00000    30.33400     0.00000  0.0
    609    610    611    622   5     0.00000    30.33400     0.00000  0.0
    633    610    611    612   5     0.00000    30.33400     0.00000  0.0
    633    610    611    622   5     0.00000    30.33400     0.00000  0.0
    610    611    612    613   5     0.00000     0.34727     0.00000  0.0
    610    611    612    614   5     0.00000     0.34727     0.00000  0.0
    610    611    612    615   5     0.00000     0.35982     0.00000  0.0
    622    611    612    613   5     0.00000     0.34727     0.00000  0.0
    622    611    612    614   5     0.00000     0.34727     0.00000  0.0
    622    611    612    615   5     0.00000     0.35982     0.00000  0.0
    610    611    622    623   5     0.00000    30.33400     0.00000  0.0
    610    611    622    644   5     0.00000    30.33400     0.00000  0.0
    612    611    622    623   5     0.00000    30.33400     0.00000  0.0
    612    611    622    644   5     0.00000    30.33400     0.00000  0.0
    611    612    613    634   5     0.00000     0.00000     3.61498  0.0
    611    612    613    635   5     0.00000     0.00000     3.61498  0.0
    611    612    613    636   5     0.00000     0.00000     3.61498  0.0
    614    612    613    634   5     0.00000     0.00000     1.25520  0.0
    614    612    613    635   5     0.00000     0.00000     1.25520  0.0
    614    612    613    636   5     0.00000     0.00000     1.25520  0.0
    615    612    613    634   5     0.00000     0.00000     3.61498  0.0
    615    612    613    635   5     0.00000     0.00000     3.61498  0.0
    615    612    613    636   5     0.00000     0.00000     3.61498  0.0
    611    612    614    637   5     0.00000     0.00000     3.61498  0.0
    611    612    614    638   5     0.00000     0.00000     3.61498  0.0
    611    612    614    639   5     0.00000     0.00000     3.61498  0.0
    613    612    614    637   5     0.00000     0.00000     1.25520  0.0
    613    612    614    638   5     0.00000     0.00000     1.25520  0.0
    613    612    614    639   5     0.00000     0.00000     1.25520  0.0
    615    612    614    637   5     0.00000     0.00000     3.61498  0.0
    615    612    614    638   5     0.00000     0.00000     3.61498  0.0
    615    612    614    639   5     0.00000     0.00000     3.61498  0.0
    611    612    615    616   5     0.00000     0.35982     0.00000  0.0
    611    612    615    621   5     0.00000     0.35982     0.00000  0.0
    613    612    615    616   5     0.00000     0.34727     0.00000  0.0
    613    612    615    621   5     0.00000     0.34727     0.00000  0.0
    614    612    615    616   5     0.00000     0.34727     0.00000  0.0
    614    612    615    621   5     0.00000     0.34727     0.00000  0.0
    612    615    616    617   5     0.00000    30.33400     0.00000  0.0
    612    615    616    640   5     0.00000    30.33400     0.00000  0.0
    621    615    616    617   5     0.00000    30.33400     0.00000  0.0
    621    615    616    640   5     0.00000    30.33400     0.00000  0.0
    612    615    621    620   5     0.00000    30.33400     0.00000  0.0
    612    615    621    643   5     0.00000    30.33400     0.00000  0.0
    616    615    621    620   5     0.00000    30.33400     0.00000  0.0
    616    615    621    643   5     0.00000    30.33400     0.00000  0.0
    615    616    617    618   5     0.00000    30.33400     0.00000  0.0
    615    616    617    641   5     0.00000    30.33400     0.00000  0.0
    640    616    617    618   5     0.00000    30.33400     0.00000  0.0
    640    616    617    641   5     0.00000    30.33400     0.00000  0.0
    616    617    618    619   5     0.00000    30.33400     0.00000  0.0
    616    617    618    620   5     0.00000    30.33400     0.00000  0.0
    641    617    618    619   5     0.00000    30.33400     0.00000  0.0
    641    617    618    620   5     0.00000    30.33400     0.00000  0.0
    617    618    619    650   5     0.00000     3.94551     0.00000  0.0
    620    618    619    650   5     0.00000     3.94551     0.00000  0.0
    617    618    620    621   5     0.00000    30.33400     0.00000  0.0
    617    618    620    642   5     0.00000    30.33400     0.00000  0.0
    619    618    620    621   5     0.00000    30.33400     0.00000  0.0
    619    618    620    642   5     0.00000    30.33400     0.00000  0.0
    618    619    650    651   5     0.00000     3.94551     0.00000  0.0
    618    619    650    681   5     0.00000     3.94551     0.00000  0.0
    618    620    621    615   5     0.00000    30.33400     0.00000  0.0
    618    620    621    643   5     0.00000    30.33400     0.00000  0.0
    642    620    621    615   5     0.00000    30.33400     0.00000  0.0
    642    620    621    643   5     0.00000    30.33400     0.00000  0.0
    611    622    623    608   5     0.00000    30.33400     0.00000  0.0
    611    622    623    645   5     0.00000    30.33400     0.00000  0.0
    644    622    623    608   5     0.00000    30.33400     0.00000  0.0
    644    622    623    645   5     0.00000    30.33400     0.00000  0.0
    606    624    625    603   5     0.00000    30.33400     0.00000  0.0
    606    624    625    647   5     0.00000    30.33400     0.00000  0.0
    646    624    625    603   5     0.00000    30.33400     0.00000  0.0
    646    624    625    647   5     0.00000    30.33400     0.00000  0.0
    599    626    627    596   5     0.00000    30.33400     0.00000  0.0
    599    626    627    649   5     0.00000    30.33400     0.00000  0.0
    648    626    627    596   5     0.00000    30.33400     0.00000  0.0
    648    626    627    649   5     0.00000    30.33400     0.00000  0.0
    619    650    651    652   5     0.00000    30.33400     0.00000  0.0
    619    650    651    682   5     0.00000    30.33400     0.00000  0.0
    681    650    651    652   5     0.00000    30.33400     0.00000  0.0
    681    650    651    682   5     0.00000    30.33400     0.00000  0.0
    619    650    681    680   5     0.00000    30.33400     0.00000  0.0
    619    650    681    703   5     0.00000    30.33400     0.00000  0.0
    651    650    681    680   5     0.00000    30.33400     0.00000  0.0
    651    650    681    703   5     0.00000    30.33400     0.00000  0.0
    650    651    652    653   5     0.00000    30.33400     0.00000  0.0
    650    651    652    683   5     0.00000    30.33400     0.00000  0.0
    682    651    652    653   5     0.00000    30.33400     0.00000  0.0
    682    651    652    683   5     0.00000    30.33400     0.00000  0.0
    651    652    653    654   5     0.00000    30.33400     0.00000  0.0
    651    652    653    680   5     0.00000    30.33400     0.00000  0.0
    683    652    653    654   5     0.00000    30.33400     0.00000  0.0
    683    652    653    680   5     0.00000    30.33400     0.00000  0.0
    652    653    654    655   5     1.63176     1.00416     0.00000  0.0
    652    653    654    656   5     1.63176     1.00416     0.00000  0.0
    652    653    654    657   5     0.00000     3.76560     0.00000  0.0
    680    653    654    655   5     1.63176     1.00416     0.00000  0.0
    680    653    654    656   5     1.63176     1.00416     0.00000  0.0
    680    653    654    657   5     0.00000     3.76560     0.00000  0.0
    652    653    680    681   5     0.00000    30.33400     0.00000  0.0
    652    653    680    702   5     0.00000    30.33400     0.00000  0.0
    654    653    680    681   5     0.00000    30.33400     0.00000  0.0
    654    653    680    702   5     0.00000    30.33400     0.00000  0.0
    653    654    657    658   5     0.00000     3.76560     0.00000  0.0
    653    654    657    679   5     0.00000     3.76560     0.00000  0.0
    655    654    657    658   5     1.63176     1.00416     0.00000  0.0
    655    654    657    679   5     1.63176     1.00416     0.00000  0.0
    656    654    657    658   5     1.63176     1.00416     0.00000  0.0
    656    654    657    679   5     1.63176     1.00416     0.00000  0.0
    654    657    658    659   5     0.00000    30.33400     0.00000  0.0
    654    657    658    684   5     0.00000    30.33400     0.00000  0.0
    679    657    658    659   5     0.00000    30.33400     0.00000  0.0
    679    657    658    684   5     0.00000    30.33400     0.00000  0.0
    654    657    679    678   5     0.00000    30.33400     0.00000  0.0
    654    657    679    701   5     0.00000    30.33400     0.00000  0.0
    658    657    679    678   5     0.00000    30.33400     0.00000  0.0
    658    657    679    701   5     0.00000    30.33400     0.00000  0.0
    657    658    659    660   5     0.00000    30.33400     0.00000  0.0
    657    658    659    685   5     0.00000    30.33400     0.00000  0.0
    684    658    659    660   5     0.00000    30.33400     0.00000  0.0
    684    658    659    685   5     0.00000    30.33400     0.00000  0.0
    658    659    660    661   5     0.00000    30.33400     0.00000  0.0
    658    659    660    678   5     0.00000    30.33400     0.00000  0.0
    685    659    660    661   5     0.00000    30.33400     0.00000  0.0
    685    659    660    678   5     0.00000    30.33400     0.00000  0.0
    659    660    661    662   5     0.00000     3.94551     0.00000  0.0
    678    660    661    662   5     0.00000     3.94551     0.00000  0.0
    659    660    678    679   5     0.00000    30.33400     0.00000  0.0
    659    660    678    700   5     0.00000    30.33400     0.00000  0.0
    661    660    678    679   5     0.00000    30.33400     0.00000  0.0
    661    660    678    700   5     0.00000    30.33400     0.00000  0.0
    660    661    662    663   5     0.00000     3.94551     0.00000  0.0
    660    661    662    677   5     0.00000     3.94551     0.00000  0.0
    661    662    663    664   5     0.00000    30.33400     0.00000  0.0
    661    662    663    686   5     0.00000    30.33400     0.00000  0.0
    677    662    663    664   5     0.00000    30.33400     0.00000  0.0
    677    662    663    686   5     0.00000    30.33400     0.00000  0.0
    661    662    677    676   5     0.00000    30.33400     0.00000  0.0
    661    662    677    699   5     0.00000    30.33400     0.00000  0.0
    663    662    677    676   5     0.00000    30.33400     0.00000  0.0
    663    662    677    699   5     0.00000    30.33400     0.00000  0.0
    662    663    664    665   5     0.00000    30.33400     0.00000  0.0
    662    663    664    687   5     0.00000    30.33400     0.00000  0.0
    686    663    664    665   5     0.00000    30.33400     0.00000  0.0
    686    663    664    687   5     0.00000    30.33400     0.00000  0.0
    663    664    665    666   5     0.00000    30.33400     0.00000  0.0
    663    664    665    676   5     0.00000    30.33400     0.00000  0.0
    687    664    665    666   5     0.00000    30.33400     0.00000  0.0
    687    664    665    676   5     0.00000    30.33400     0.00000  0.0
    664    665    666    667   5     0.00000     0.34727     0.00000  0.0
    664    665    666    668   5     0.00000     0.34727     0.00000  0.0
    664    665    666    669   5     0.00000     0.35982     0.00000  0.0
    676    665    666    667   5     0.00000     0.34727     0.00000  0.0
    676    665    666    668   5     0.00000     0.34727     0.00000  0.0
    676    665    666    669   5     0.00000     0.35982     0.00000  0.0
    664    665    676    677   5     0.00000    30.33400     0.00000  0.0
    664    665    676    698   5     0.00000    30.33400     0.00000  0.0
    666    665    676    677   5     0.00000    30.33400     0.00000  0.0
    666    665    676    698   5     0.00000    30.33400     0.00000  0.0
    665    666    667    688   5     0.00000     0.00000     3.61498  0.0
    665    666    667    689   5     0.00000     0.00000     3.61498  0.0
    665    666    667    690   5     0.00000     0.00000     3.61498  0.0
    668    666    667    688   5     0.00000     0.00000     1.25520  0.0
    668    666    667    689   5     0.00000     0.00000     1.25520  0.0
    668    666    667    690   5     0.00000     0.00000     1.25520  0.0
    669    666    667    688   5     0.00000     0.00000     3.61498  0.0
    669    666    667    689   5     0.00000     0.00000     3.61498  0.0
    669    666    667    690   5     0.00000     0.00000     3.61498  0.0
    665    666    668    691   5     0.00000     0.00000     3.61498  0.0
    665    666    668    692   5     0.00000     0.00000     3.61498  0.0
    665    666    668    693   5     0.00000     0.00000     3.61498  0.0
    667    666    668    691   5     0.00000     0.00000     1.25520  0.0
    667    666    668    692   5     0.00000     0.00000     1.25520  0.0
    667    666    668    693   5     0.00000     0.00000     1.25520  0.0
    669    666    668    691   5     0.00000     0.00000     3.61498  0.0
    669    666    668    692   5     0.00000     0.00000     3.61498  0.0
    669    666    668    693   5     0.00000     0.00000     3.61498  0.0
    665    666    669    670   5     0.00000     0.35982     0.00000  0.0
    665    666    669    675   5     0.00000     0.35982     0.00000  0.0
    667    666    669    670   5     0.00000     0.34727     0.00000  0.0
    667    666    669    675   5     0.00000     0.34727     0.00000  0.0
    668    666    669    670   5     0.00000     0.34727     0.00000  0.0
    668    666    669    675   5     0.00000     0.34727     0.00000  0.0
    666    669    670    671   5     0.00000    30.33400     0.00000  0.0
    666    669    670    694   5     0.00000    30.33400     0.00000  0.0
    675    669    670    671   5     0.00000    30.33400     0.00000  0.0
    675    669    670    694   5     0.00000    30.33400     0.00000  0.0
    666    669    675    674   5     0.00000    30.33400     0.00000  0.0
    666    669    675    697   5     0.00000    30.33400     0.00000  0.0
    670    669    675    674   5     0.00000    30.33400     0.00000  0.0
    670    669    675    697   5     0.00000    30.33400     0.00000  0.0
    669    670    671    672   5     0.00000    30.33400     0.00000  0.0
    669    670    671    695   5     0.00000    30.33400     0.00000  0.0
    694    670    671    672   5     0.00000    30.33400     0.00000  0.0
    694    670    671    695   5     0.00000    30.33400     0.00000  0.0
    670    671    672    673   5     0.00000    30.33400     0.00000  0.0
    670    671    672    674   5     0.00000    30.33400     0.00000  0.0
    695    671    672    673   5     0.00000    30.33400     0.00000  0.0
    695    671    672    674   5     0.00000    30.33400     0.00000  0.0
    671    672    673    704   5     0.00000     3.94551     0.00000  0.0
    674    672    673    704   5     0.00000     3.94551     0.00000  0.0
    671    672    674    675   5     0.00000    30.33400     0.00000  0.0
    671    672    674    696   5     0.00000    30.33400     0.00000  0.0
    673    672    674    675   5     0.00000    30.33400     0.00000  0.0
    673    672    674    696   5     0.00000    30.33400     0.00000  0.0
    672    673    704    705   5     0.00000     3.94551     0.00000  0.0
    672    673    704    735   5     0.00000     3.94551     0.00000  0.0
    672    674    675    669   5     0.00000    30.33400     0.00000  0.0
    672    674    675    697   5     0.00000    30.33400     0.00000  0.0
    696    674    675    669   5     0.00000    30.33400     0.00000  0.0
    696    674    675    697   5     0.00000    30.33400     0.00000  0.0
    665    676    677    662   5     0.00000    30.33400     0.00000  0.0
    665    676    677    699   5     0.00000    30.33400     0.00000  0.0
    698    676    677    662   5     0.00000    30.33400     0.00000  0.0
    698    676    677    699   5     0.00000    30.33400     0.00000  0.0
    660    678    679    657   5     0.00000    30.33400     0.00000  0.0
    660    678    679    701   5     0.00000    30.33400     0.00000  0.0
    700    678    679    657   5     0.00000    30.33400     0.00000  0.0
    700    678    679    701   5     0.00000    30.33400     0.00000  0.0
    653    680    681    650   5     0.00000    30.33400     0.00000  0.0
    653    680    681    703   5     0.00000    30.33400     0.00000  0.0
    702    680    681    650   5     0.00000    30.33400     0.00000  0.0
    702    680    681    703   5     0.00000    30.33400     0.00000  0.0
    673    704    705    706   5     0.00000    30.33400     0.00000  0.0
    673    704    705    736   5     0.00000    30.33400     0.00000  0.0
    735    704    705    706   5     0.00000    30.33400     0.00000  0.0
    735    704    705    736   5     0.00000    30.33400     0.00000  0.0
    673    704    735    734   5     0.00000    30.33400     0.00000  0.0
    673    704    735    757   5     0.00000    30.33400     0.00000  0.0
    705    704    735    734   5     0.00000    30.33400     0.00000  0.0
    705    704    735    757   5     0.00000    30.33400     0.00000  0.0
    704    705    706    707   5     0.00000    30.33400     0.00000  0.0
    704    705    706    737   5     0.00000    30.33400     0.00000  0.0
    736    705    706    707   5     0.00000    30.33400     0.00000  0.0
    736    705    706    737   5     0.00000    30.33400     0.00000  0.0
    705    706    707    708   5     0.00000    30.33400     0.00000  0.0
    705    706    707    734   5     0.00000    30.33400     0.00000  0.0
    737    706    707    708   5     0.00000    30.33400     0.00000  0.0
    737    706    707    734   5     0.00000    30.33400     0.00000  0.0
    706    707    708    709   5     1.63176     1.00416     0.00000  0.0
    706    707    708    710   5     1.63176     1.00416     0.00000  0.0
    706    707    708    711   5     0.00000     3.76560     0.00000  0.0
    734    707    708    709   5     1.63176     1.00416     0.00000  0.0
    734    707    708    710   5     1.63176     1.00416     0.00000  0.0
    734    707    708    711   5     0.00000     3.76560     0.00000  0.0
    706    707    734    735   5     0.00000    30.33400     0.00000  0.0
    706    707    734    756   5     0.00000    30.33400     0.00000  0.0
    708    707    734    735   5     0.00000    30.33400     0.00000  0.0
    708    707    734    756   5     0.00000    30.33400     0.00000  0.0
    707    708    711    712   5     0.00000     3.76560     0.00000  0.0
    707    708    711    733   5     0.00000     3.76560     0.00000  0.0
    709    708    711    712   5     1.63176     1.00416     0.00000  0.0
    709    708    711    733   5     1.63176     1.00416     0.00000  0.0
    710    708    711    712   5     1.63176     1.00416     0.00000  0.0
    710    708    711    733   5     1.63176     1.00416     0.00000  0.0
    708    711    712    713   5     0.00000    30.33400     0.00000  0.0
    708    711    712    738   5     0.00000    30.33400     0.00000  0.0
    733    711    712    713   5     0.00000    30.33400     0.00000  0.0
    733    711    712    738   5     0.00000    30.33400     0.00000  0.0
    708    711    733    732   5     0.00000    30.33400     0.00000  0.0
    708    711    733    755   5     0.00000    30.33400     0.00000  0.0
    712    711    733    732   5     0.00000    30.33400     0.00000  0.0
    712    711    733    755   5     0.00000    30.33400     0.00000  0.0
    711    712    713    714   5     0.00000    30.33400     0.00000  0.0
    711    712    713    739   5     0.00000    30.33400     0.00000  0.0
    738    712    713    714   5     0.00000    30.33400     0.00000  0.0
    738    712    713    739   5     0.00000    30.33400     0.00000  0.0
    712    713    714    715   5     0.00000    30.33400     0.00000  0.0
    712    713    714    732   5     0.00000    30.33400     0.00000  0.0
    739    713    714    715   5     0.00000    30.33400     0.00000  0.0
    739    713    714    732   5     0.00000    30.33400     0.00000  0.0
    713    714    715    716   5     0.00000     3.94551     0.00000  0.0
    732    714    715    716   5     0.00000     3.94551     0.00000  0.0
    713    714    732    733   5     0.00000    30.33400     0.00000  0.0
    713    714    732    754   5     0.00000    30.33400     0.00000  0.0
    715    714    732    733   5     0.00000    30.33400     0.00000  0.0
    715    714    732    754   5     0.00000    30.33400     0.00000  0.0
    714    715    716    717   5     0.00000     3.94551     0.00000  0.0
    714    715    716    731   5     0.00000     3.94551     0.00000  0.0
    715    716    717    718   5     0.00000    30.33400     0.00000  0.0
    715    716    717    740   5     0.00000    30.33400     0.00000  0.0
    731    716    717    718   5     0.00000    30.33400     0.00000  0.0
    731    716    717    740   5     0.00000    30.33400     0.00000  0.0
    715    716    731    730   5     0.00000    30.33400     0.00000  0.0
    715    716    731    753   5     0.00000    30.33400     0.00000  0.0
    717    716    731    730   5     0.00000    30.33400     0.00000  0.0
    717    716    731    753   5     0.00000    30.33400     0.00000  0.0
    716    717    718    719   5     0.00000    30.33400     0.00000  0.0
    716    717    718    741   5     0.00000    30.33400     0.00000  0.0
    740    717    718    719   5     0.00000    30.33400     0.00000  0.0
    740    717    718    741   5     0.00000    30.33400     0.00000  0.0
    717    718    719    720   5     0.00000    30.33400     0.00000  0.0
    717    718    719    730   5     0.00000    30.33400     0.00000  0.0
    741    718    719    720   5     0.00000    30.33400     0.00000  0.0
    741    718    719    730   5     0.00000    30.33400     0.00000  0.0
    718    719    720    721   5     0.00000     0.34727     0.00000  0.0
    718    719    720    722   5     0.00000     0.34727     0.00000  0.0
    718    719    720    723   5     0.00000     0.35982     0.00000  0.0
    730    719    720    721   5     0.00000     0.34727     0.00000  0.0
    730    719    720    722   5     0.00000     0.34727     0.00000  0.0
    730    719    720    723   5     0.00000     0.35982     0.00000  0.0
    718    719    730    731   5     0.00000    30.33400     0.00000  0.0
    718    719    730    752   5     0.00000    30.33400     0.00000  0.0
    720    719    730    731   5     0.00000    30.33400     0.00000  0.0
    720    719    730    752   5     0.00000    30.33400     0.00000  0.0
    719    720    721    742   5     0.00000     0.00000     3.61498  0.0
    719    720    721    743   5     0.00000     0.00000     3.61498  0.0
    719    720    721    744   5     0.00000     0.00000     3.61498  0.0
    722    720    721    742   5     0.00000     0.00000     1.25520  0.0
    722    720    721    743   5     0.00000     0.00000     1.25520  0.0
    722    720    721    744   5     0.00000     0.00000     1.25520  0.0
    723    720    721    742   5     0.00000     0.00000     3.61498  0.0
    723    720    721    743   5     0.00000     0.00000     3.61498  0.0
    723    720    721    744   5     0.00000     0.00000     3.61498  0.0
    719    720    722    745   5     0.00000     0.00000     3.61498  0.0
    719    720    722    746   5     0.00000     0.00000     3.61498  0.0
    719    720    722    747   5     0.00000     0.00000     3.61498  0.0
    721    720    722    745   5     0.00000     0.00000     1.25520  0.0
    721    720    722    746   5     0.00000     0.00000     1.25520  0.0
    721    720    722    747   5     0.00000     0.00000     1.25520  0.0
    723    720    722    745   5     0.00000     0.00000     3.61498  0.0
    723    720    722    746   5     0.00000     0.00000     3.61498  0.0
    723    720    722    747   5     0.00000     0.00000     3.61498  0.0
    719    720    723    724   5     0.00000     0.35982     0.00000  0.0
    719    720    723    729   5     0.00000     0.35982     0.00000  0.0
    721    720    723    724   5     0.00000     0.34727     0.00000  0.0
    721    720    723    729   5     0.00000     0.34727     0.00000  0.0
    722    720    723    724   5     0.00000     0.34727     0.00000  0.0
    722    720    723    729   5     0.00000     0.34727     0.00000  0.0
    720    723    724    725   5     0.00000    30.33400     0.00000  0.0
    720    723    724    748   5     0.00000    30.33400     0.00000  0.0
    729    723    724    725   5     0.00000    30.33400     0.00000  0.0
    729    723    724    748   5     0.00000    30.33400     0.00000  0.0
    720    723    729    728   5     0.00000    30.33400     0.00000  0.0
    720    723    729    751   5     0.00000    30.33400     0.00000  0.0
    724    723    729    728   5     0.00000    30.33400     0.00000  0.0
    724    723    729    751   5     0.00000    30.33400     0.00000  0.0
    723    724    725    726   5     0.00000    30.33400     0.00000  0.0
    723    724    725    749   5     0.00000    30.33400     0.00000  0.0
    748    724    725    726   5     0.00000    30.33400     0.00000  0.0
    748    724    725    749   5     0.00000    30.33400     0.00000  0.0
    724    725    726    727   5     0.00000    30.33400     0.00000  0.0
    724    725    726    728   5     0.00000    30.33400     0.00000  0.0
    749    725    726    727   5     0.00000    30.33400     0.00000  0.0
    749    725    726    728   5     0.00000    30.33400     0.00000  0.0
    725    726    727    758   5     0.00000     3.94551     0.00000  0.0
    728    726    727    758   5     0.00000     3.94551     0.00000  0.0
    725    726    728    729   5     0.00000    30.33400     0.00000  0.0
    725    726    728    750   5     0.00000    30.33400     0.00000  0.0
    727    726    728    729   5     0.00000    30.33400     0.00000  0.0
    727    726    728    750   5     0.00000    30.33400     0.00000  0.0
    726    727    758    759   5     0.00000     3.94551     0.00000  0.0
    726    727    758    789   5     0.00000     3.94551     0.00000  0.0
    726    728    729    723   5     0.00000    30.33400     0.00000  0.0
    726    728    729    751   5     0.00000    30.33400     0.00000  0.0
    750    728    729    723   5     0.00000    30.33400     0.00000  0.0
    750    728    729    751   5     0.00000    30.33400     0.00000  0.0
    719    730    731    716   5     0.00000    30.33400     0.00000  0.0
    719    730    731    753   5     0.00000    30.33400     0.00000  0.0
    752    730    731    716   5     0.00000    30.33400     0.00000  0.0
    752    730    731    753   5     0.00000    30.33400     0.00000  0.0
    714    732    733    711   5     0.00000    30.33400     0.00000  0.0
    714    732    733    755   5     0.00000    30.33400     0.00000  0.0
    754    732    733    711   5     0.00000    30.33400     0.00000  0.0
    754    732    733    755   5     0.00000    30.33400     0.00000  0.0
    707    734    735    704   5     0.00000    30.33400     0.00000  0.0
    707    734    735    757   5     0.00000    30.33400     0.00000  0.0
    756    734    735    704   5     0.00000    30.33400     0.00000  0.0
    756    734    735    757   5     0.00000    30.33400     0.00000  0.0
    727    758    759    760   5     0.00000    30.33400     0.00000  0.0
    727    758    759    790   5     0.00000    30.33400     0.00000  0.0
    789    758    759    760   5     0.00000    30.33400     0.00000  0.0
    789    758    759    790   5     0.00000    30.33400     0.00000  0.0
    727    758    789    788   5     0.00000    30.33400     0.00000  0.0
    727    758    789    811   5     0.00000    30.33400     0.00000  0.0
    759    758    789    788   5     0.00000    30.33400     0.00000  0.0
    759    758    789    811   5     0.00000    30.33400     0.00000  0.0
    758    759    760    761   5     0.00000    30.33400     0.00000  0.0
    758    759    760    791   5     0.00000    30.33400     0.00000  0.0
    790    759    760    761   5     0.00000    30.33400     0.00000  0.0
    790    759    760    791   5     0.00000    30.33400     0.00000  0.0
    759    760    761    762   5     0.00000    30.33400     0.00000  0.0
    759    760    761    788   5     0.00000    30.33400     0.00000  0.0
    791    760    761    762   5     0.00000    30.33400     0.00000  0.0
    791    760    761    788   5     0.00000    30.33400     0.00000  0.0
    760    761    762    763   5     1.63176     1.00416     0.00000  0.0
    760    761    762    764   5     1.63176     1.00416     0.00000  0.0
    760    761    762    765   5     0.00000     3.76560     0.00000  0.0
    788    761    762    763   5     1.63176     1.00416     0.00000  0.0
    788    761    762    764   5     1.63176     1.00416     0.00000  0.0
    788    761    762    765   5     0.00000     3.76560     0.00000  0.0
    760    761    788    789   5     0.00000    30.33400     0.00000  0.0
    760    761    788    810   5     0.00000    30.33400     0.00000  0.0
    762    761    788    789   5     0.00000    30.33400     0.00000  0.0
    762    761    788    810   5     0.00000    30.33400     0.00000  0.0
    761    762    765    766   5     0.00000     3.76560     0.00000  0.0
    761    762    765    787   5     0.00000     3.76560     0.00000  0.0
    763    762    765    766   5     1.63176     1.00416     0.00000  0.0
    763    762    765    787   5     1.63176     1.00416     0.00000  0.0
    764    762    765    766   5     1.63176     1.00416     0.00000  0.0
    764    762    765    787   5     1.63176     1.00416     0.00000  0.0
    762    765    766    767   5     0.00000    30.33400     0.00000  0.0
    762    765    766    792   5     0.00000    30.33400     0.00000  0.0
    787    765    766    767   5     0.00000    30.33400     0.00000  0.0
    787    765    766    792   5     0.00000    30.33400     0.00000  0.0
    762    765    787    786   5     0.00000    30.33400     0.00000  0.0
    762    765    787    809   5     0.00000    30.33400     0.00000  0.0
    766    765    787    786   5     0.00000    30.33400     0.00000  0.0
    766    765    787    809   5     0.00000    30.33400     0.00000  0.0
    765    766    767    768   5     0.00000    30.33400     0.00000  0.0
    765    766    767    793   5     0.00000    30.33400     0.00000  0.0
    792    766    767    768   5     0.00000    30.33400     0.00000  0.0
    792    766    767    793   5     0.00000    30.33400     0.00000  0.0
    766    767    768    769   5     0.00000    30.33400     0.00000  0.0
    766    767    768    786   5     0.00000    30.33400     0.00000  0.0
    793    767    768    769   5     0.00000    30.33400     0.00000  0.0
    793    767    768    786   5     0.00000    30.33400     0.00000  0.0
    767    768    769    770   5     0.00000     3.94551     0.00000  0.0
    786    768    769    770   5     0.00000     3.94551     0.00000  0.0
    767    768    786    787   5     0.00000    30.33400     0.00000  0.0
    767    768    786    808   5     0.00000    30.33400     0.00000  0.0
    769    768    786    787   5     0.00000    30.33400     0.00000  0.0
    769    768    786    808   5     0.00000    30.33400     0.00000  0.0
    768    769    770    771   5     0.00000     3.94551     0.00000  0.0
    768    769    770    785   5     0.00000     3.94551     0.00000  0.0
    769    770    771    772   5     0.00000    30.33400     0.00000  0.0
    769    770    771    794   5     0.00000    30.33400     0.00000  0.0
    785    770    771    772   5     0.00000    30.33400     0.00000  0.0
    785    770    771    794   5     0.00000    30.33400     0.00000  0.0
    769    770    785    784   5     0.00000    30.33400     0.00000  0.0
    769    770    785    807   5     0.00000    30.33400     0.00000  0.0
    771    770    785    784   5     0.00000    30.33400     0.00000  0.0
    771    770    785    807   5     0.00000    30.33400     0.00000  0.0
    770    771    772    773   5     0.00000    30.33400     0.00000  0.0
    770    771    772    795   5     0.00000    30.33400     0.00000  0.0
    794    771    772    773   5     0.00000    30.33400     0.00000  0.0
    794    771    772    795   5     0.00000    30.33400     0.00000  0.0
    771    772    773    774   5     0.00000    30.33400     0.00000  0.0
    771    772    773    784   5     0.00000    30.33400     0.00000  0.0
    795    772    773    774   5     0.00000    30.33400     0.00000  0.0
    795    772    773    784   5     0.00000    30.33400     0.00000  0.0
    772    773    774    775   5     0.00000     0.34727     0.00000  0.0
    772    773    774    776   5     0.00000     0.34727     0.00000  0.0
    772    773    774    777   5     0.00000     0.35982     0.00000  0.0
    784    773    774    775   5     0.00000     0.34727     0.00000  0.0
    784    773    774    776   5     0.00000     0.34727     0.00000  0.0
    784    773    774    777   5     0.00000     0.35982     0.00000  0.0
    772    773    784    785   5     0.00000    30.33400     0.00000  0.0
    772    773    784    806   5     0.00000    30.33400     0.00000  0.0
    774    773    784    785   5     0.00000    30.33400     0.00000  0.0
    774    773    784    806   5     0.00000    30.33400     0.00000  0.0
    773    774    775    796   5     0.00000     0.00000     3.61498  0.0
    773    774    775    797   5     0.00000     0.00000     3.61498  0.0
    773    774    775    798   5     0.00000     0.00000     3.61498  0.0
    776    774    775    796   5     0.00000     0.00000     1.25520  0.0
    776    774    775    797   5     0.00000     0.00000     1.25520  0.0
    776    774    775    798   5     0.00000     0.00000     1.25520  0.0
    777    774    775    796   5     0.00000     0.00000     3.61498  0.0
    777    774    775    797   5     0.00000     0.00000     3.61498  0.0
    777    774    775    798   5     0.00000     0.00000     3.61498  0.0
    773    774    776    799   5     0.00000     0.00000     3.61498  0.0
    773    774    776    800   5     0.00000     0.00000     3.61498  0.0
    773    774    776    801   5     0.00000     0.00000     3.61498  0.0
    775    774    776    799   5     0.00000     0.00000     1.25520  0.0
    775    774    776    800   5     0.00000     0.00000     1.25520  0.0
    775    774    776    801   5     0.00000     0.00000     1.25520  0.0
    777    774    776    799   5     0.00000     0.00000     3.61498  0.0
    777    774    776    800   5     0.00000     0.00000     3.61498  0.0
    777    774    776    801   5     0.00000     0.00000     3.61498  0.0
    773    774    777    778   5     0.00000     0.35982     0.00000  0.0
    773    774    777    783   5     0.00000     0.35982     0.00000  0.0
    775    774    777    778   5     0.00000     0.34727     0.00000  0.0
    775    774    777    783   5     0.00000     0.34727     0.00000  0.0
    776    774    777    778   5     0.00000     0.34727     0.00000  0.0
    776    774    777    783   5     0.00000     0.34727     0.00000  0.0
    774    777    778    779   5     0.00000    30.33400     0.00000  0.0
    774    777    778    802   5     0.00000    30.33400     0.00000  0.0
    783    777    778    779   5     0.00000    30.33400     0.00000  0.0
    783    777    778    802   5     0.00000    30.33400     0.00000  0.0
    774    777    783    782   5     0.00000    30.33400     0.00000  0.0
    774    777    783    805   5     0.00000    30.33400     0.00000  0.0
    778    777    783    782   5     0.00000    30.33400     0.00000  0.0
    778    777    783    805   5     0.00000    30.33400     0.00000  0.0
    777    778    779    780   5     0.00000    30.33400     0.00000  0.0
    777    778    779    803   5     0.00000    30.33400     0.00000  0.0
    802    778    779    780   5     0.00000    30.33400     0.00000  0.0
    802    778    779    803   5     0.00000    30.33400     0.00000  0.0
    778    779    780    781   5     0.00000    30.33400     0.00000  0.0
    778    779    780    782   5     0.00000    30.33400     0.00000  0.0
    803    779    780    781   5     0.00000    30.33400     0.00000  0.0
    803    779    780    782   5     0.00000    30.33400     0.00000  0.0
    779    780    781    812   5     0.00000     3.94551     0.00000  0.0
    782    780    781    812   5     0.00000     3.94551     0.00000  0.0
    779    780    782    783   5     0.00000    30.33400     0.00000  0.0
    779    780    782    804   5     0.00000    30.33400     0.00000  0.0
    781    780    782    783   5     0.00000    30.33400     0.00000  0.0
    781    780    782    804   5     0.00000    30.33400     0.00000  0.0
    780    781    812    813   5     0.00000     3.94551     0.00000  0.0
    780    781    812    843   5     0.00000     3.94551     0.00000  0.0
    780    782    783    777   5     0.00000    30.33400     0.00000  0.0
    780    782    783    805   5     0.00000    30.33400     0.00000  0.0
    804    782    783    777   5     0.00000    30.33400     0.00000  0.0
    804    782    783    805   5     0.00000    30.33400     0.00000  0.0
    773    784    785    770   5     0.00000    30.33400     0.00000  0.0
    773    784    785    807   5     0.00000    30.33400     0.00000  0.0
    806    784    785    770   5     0.00000    30.33400     0.00000  0.0
    806    784    785    807   5     0.00000    30.33400     0.00000  0.0
    768    786    787    765   5     0.00000    30.33400     0.00000  0.0
    768    786    787    809   5     0.00000    30.33400     0.00000  0.0
    808    786    787    765   5     0.00000    30.33400     0.00000  0.0
    808    786    787    809   5     0.00000    30.33400     0.00000  0.0
    761    788    789    758   5     0.00000    30.33400     0.00000  0.0
    761    788    789    811   5     0.00000    30.33400     0.00000  0.0
    810    788    789    758   5     0.00000    30.33400     0.00000  0.0
    810    788    789    811   5     0.00000    30.33400     0.00000  0.0
    781    812    813    814   5     0.00000    30.33400     0.00000  0.0
    781    812    813    844   5     0.00000    30.33400     0.00000  0.0
    843    812    813    814   5     0.00000    30.33400     0.00000  0.0
    843    812    813    844   5     0.00000    30.33400     0.00000  0.0
    781    812    843    842   5     0.00000    30.33400     0.00000  0.0
    781    812    843    865   5     0.00000    30.33400     0.00000  0.0
    813    812    843    842   5     0.00000    30.33400     0.00000  0.0
    813    812    843    865   5     0.00000    30.33400     0.00000  0.0
    812    813    814    815   5     0.00000    30.33400     0.00000  0.0
    812    813    814    845   5     0.00000    30.33400     0.00000  0.0
    844    813    814    815   5     0.00000    30.33400     0.00000  0.0
    844    813    814    845   5     0.00000    30.33400     0.00000  0.0
    813    814    815    816   5     0.00000    30.33400     0.00000  0.0
    813    814    815    842   5     0.00000    30.33400     0.00000  0.0
    845    814    815    816   5     0.00000    30.33400     0.00000  0.0
    845    814    815    842   5     0.00000    30.33400     0.00000  0.0
    814    815    816    817   5     1.63176     1.00416     0.00000  0.0
    814    815    816    818   5     1.63176     1.00416     0.00000  0.0
    814    815    816    819   5     0.00000     3.76560     0.00000  0.0
    842    815    816    817   5     1.63176     1.00416     0.00000  0.0
    842    815    816    818   5     1.63176     1.00416     0.00000  0.0
    842    815    816    819   5     0.00000     3.76560     0.00000  0.0
    814    815    842    843   5     0.00000    30.33400     0.00000  0.0
    814    815    842    864   5     0.00000    30.33400     0.00000  0.0
    816    815    842    843   5     0.00000    30.33400     0.00000  0.0
    816    815    842    864   5     0.00000    30.33400     0.00000  0.0
    815    816    819    820   5     0.00000     3.76560     0.00000  0.0
    815    816    819    841   5     0.00000     3.76560     0.00000  0.0
    817    816    819    820   5     1.63176     1.00416     0.00000  0.0
    817    816    819    841   5     1.63176     1.00416     0.00000  0.0
    818    816    819    820   5     1.63176     1.00416     0.00000  0.0
    818    816    819    841   5     1.63176     1.00416     0.00000  0.0
    816    819    820    821   5     0.00000    30.33400     0.00000  0.0
    816    819    820    846   5     0.00000    30.33400     0.00000  0.0
    841    819    820    821   5     0.00000    30.33400     0.00000  0.0
    841    819    820    846   5     0.00000    30.33400     0.00000  0.0
    816    819    841    840   5     0.00000    30.33400     0.00000  0.0
    816    819    841    863   5     0.00000    30.33400     0.00000  0.0
    820    819    841    840   5     0.00000    30.33400     0.00000  0.0
    820    819    841    863   5     0.00000    30.33400     0.00000  0.0
    819    820    821    822   5     0.00000    30.33400     0.00000  0.0
    819    820    821    847   5     0.00000    30.33400     0.00000  0.0
    846    820    821    822   5     0.00000    30.33400     0.00000  0.0
    846    820    821    847   5     0.00000    30.33400     0.00000  0.0
    820    821    822    823   5     0.00000    30.33400     0.00000  0.0
    820    821    822    840   5     0.00000    30.33400     0.00000  0.0
    847    821    822    823   5     0.00000    30.33400     0.00000  0.0
    847    821    822    840   5     0.00000    30.33400     0.00000  0.0
    821    822    823    824   5     0.00000     3.94551     0.00000  0.0
    840    822    823    824   5     0.00000     3.94551     0.00000  0.0
    821    822    840    841   5     0.00000    30.33400     0.00000  0.0
    821    822    840    862   5     0.00000    30.33400     0.00000  0.0
    823    822    840    841   5     0.00000    30.33400     0.00000  0.0
    823    822    840    862   5     0.00000    30.33400     0.00000  0.0
    822    823    824    825   5     0.00000     3.94551     0.00000  0.0
    822    823    824    839   5     0.00000     3.94551     0.00000  0.0
    823    824    825    826   5     0.00000    30.33400     0.00000  0.0
    823    824    825    848   5     0.00000    30.33400     0.00000  0.0
    839    824    825    826   5     0.00000    30.33400     0.00000  0.0
    839    824    825    848   5     0.00000    30.33400     0.00000  0.0
    823    824    839    838   5     0.00000    30.33400     0.00000  0.0
    823    824    839    861   5     0.00000    30.33400     0.00000  0.0
    825    824    839    838   5     0.00000    30.33400     0.00000  0.0
    825    824    839    861   5     0.00000    30.33400     0.00000  0.0
    824    825    826    827   5     0.00000    30.33400     0.00000  0.0
    824    825    826    849   5     0.00000    30.33400     0.00000  0.0
    848    825    826    827   5     0.00000    30.33400     0.00000  0.0
    848    825    826    849   5     0.00000    30.33400     0.00000  0.0
    825    826    827    828   5     0.00000    30.33400     0.00000  0.0
    825    826    827    838   5     0.00000    30.33400     0.00000  0.0
    849    826    827    828   5     0.00000    30.33400     0.00000  0.0
    849    826    827    838   5     0.00000    30.33400     0.00000  0.0
    826    827    828    829   5     0.00000     0.34727     0.00000  0.0
    826    827    828    830   5     0.00000     0.34727     0.00000  0.0
    826    827    828    831   5     0.00000     0.35982     0.00000  0.0
    838    827    828    829   5     0.00000     0.34727     0.00000  0.0
    838    827    828    830   5     0.00000     0.34727     0.00000  0.0
    838    827    828    831   5     0.00000     0.35982     0.00000  0.0
    826    827    838    839   5     0.00000    30.33400     0.00000  0.0
    826    827    838    860   5     0.00000    30.33400     0.00000  0.0
    828    827    838    839   5     0.00000    30.33400     0.00000  0.0
    828    827    838    860   5     0.00000    30.33400     0.00000  0.0
    827    828    829    850   5     0.00000     0.00000     3.61498  0.0
    827    828    829    851   5     0.00000     0.00000     3.61498  0.0
    827    828    829    852   5     0.00000     0.00000     3.61498  0.0
    830    828    829    850   5     0.00000     0.00000     1.25520  0.0
    830    828    829    851   5     0.00000     0.00000     1.25520  0.0
    830    828    829    852   5     0.00000     0.00000     1.25520  0.0
    831    828    829    850   5     0.00000     0.00000     3.61498  0.0
    831    828    829    851   5     0.00000     0.00000     3.61498  0.0
    831    828    829    852   5     0.00000     0.00000     3.61498  0.0
    827    828    830    853   5     0.00000     0.00000     3.61498  0.0
    827    828    830    854   5     0.00000     0.00000     3.61498  0.0
    827    828    830    855   5     0.00000     0.00000     3.61498  0.0
    829    828    830    853   5     0.00000     0.00000     1.25520  0.0
    829    828    830    854   5     0.00000     0.00000     1.25520  0.0
    829    828    830    855   5     0.00000     0.00000     1.25520  0.0
    831    828    830    853   5     0.00000     0.00000     3.61498  0.0
    831    828    830    854   5     0.00000     0.00000     3.61498  0.0
    831    828    830    855   5     0.00000     0.00000     3.61498  0.0
    827    828    831    832   5     0.00000     0.35982     0.00000  0.0
    827    828    831    837   5     0.00000     0.35982     0.00000  0.0
    829    828    831    832   5     0.00000     0.34727     0.00000  0.0
    829    828    831    837   5     0.00000     0.34727     0.00000  0.0
    830    828    831    832   5     0.00000     0.34727     0.00000  0.0
    830    828    831    837   5     0.00000     0.34727     0.00000  0.0
    828    831    832    833   5     0.00000    30.33400     0.00000  0.0
    828    831    832    856   5     0.00000    30.33400     0.00000  0.0
    837    831    832    833   5     0.00000    30.33400     0.00000  0.0
    837    831    832    856   5     0.00000    30.33400     0.00000  0.0
    828    831    837    836   5     0.00000    30.33400     0.00000  0.0
    828    831    837    859   5     0.00000    30.33400     0.00000  0.0
    832    831    837    836   5     0.00000    30.33400     0.00000  0.0
    832    831    837    859   5     0.00000    30.33400     0.00000  0.0
    831    832    833    834   5     0.00000    30.33400     0.00000  0.0
    831    832    833    857   5     0.00000    30.33400     0.00000  0.0
    856    832    833    834   5     0.00000    30.33400     0.00000  0.0
    856    832    833    857   5     0.00000    30.33400     0.00000  0.0
    832    833    834    835   5     0.00000    30.33400     0.00000  0.0
    832    833    834    836   5     0.00000    30.33400     0.00000  0.0
    857    833    834    835   5     0.00000    30.33400     0.00000  0.0
    857    833    834    836   5     0.00000    30.33400     0.00000  0.0
    833    834    835    866   5     0.00000     3.94551     0.00000  0.0
    836    834    835    866   5     0.00000     3.94551     0.00000  0.0
    833    834    836    837   5     0.00000    30.33400     0.00000  0.0
    833    834    836    858   5     0.00000    30.33400     0.00000  0.0
    835    834    836    837   5     0.00000    30.33400     0.00000  0.0
    835    834    836    858   5     0.00000    30.33400     0.00000  0.0
    834    835    866    867   5     0.00000     3.94551     0.00000  0.0
    834    835    866    897   5     0.00000     3.94551     0.00000  0.0
    834    836    837    831   5     0.00000    30.33400     0.00000  0.0
    834    836    837    859   5     0.00000    30.33400     0.00000  0.0
    858    836    837    831   5     0.00000    30.33400     0.00000  0.0
    858    836    837    859   5     0.00000    30.33400     0.00000  0.0
    827    838    839    824   5     0.00000    30.33400     0.00000  0.0
    827    838    839    861   5     0.00000    30.33400     0.00000  0.0
    860    838    839    824   5     0.00000    30.33400     0.00000  0.0
    860    838    839    861   5     0.00000    30.33400     0.00000  0.0
    822    840    841    819   5     0.00000    30.33400     0.00000  0.0
    822    840    841    863   5     0.00000    30.33400     0.00000  0.0
    862    840    841    819   5     0.00000    30.33400     0.00000  0.0
    862    840    841    863   5     0.00000    30.33400     0.00000  0.0
    815    842    843    812   5     0.00000    30.33400     0.00000  0.0
    815    842    843    865   5     0.00000    30.33400     0.00000  0.0
    864    842    843    812   5     0.00000    30.33400     0.00000  0.0
    864    842    843    865   5     0.00000    30.33400     0.00000  0.0
    835    866    867    868   5     0.00000    30.33400     0.00000  0.0
    835    866    867    898   5     0.00000    30.33400     0.00000  0.0
    897    866    867    868   5     0.00000    30.33400     0.00000  0.0
    897    866    867    898   5     0.00000    30.33400     0.00000  0.0
    835    866    897    896   5     0.00000    30.33400     0.00000  0.0
    835    866    897    919   5     0.00000    30.33400     0.00000  0.0
    867    866    897    896   5     0.00000    30.33400     0.00000  0.0
    867    866    897    919   5     0.00000    30.33400     0.00000  0.0
    866    867    868    869   5     0.00000    30.33400     0.00000  0.0
    866    867    868    899   5     0.00000    30.33400     0.00000  0.0
    898    867    868    869   5     0.00000    30.33400     0.00000  0.0
    898    867    868    899   5     0.00000    30.33400     0.00000  0.0
    867    868    869    870   5     0.00000    30.33400     0.00000  0.0
    867    868    869    896   5     0.00000    30.33400     0.00000  0.0
    899    868    869    870   5     0.00000    30.33400     0.00000  0.0
    899    868    869    896   5     0.00000    30.33400     0.00000  0.0
    868    869    870    871   5     1.63176     1.00416     0.00000  0.0
    868    869    870    872   5     1.63176     1.00416     0.00000  0.0
    868    869    870    873   5     0.00000     3.76560     0.00000  0.0
    896    869    870    871   5     1.63176     1.00416     0.00000  0.0
    896    869    870    872   5     1.63176     1.00416     0.00000  0.0
    896    869    870    873   5     0.00000     3.76560     0.00000  0.0
    868    869    896    897   5     0.00000    30.33400     0.00000  0.0
    868    869    896    918   5     0.00000    30.33400     0.00000  0.0
    870    869    896    897   5     0.00000    30.33400     0.00000  0.0
    870    869    896    918   5     0.00000    30.33400     0.00000  0.0
    869    870    873    874   5     0.00000     3.76560     0.00000  0.0
    869    870    873    895   5     0.00000     3.76560     0.00000  0.0
    871    870    873    874   5     1.63176     1.00416     0.00000  0.0
    871    870    873    895   5     1.63176     1.00416     0.00000  0.0
    872    870    873    874   5     1.63176     1.00416     0.00000  0.0
    872    870    873    895   5     1.63176     1.00416     0.00000  0.0
    870    873    874    875   5     0.00000    30.33400     0.00000  0.0
    870    873    874    900   5     0.00000    30.33400     0.00000  0.0
    895    873    874    875   5     0.00000    30.33400     0.00000  0.0
    895    873    874    900   5     0.00000    30.33400     0.00000  0.0
    870    873    895    894   5     0.00000    30.33400     0.00000  0.0
    870    873    895    917   5     0.00000    30.33400     0.00000  0.0
    874    873    895    894   5     0.00000    30.33400     0.00000  0.0
    874    873    895    917   5     0.00000    30.33400     0.00000  0.0
    873    874    875    876   5     0.00000    30.33400     0.00000  0.0
    873    874    875    901   5     0.00000    30.33400     0.00000  0.0
    900    874    875    876   5     0.00000    30.33400     0.00000  0.0
    900    874    875    901   5     0.00000    30.33400     0.00000  0.0
    874    875    876    877   5     0.00000    30.33400     0.00000  0.0
    874    875    876    894   5     0.00000    30.33400     0.00000  0.0
    901    875    876    877   5     0.00000    30.33400     0.00000  0.0
    901    875    876    894   5     0.00000    30.33400     0.00000  0.0
    875    876    877    878   5     0.00000     3.94551     0.00000  0.0
    894    876    877    878   5     0.00000     3.94551     0.00000  0.0
    875    876    894    895   5     0.00000    30.33400     0.00000  0.0
    875    876    894    916   5     0.00000    30.33400     0.00000  0.0
    877    876    894    895   5     0.00000    30.33400     0.00000  0.0
    877    876    894    916   5     0.00000    30.33400     0.00000  0.0
    876    877    878    879   5     0.00000     3.94551     0.00000  0.0
    876    877    878    893   5     0.00000     3.94551     0.00000  0.0
    877    878    879    880   5     0.00000    30.33400     0.00000  0.0
    877    878    879    902   5     0.00000    30.33400     0.00000  0.0
    893    878    879    880   5     0.00000    30.33400     0.00000  0.0
    893    878    879    902   5     0.00000    30.33400     0.00000  0.0
    877    878    893    892   5     0.00000    30.33400     0.00000  0.0
    877    878    893    915   5     0.00000    30.33400     0.00000  0.0
    879    878    893    892   5     0.00000    30.33400     0.00000  0.0
    879    878    893    915   5     0.00000    30.33400     0.00000  0.0
    878    879    880    881   5     0.00000    30.33400     0.00000  0.0
    878    879    880    903   5     0.00000    30.33400     0.00000  0.0
    902    879    880    881   5     0.00000    30.33400     0.00000  0.0
    902    879    880    903   5     0.00000    30.33400     0.00000  0.0
    879    880    881    882   5     0.00000    30.33400     0.00000  0.0
    879    880    881    892   5     0.00000    30.33400     0.00000  0.0
    903    880    881    882   5     0.00000    30.33400     0.00000  0.0
    903    880    881    892   5     0.00000    30.33400     0.00000  0.0
    880    881    882    883   5     0.00000     0.34727     0.00000  0.0
    880    881    882    884   5     0.00000     0.34727     0.00000  0.0
    880    881    882    885   5     0.00000     0.35982     0.00000  0.0
    892    881    882    883   5     0.00000     0.34727     0.00000  0.0
    892    881    882    884   5     0.00000     0.34727     0.00000  0.0
    892    881    882    885   5     0.00000     0.35982     0.00000  0.0
    880    881    892    893   5     0.00000    30.33400     0.00000  0.0
    880    881    892    914   5     0.00000    30.33400     0.00000  0.0
    882    881    892    893   5     0.00000    30.33400     0.00000  0.0
    882    881    892    914   5     0.00000    30.33400     0.00000  0.0
    881    882    883    904   5     0.00000     0.00000     3.61498  0.0
    881    882    883    905   5     0.00000     0.00000     3.61498  0.0
    881    882    883    906   5     0.00000     0.00000     3.61498  0.0
    884    882    883    904   5     0.00000     0.00000     1.25520  0.0
    884    882    883    905   5     0.00000     0.00000     1.25520  0.0
    884    882    883    906   5     0.00000     0.00000     1.25520  0.0
    885    882    883    904   5     0.00000     0.00000     3.61498  0.0
    885    882    883    905   5     0.00000     0.00000     3.61498  0.0
    885    882    883    906   5     0.00000     0.00000     3.61498  0.0
    881    882    884    907   5     0.00000     0.00000     3.61498  0.0
    881    882    884    908   5     0.00000     0.00000     3.61498  0.0
    881    882    884    909   5     0.00000     0.00000     3.61498  0.0
    883    882    884    907   5     0.00000     0.00000     1.25520  0.0
    883    882    884    908   5     0.00000     0.00000     1.25520  0.0
    883    882    884    909   5     0.00000     0.00000     1.25520  0.0
    885    882    884    907   5     0.00000     0.00000     3.61498  0.0
    885    882    884    908   5     0.00000     0.00000     3.61498  0.0
    885    882    884    909   5     0.00000     0.00000     3.61498  0.0
    881    882    885    886   5     0.00000     0.35982     0.00000  0.0
    881    882    885    891   5     0.00000     0.35982     0.00000  0.0
    883    882    885    886   5     0.00000     0.34727     0.00000  0.0
    883    882    885    891   5     0.00000     0.34727     0.00000  0.0
    884    882    885    886   5     0.00000     0.34727     0.00000  0.0
    884    882    885    891   5     0.00000     0.34727     0.00000  0.0
    882    885    886    887   5     0.00000    30.33400     0.00000  0.0
    882    885    886    910   5     0.00000    30.33400     0.00000  0.0
    891    885    886    887   5     0.00000    30.33400     0.00000  0.0
    891    885    886    910   5     0.00000    30.33400     0.00000  0.0
    882    885    891    890   5     0.00000    30.33400     0.00000  0.0
    882    885    891    913   5     0.00000    30.33400     0.00000  0.0
    886    885    891    890   5     0.00000    30.33400     0.00000  0.0
    886    885    891    913   5     0.00000    30.33400     0.00000  0.0
    885    886    887    888   5     0.00000    30.33400     0.00000  0.0
    885    886    887    911   5     0.00000    30.33400     0.00000  0.0
    910    886    887    888   5     0.00000    30.33400     0.00000  0.0
    910    886    887    911   5     0.00000    30.33400     0.00000  0.0
    886    887    888    889   5     0.00000    30.33400     0.00000  0.0
    886    887    888    890   5     0.00000    30.33400     0.00000  0.0
    911    887    888    889   5     0.00000    30.33400     0.00000  0.0
    911    887    888    890   5     0.00000    30.33400     0.00000  0.0
    887    888    889    920   5     0.00000     3.94551     0.00000  0.0
    890    888    889    920   5     0.00000     3.94551     0.00000  0.0
    887    888    890    891   5     0.00000    30.33400     0.00000  0.0
    887    888    890    912   5     0.00000    30.33400     0.00000  0.0
    889    888    890    891   5     0.00000    30.33400     0.00000  0.0
    889    888    890    912   5     0.00000    30.33400     0.00000  0.0
    888    889    920    921   5     0.00000     3.94551     0.00000  0.0
    888    889    920    951   5     0.00000     3.94551     0.00000  0.0
    888    890    891    885   5     0.00000    30.33400     0.00000  0.0
    888    890    891    913   5     0.00000    30.33400     0.00000  0.0
    912    890    891    885   5     0.00000    30.33400     0.00000  0.0
    912    890    891    913   5     0.00000    30.33400     0.00000  0.0
    881    892    893    878   5     0.00000    30.33400     0.00000  0.0
    881    892    893    915   5     0.00000    30.33400     0.00000  0.0
    914    892    893    878   5     0.00000    30.33400     0.00000  0.0
    914    892    893    915   5     0.00000    30.33400     0.00000  0.0
    876    894    895    873   5     0.00000    30.33400     0.00000  0.0
    876    894    895    917   5     0.00000    30.33400     0.00000  0.0
    916    894    895    873   5     0.00000    30.33400     0.00000  0.0
    916    894    895    917   5     0.00000    30.33400     0.00000  0.0
    869    896    897    866   5     0.00000    30.33400     0.00000  0.0
    869    896    897    919   5     0.00000    30.33400     0.00000  0.0
    918    896    897    866   5     0.00000    30.33400     0.00000  0.0
    918    896    897    919   5     0.00000    30.33400     0.00000  0.0
    889    920    921    922   5     0.00000    30.33400     0.00000  0.0
    889    920    921    952   5     0.00000    30.33400     0.00000  0.0
    951    920    921    922   5     0.00000    30.33400     0.00000  0.0
    951    920    921    952   5     0.00000    30.33400     0.00000  0.0
    889    920    951    950   5     0.00000    30.33400     0.00000  0.0
    889    920    951    973   5     0.00000    30.33400     0.00000  0.0
    921    920    951    950   5     0.00000    30.33400     0.00000  0.0
    921    920    951    973   5     0.00000    30.33400     0.00000  0.0
    920    921    922    923   5     0.00000    30.33400     0.00000  0.0
    920    921    922    953   5     0.00000    30.33400     0.00000  0.0
    952    921    922    923   5     0.00000    30.33400     0.00000  0.0
    952    921    922    953   5     0.00000    30.33400     0.00000  0.0
    921    922    923    924   5     0.00000    30.33400     0.00000  0.0
    921    922    923    950   5     0.00000    30.33400     0.00000  0.0
    953    922    923    924   5     0.00000    30.33400     0.00000  0.0
    953    922    923    950   5     0.00000    30.33400     0.00000  0.0
    922    923    924    925   5     1.63176     1.00416     0.00000  0.0
    922    923    924    926   5     1.63176     1.00416     0.00000  0.0
    922    923    924    927   5     0.00000     3.76560     0.00000  0.0
    950    923    924    925   5     1.63176     1.00416     0.00000  0.0
    950    923    924    926   5     1.63176     1.00416     0.00000  0.0
    950    923    924    927   5     0.00000     3.76560     0.00000  0.0
    922    923    950    951   5     0.00000    30.33400     0.00000  0.0
    922    923    950    972   5     0.00000    30.33400     0.00000  0.0
    924    923    950    951   5     0.00000    30.33400     0.00000  0.0
    924    923    950    972   5     0.00000    30.33400     0.00000  0.0
    923    924    927    928   5     0.00000     3.76560     0.00000  0.0
    923    924    927    949   5     0.00000     3.76560     0.00000  0.0
    925    924    927    928   5     1.63176     1.00416     0.00000  0.0
    925    924    927    949   5     1.63176     1.00416     0.00000  0.0
    926    924    927    928   5     1.63176     1.00416     0.00000  0.0
    926    924    927    949   5     1.63176     1.00416     0.00000  0.0
    924    927    928    929   5     0.00000    30.33400     0.00000  0.0
    924    927    928    954   5     0.00000    30.33400     0.00000  0.0
    949    927    928    929   5     0.00000    30.33400     0.00000  0.0
    949    927    928    954   5     0.00000    30.33400     0.00000  0.0
    924    927    949    948   5     0.00000    30.33400     0.00000  0.0
    924    927    949    971   5     0.00000    30.33400     0.00000  0.0
    928    927    949    948   5     0.00000    30.33400     0.00000  0.0
    928    927    949    971   5     0.00000    30.33400     0.00000  0.0
    927    928    929    930   5     0.00000    30.33400     0.00000  0.0
    927    928    929    955   5     0.00000    30.33400     0.00000  0.0
    954    928    929    930   5     0.00000    30.33400     0.00000  0.0
    954    928    929    955   5     0.00000    30.33400     0.00000  0.0
    928    929    930    931   5     0.00000    30.33400     0.00000  0.0
    928    929    930    948   5     0.00000    30.33400     0.00000  0.0
    955    929    930    931   5     0.00000    30.33400     0.00000  0.0
    955    929    930    948   5     0.00000    30.33400     0.00000  0.0
    929    930    931    932   5     0.00000     3.94551     0.00000  0.0
    948    930    931    932   5     0.00000     3.94551     0.00000  0.0
    929    930    948    949   5     0.00000    30.33400     0.00000  0.0
    929    930    948    970   5     0.00000    30.33400     0.00000  0.0
    931    930    948    949   5     0.00000    30.33400     0.00000  0.0
    931    930    948    970   5     0.00000    30.33400     0.00000  0.0
    930    931    932    933   5     0.00000     3.94551     0.00000  0.0
    930    931    932    947   5     0.00000     3.94551     0.00000  0.0
    931    932    933    934   5     0.00000    30.33400     0.00000  0.0
    931    932    933    956   5     0.00000    30.33400     0.00000  0.0
    947    932    933    934   5     0.00000    30.33400     0.00000  0.0
    947    932    933    956   5     0.00000    30.33400     0.00000  0.0
    931    932    947    946   5     0.00000    30.33400     0.00000  0.0
    931    932    947    969   5     0.00000    30.33400     0.00000  0.0
    933    932    947    946   5     0.00000    30.33400     0.00000  0.0
    933    932    947    969   5     0.00000    30.33400     0.00000  0.0
    932    933    934    935   5     0.00000    30.33400     0.00000  0.0
    932    933    934    957   5     0.00000    30.33400     0.00000  0.0
    956    933    934    935   5     0.00000    30.33400     0.00000  0.0
    956    933    934    957   5     0.00000    30.33400     0.00000  0.0
    933    934    935    936   5     0.00000    30.33400     0.00000  0.0
    933    934    935    946   5     0.00000    30.33400     0.00000  0.0
    957    934    935    936   5     0.00000    30.33400     0.00000  0.0
    957    934    935    946   5     0.00000    30.33400     0.00000  0.0
    934    935    936    937   5     0.00000     0.34727     0.00000  0.0
    934    935    936    938   5     0.00000     0.34727     0.00000  0.0
    934    935    936    939   5     0.00000     0.35982     0.00000  0.0
    946    935    936    937   5     0.00000     0.34727     0.00000  0.0
    946    935    936    938   5     0.00000     0.34727     0.00000  0.0
    946    935    936    939   5     0.00000     0.35982     0.00000  0.0
    934    935    946    947   5     0.00000    30.33400     0.00000  0.0
    934    935    946    968   5     0.00000    30.33400     0.00000  0.0
    936    935    946    947   5     0.00000    30.33400     0.00000  0.0
    936    935    946    968   5     0.00000    30.33400     0.00000  0.0
    935    936    937    958   5     0.00000     0.00000     3.61498  0.0
    935    936    937    959   5     0.00000     0.00000     3.61498  0.0
    935    936    937    960   5     0.00000     0.00000     3.61498  0.0
    938    936    937    958   5     0.00000     0.00000     1.25520  0.0
    938    936    937    959   5     0.00000     0.00000     1.25520  0.0
    938    936    937    960   5     0.00000     0.00000     1.25520  0.0
    939    936    937    958   5     0.00000     0.00000     3.61498  0.0
    939    936    937    959   5     0.00000     0.00000     3.61498  0.0
    939    936    937    960   5     0.00000     0.00000     3.61498  0.0
    935    936    938    961   5     0.00000     0.00000     3.61498  0.0
    935    936    938    962   5     0.00000     0.00000     3.61498  0.0
    935    936    938    963   5     0.00000     0.00000     3.61498  0.0
    937    936    938    961   5     0.00000     0.00000     1.25520  0.0
    937    936    938    962   5     0.00000     0.00000     1.25520  0.0
    937    936    938    963   5     0.00000     0.00000     1.25520  0.0
    939    936    938    961   5     0.00000     0.00000     3.61498  0.0
    939    936    938    962   5     0.00000     0.00000     3.61498  0.0
    939    936    938    963   5     0.00000     0.00000     3.61498  0.0
    935    936    939    940   5     0.00000     0.35982     0.00000  0.0
    935    936    939    945   5     0.00000     0.35982     0.00000  0.0
    937    936    939    940   5     0.00000     0.34727     0.00000  0.0
    937    936    939    945   5     0.00000     0.34727     0.00000  0.0
    938    936    939    940   5     0.00000     0.34727     0.00000  0.0
    938    936    939    945   5     0.00000     0.34727     0.00000  0.0
    936    939    940    941   5     0.00000    30.33400     0.00000  0.0
    936    939    940    964   5     0.00000    30.33400     0.00000  0.0
    945    939    940    941   5     0.00000    30.33400     0.00000  0.0
    945    939    940    964   5     0.00000    30.33400     0.00000  0.0
    936    939    945    944   5     0.00000    30.33400     0.00000  0.0
    936    939    945    967   5     0.00000    30.33400     0.00000  0.0
    940    939    945    944   5     0.00000    30.33400     0.00000  0.0
    940    939    945    967   5     0.00000    30.33400     0.00000  0.0
    939    940    941    942   5     0.00000    30.33400     0.00000  0.0
    939    940    941    965   5     0.00000    30.33400     0.00000  0.0
    964    940    941    942   5     0.00000    30.33400     0.00000  0.0
    964    940    941    965   5     0.00000    30.33400     0.00000  0.0
    940    941    942    943   5     0.00000    30.33400     0.00000  0.0
    940    941    942    944   5     0.00000    30.33400     0.00000  0.0
    965    941    942    943   5     0.00000    30.33400     0.00000  0.0
    965    941    942    944   5     0.00000    30.33400     0.00000  0.0
    941    942    943    974   5     0.00000     3.94551     0.00000  0.0
    944    942    943    974   5     0.00000     3.94551     0.00000  0.0
    941    942    944    945   5     0.00000    30.33400     0.00000  0.0
    941    942    944    966   5     0.00000    30.33400     0.00000  0.0
    943    942    944    945   5     0.00000    30.33400     0.00000  0.0
    943    942    944    966   5     0.00000    30.33400     0.00000  0.0
    942    943    974    975   5     0.00000     3.94551     0.00000  0.0
    942    943    974   1005   5     0.00000     3.94551     0.00000  0.0
    942    944    945    939   5     0.00000    30.33400     0.00000  0.0
    942    944    945    967   5     0.00000    30.33400     0.00000  0.0
    966    944    945    939   5     0.00000    30.33400     0.00000  0.0
    966    944    945    967   5     0.00000    30.33400     0.00000  0.0
    935    946    947    932   5     0.00000    30.33400     0.00000  0.0
    935    946    947    969   5     0.00000    30.33400     0.00000  0.0
    968    946    947    932   5     0.00000    30.33400     0.00000  0.0
    968    946    947    969   5     0.00000    30.33400     0.00000  0.0
    930    948    949    927   5     0.00000    30.33400     0.00000  0.0
    930    948    949    971   5     0.00000    30.33400     0.00000  0.0
    970    948    949    927   5     0.00000    30.33400     0.00000  0.0
    970    948    949    971   5     0.00000    30.33400     0.00000  0.0
    923    950    951    920   5     0.00000    30.33400     0.00000  0.0
    923    950    951    973   5     0.00000    30.33400     0.00000  0.0
    972    950    951    920   5     0.00000    30.33400     0.00000  0.0
    972    950    951    973   5     0.00000    30.33400     0.00000  0.0
    943    974    975    976   5     0.00000    30.33400     0.00000  0.0
    943    974    975   1006   5     0.00000    30.33400     0.00000  0.0
   1005    974    975    976   5     0.00000    30.33400     0.00000  0.0
   1005    974    975   1006   5     0.00000    30.33400     0.00000  0.0
    943    974   1005   1004   5     0.00000    30.33400     0.00000  0.0
    943    974   1005   1027   5     0.00000    30.33400     0.00000  0.0
    975    974   1005   1004   5     0.00000    30.33400     0.00000  0.0
    975    974   1005   1027   5     0.00000    30.33400     0.00000  0.0
    974    975    976    977   5     0.00000    30.33400     0.00000  0.0
    974    975    976   1007   5     0.00000    30.33400     0.00000  0.0
   1006    975    976    977   5     0.00000    30.33400     0.00000  0.0
   1006    975    976   1007   5     0.00000    30.33400     0.00000  0.0
    975    976    977    978   5     0.00000    30.33400     0.00000  0.0
    975    976    977   1004   5     0.00000    30.33400     0.00000  0.0
   1007    976    977    978   5     0.00000    30.33400     0.00000  0.0
   1007    976    977   1004   5     0.00000    30.33400     0.00000  0.0
    976    977    978    979   5     1.63176     1.00416     0.00000  0.0
    976    977    978    980   5     1.63176     1.00416     0.00000  0.0
    976    977    978    981   5     0.00000     3.76560     0.00000  0.0
   1004    977    978    979   5     1.63176     1.00416     0.00000  0.0
   1004    977    978    980   5     1.63176     1.00416     0.00000  0.0
   1004    977    978    981   5     0.00000     3.76560     0.00000  0.0
    976    977   1004   1005   5     0.00000    30.33400     0.00000  0.0
    976    977   1004   1026   5     0.00000    30.33400     0.00000  0.0
    978    977   1004   1005   5     0.00000    30.33400     0.00000  0.0
    978    977   1004   1026   5     0.00000    30.33400     0.00000  0.0
    977    978    981    982   5     0.00000     3.76560     0.00000  0.0
    977    978    981   1003   5     0.00000     3.76560     0.00000  0.0
    979    978    981    982   5     1.63176     1.00416     0.00000  0.0
    979    978    981   1003   5     1.63176     1.00416     0.00000  0.0
    980    978    981    982   5     1.63176     1.00416     0.00000  0.0
    980    978    981   1003   5     1.63176     1.00416     0.00000  0.0
    978    981    982    983   5     0.00000    30.33400     0.00000  0.0
    978    981    982   1008   5     0.00000    30.33400     0.00000  0.0
   1003    981    982    983   5     0.00000    30.33400     0.00000  0.0
   1003    981    982   1008   5     0.00000    30.33400     0.00000  0.0
    978    981   1003   1002   5     0.00000    30.33400     0.00000  0.0
    978    981   1003   1025   5     0.00000    30.33400     0.00000  0.0
    982    981   1003   1002   5     0.00000    30.33400     0.00000  0.0
    982    981   1003   1025   5     0.00000    30.33400     0.00000  0.0
    981    982    983    984   5     0.00000    30.33400     0.00000  0.0
    981    982    983   1009   5     0.00000    30.33400     0.00000  0.0
   1008    982    983    984   5     0.00000    30.33400     0.00000  0.0
   1008    982    983   1009   5     0.00000    30.33400     0.00000  0.0
    982    983    984    985   5     0.00000    30.33400     0.00000  0.0
    982    983    984   1002   5     0.00000    30.33400     0.00000  0.0
   1009    983    984    985   5     0.00000    30.33400     0.00000  0.0
   1009    983    984   1002   5     0.00000    30.33400     0.00000  0.0
    983    984    985    986   5     0.00000     3.94551     0.00000  0.0
   1002    984    985    986   5     0.00000     3.94551     0.00000  0.0
    983    984   1002   1003   5     0.00000    30.33400     0.00000  0.0
    983    984   1002   1024   5     0.00000    30.33400     0.00000  0.0
    985    984   1002   1003   5     0.00000    30.33400     0.00000  0.0
    985    984   1002   1024   5     0.00000    30.33400     0.00000  0.0
    984    985    986    987   5     0.00000     3.94551     0.00000  0.0
    984    985    986   1001   5     0.00000     3.94551     0.00000  0.0
    985    986    987    988   5     0.00000    30.33400     0.00000  0.0
    985    986    987   1010   5     0.00000    30.33400     0.00000  0.0
   1001    986    987    988   5     0.00000    30.33400     0.00000  0.0
   1001    986    987   1010   5     0.00000    30.33400     0.00000  0.0
    985    986   1001   1000   5     0.00000    30.33400     0.00000  0.0
    985    986   1001   1023   5     0.00000    30.33400     0.00000  0.0
    987    986   1001   1000   5     0.00000    30.33400     0.00000  0.0
    987    986   1001   1023   5     0.00000    30.33400     0.00000  0.0
    986    987    988    989   5     0.00000    30.33400     0.00000  0.0
    986    987    988   1011   5     0.00000    30.33400     0.00000  0.0
   1010    987    988    989   5     0.00000    30.33400     0.00000  0.0
   1010    987    988   1011   5     0.00000    30.33400     0.00000  0.0
    987    988    989    990   5     0.00000    30.33400     0.00000  0.0
    987    988    989   1000   5     0.00000    30.33400     0.00000  0.0
   1011    988    989    990   5     0.00000    30.33400     0.00000  0.0
   1011    988    989   1000   5     0.00000    30.33400     0.00000  0.0
    988    989    990    991   5     0.00000     0.34727     0.00000  0.0
    988    989    990    992   5     0.00000     0.34727     0.00000  0.0
    988    989    990    993   5     0.00000     0.35982     0.00000  0.0
   1000    989    990    991   5     0.00000     0.34727     0.00000  0.0
   1000    989    990    992   5     0.00000     0.34727     0.00000  0.0
   1000    989    990    993   5     0.00000     0.35982     0.00000  0.0
    988    989   1000   1001   5     0.00000    30.33400     0.00000  0.0
    988    989   1000   1022   5     0.00000    30.33400     0.00000  0.0
    990    989   1000   1001   5     0.00000    30.33400     0.00000  0.0
    990    989   1000   1022   5     0.00000    30.33400     0.00000  0.0
    989    990    991   1012   5     0.00000     0.00000     3.61498  0.0
    989    990    991   1013   5     0.00000     0.00000     3.61498  0.0
    989    990    991   1014   5     0.00000     0.00000     3.61498  0.0
    992    990    991   1012   5     0.00000     0.00000     1.25520  0.0
    992    990    991   1013   5     0.00000     0.00000     1.25520  0.0
    992    990    991   1014   5     0.00000     0.00000     1.25520  0.0
    993    990    991   1012   5     0.00000     0.00000     3.61498  0.0
    993    990    991   1013   5     0.00000     0.00000     3.61498  0.0
    993    990    991   1014   5     0.00000     0.00000     3.61498  0.0
    989    990    992   1015   5     0.00000     0.00000     3.61498  0.0
    989    990    992   1016   5     0.00000     0.00000     3.61498  0.0
    989    990    992   1017   5     0.00000     0.00000     3.61498  0.0
    991    990    992   1015   5     0.00000     0.00000     1.25520  0.0
    991    990    992   1016   5     0.00000     0.00000     1.25520  0.0
    991    990    992   1017   5     0.00000     0.00000     1.25520  0.0
    993    990    992   1015   5     0.00000     0.00000     3.61498  0.0
    993    990    992   1016   5     0.00000     0.00000     3.61498  0.0
    993    990    992   1017   5     0.00000     0.00000     3.61498  0.0
    989    990    993    994   5     0.00000     0.35982     0.00000  0.0
    989    990    993    999   5     0.00000     0.35982     0.00000  0.0
    991    990    993    994   5     0.00000     0.34727     0.00000  0.0
    991    990    993    999   5     0.00000     0.34727     0.00000  0.0
    992    990    993    994   5     0.00000     0.34727     0.00000  0.0
    992    990    993    999   5     0.00000     0.34727     0.00000  0.0
    990    993    994    995   5     0.00000    30.33400     0.00000  0.0
    990    993    994   1018   5     0.00000    30.33400     0.00000  0.0
    999    993    994    995   5     0.00000    30.33400     0.00000  0.0
    999    993    994   1018   5     0.00000    30.33400     0.00000  0.0
    990    993    999    998   5     0.00000    30.33400     0.00000  0.0
    990    993    999   1021   5     0.00000    30.33400     0.00000  0.0
    994    993    999    998   5     0.00000    30.33400     0.00000  0.0
    994    993    999   1021   5     0.00000    30.33400     0.00000  0.0
    993    994    995    996   5     0.00000    30.33400     0.00000  0.0
    993    994    995   1019   5     0.00000    30.33400     0.00000  0.0
   1018    994    995    996   5     0.00000    30.33400     0.00000  0.0
   1018    994    995   1019   5     0.00000    30.33400     0.00000  0.0
    994    995    996    997   5     0.00000    30.33400     0.00000  0.0
    994    995    996    998   5     0.00000    30.33400     0.00000  0.0
   1019    995    996    997   5     0.00000    30.33400     0.00000  0.0
   1019    995    996    998   5     0.00000    30.33400     0.00000  0.0
    995    996    997   1028   5     0.00000     3.94551     0.00000  0.0
    998    996    997   1028   5     0.00000     3.94551     0.00000  0.0
    995    996    998    999   5     0.00000    30.33400     0.00000  0.0
    995    996    998   1020   5     0.00000    30.33400     0.00000  0.0
    997    996    998    999   5     0.00000    30.33400     0.00000  0.0
    997    996    998   1020   5     0.00000    30.33400     0.00000  0.0
    996    997   1028   1029   5     0.00000     3.94551     0.00000  0.0
    996    997   1028   1059   5     0.00000     3.94551     0.00000  0.0
    996    998    999    993   5     0.00000    30.33400     0.00000  0.0
    996    998    999   1021   5     0.00000    30.33400     0.00000  0.0
   1020    998    999    993   5     0.00000    30.33400     0.00000  0.0
   1020    998    999   1021   5     0.00000    30.33400     0.00000  0.0
    989   1000   1001    986   5     0.00000    30.33400     0.00000  0.0
    989   1000   1001   1023   5     0.00000    30.33400     0.00000  0.0
   1022   1000   1001    986   5     0.00000    30.33400     0.00000  0.0
   1022   1000   1001   1023   5     0.00000    30.33400     0.00000  0.0
    984   1002   1003    981   5     0.00000    30.33400     0.00000  0.0
    984   1002   1003   1025   5     0.00000    30.33400     0.00000  0.0
   1024   1002   1003    981   5     0.00000    30.33400     0.00000  0.0
   1024   1002   1003   1025   5     0.00000    30.33400     0.00000  0.0
    977   1004   1005    974   5     0.00000    30.33400     0.00000  0.0
    977   1004   1005   1027   5     0.00000    30.33400     0.00000  0.0
   1026   1004   1005    974   5     0.00000    30.33400     0.00000  0.0
   1026   1004   1005   1027   5     0.00000    30.33400     0.00000  0.0
    997   1028   1029   1030   5     0.00000    30.33400     0.00000  0.0
    997   1028   1029   1060   5     0.00000    30.33400     0.00000  0.0
   1059   1028   1029   1030   5     0.00000    30.33400     0.00000  0.0
   1059   1028   1029   1060   5     0.00000    30.33400     0.00000  0.0
    997   1028   1059   1058   5     0.00000    30.33400     0.00000  0.0
    997   1028   1059   1081   5     0.00000    30.33400     0.00000  0.0
   1029   1028   1059   1058   5     0.00000    30.33400     0.00000  0.0
   1029   1028   1059   1081   5     0.00000    30.33400     0.00000  0.0
   1028   1029   1030   1031   5     0.00000    30.33400     0.00000  0.0
   1028   1029   1030   1061   5     0.00000    30.33400     0.00000  0.0
   1060   1029   1030   1031   5     0.00000    30.33400     0.00000  0.0
   1060   1029   1030   1061   5     0.00000    30.33400     0.00000  0.0
   1029   1030   1031   1032   5     0.00000    30.33400     0.00000  0.0
   1029   1030   1031   1058   5     0.00000    30.33400     0.00000  0.0
   1061   1030   1031   1032   5     0.00000    30.33400     0.00000  0.0
   1061   1030   1031   1058   5     0.00000    30.33400     0.00000  0.0
   1030   1031   1032   1033   5     1.63176     1.00416     0.00000  0.0
   1030   1031   1032   1034   5     1.63176     1.00416     0.00000  0.0
   1030   1031   1032   1035   5     0.00000     3.76560     0.00000  0.0
   1058   1031   1032   1033   5     1.63176     1.00416     0.00000  0.0
   1058   1031   1032   1034   5     1.63176     1.00416     0.00000  0.0
   1058   1031   1032   1035   5     0.00000     3.76560     0.00000  0.0
   1030   1031   1058   1059   5     0.00000    30.33400     0.00000  0.0
   1030   1031   1058   1080   5     0.00000    30.33400     0.00000  0.0
   1032   1031   1058   1059   5     0.00000    30.33400     0.00000  0.0
   1032   1031   1058   1080   5     0.00000    30.33400     0.00000  0.0
   1031   1032   1035   1036   5     0.00000     3.76560     0.00000  0.0
   1031   1032   1035   1057   5     0.00000     3.76560     0.00000  0.0
   1033   1032   1035   1036   5     1.63176     1.00416     0.00000  0.0
   1033   1032   1035   1057   5     1.63176     1.00416     0.00000  0.0
   1034   1032   1035   1036   5     1.63176     1.00416     0.00000  0.0
   1034   1032   1035   1057   5     1.63176     1.00416     0.00000  0.0
   1032   1035   1036   1037   5     0.00000    30.33400     0.00000  0.0
   1032   1035   1036   1062   5     0.00000    30.33400     0.00000  0.0
   1057   1035   1036   1037   5     0.00000    30.33400     0.00000  0.0
   1057   1035   1036   1062   5     0.00000    30.33400     0.00000  0.0
   1032   1035   1057   1056   5     0.00000    30.33400     0.00000  0.0
   1032   1035   1057   1079   5     0.00000    30.33400     0.00000  0.0
   1036   1035   1057   1056   5     0.00000    30.33400     0.00000  0.0
   1036   1035   1057   1079   5     0.00000    30.33400     0.00000  0.0
   1035   1036   1037   1038   5     0.00000    30.33400     0.00000  0.0
   1035   1036   1037   1063   5     0.00000    30.33400     0.00000  0.0
   1062   1036   1037   1038   5     0.00000    30.33400     0.00000  0.0
   1062   1036   1037   1063   5     0.00000    30.33400     0.00000  0.0
   1036   1037   1038   1039   5     0.00000    30.33400     0.00000  0.0
   1036   1037   1038   1056   5     0.00000    30.33400     0.00000  0.0
   1063   1037   1038   1039   5     0.00000    30.33400     0.00000  0.0
   1063   1037   1038   1056   5     0.00000    30.33400     0.00000  0.0
   1037   1038   1039   1040   5     0.00000     3.94551     0.00000  0.0
   1056   1038   1039   1040   5     0.00000     3.94551     0.00000  0.0
   1037   1038   1056   1057   5     0.00000    30.33400     0.00000  0.0
   1037   1038   1056   1078   5     0.00000    30.33400     0.00000  0.0
   1039   1038   1056   1057   5     0.00000    30.33400     0.00000  0.0
   1039   1038   1056   1078   5     0.00000    30.33400     0.00000  0.0
   1038   1039   1040   1041   5     0.00000     3.94551     0.00000  0.0
   1038   1039   1040   1055   5     0.00000     3.94551     0.00000  0.0
   1039   1040   1041   1042   5     0.00000    30.33400     0.00000  0.0
   1039   1040   1041   1064   5     0.00000    30.33400     0.00000  0.0
   1055   1040   1041   1042   5     0.00000    30.33400     0.00000  0.0
   1055   1040   1041   1064   5     0.00000    30.33400     0.00000  0.0
   1039   1040   1055   1054   5     0.00000    30.33400     0.00000  0.0
   1039   1040   1055   1077   5     0.00000    30.33400     0.00000  0.0
   1041   1040   1055   1054   5     0.00000    30.33400     0.00000  0.0
   1041   1040   1055   1077   5     0.00000    30.33400     0.00000  0.0
   1040   1041   1042   1043   5     0.00000    30.33400     0.00000  0.0
   1040   1041   1042   1065   5     0.00000    30.33400     0.00000  0.0
   1064   1041   1042   1043   5     0.00000    30.33400     0.00000  0.0
   1064   1041   1042   1065   5     0.00000    30.33400     0.00000  0.0
   1041   1042   1043   1044   5     0.00000    30.33400     0.00000  0.0
   1041   1042   1043   1054   5     0.00000    30.33400     0.00000  0.0
   1065   1042   1043   1044   5     0.00000    30.33400     0.00000  0.0
   1065   1042   1043   1054   5     0.00000    30.33400     0.00000  0.0
   1042   1043   1044   1045   5     0.00000     0.34727     0.00000  0.0
   1042   1043   1044   1046   5     0.00000     0.34727     0.00000  0.0
   1042   1043   1044   1047   5     0.00000     0.35982     0.00000  0.0
   1054   1043   1044   1045   5     0.00000     0.34727     0.00000  0.0
   1054   1043   1044   1046   5     0.00000     0.34727     0.00000  0.0
   1054   1043   1044   1047   5     0.00000     0.35982     0.00000  0.0
   1042   1043   1054   1055   5     0.00000    30.33400     0.00000  0.0
   1042   1043   1054   1076   5     0.00000    30.33400     0.00000  0.0
   1044   1043   1054   1055   5     0.00000    30.33400     0.00000  0.0
   1044   1043   1054   1076   5     0.00000    30.33400     0.00000  0.0
   1043   1044   1045   1066   5     0.00000     0.00000     3.61498  0.0
   1043   1044   1045   1067   5     0.00000     0.00000     3.61498  0.0
   1043   1044   1045   1068   5     0.00000     0.00000     3.61498  0.0
   1046   1044   1045   1066   5     0.00000     0.00000     1.25520  0.0
   1046   1044   1045   1067   5     0.00000     0.00000     1.25520  0.0
   1046   1044   1045   1068   5     0.00000     0.00000     1.25520  0.0
   1047   1044   1045   1066   5     0.00000     0.00000     3.61498  0.0
   1047   1044   1045   1067   5     0.00000     0.00000     3.61498  0.0
   1047   1044   1045   1068   5     0.00000     0.00000     3.61498  0.0
   1043   1044   1046   1069   5     0.00000     0.00000     3.61498  0.0
   1043   1044   1046   1070   5     0.00000     0.00000     3.61498  0.0
   1043   1044   1046   1071   5     0.00000     0.00000     3.61498  0.0
   1045   1044   1046   1069   5     0.00000     0.00000     1.25520  0.0
   1045   1044   1046   1070   5     0.00000     0.00000     1.25520  0.0
   1045   1044   1046   1071   5     0.00000     0.00000     1.25520  0.0
   1047   1044   1046   1069   5     0.00000     0.00000     3.61498  0.0
   1047   1044   1046   1070   5     0.00000     0.00000     3.61498  0.0
   1047   1044   1046   1071   5     0.00000     0.00000     3.61498  0.0
   1043   1044   1047   1048   5     0.00000     0.35982     0.00000  0.0
   1043   1044   1047   1053   5     0.00000     0.35982     0.00000  0.0
   1045   1044   1047   1048   5     0.00000     0.34727     0.00000  0.0
   1045   1044   1047   1053   5     0.00000     0.34727     0.00000  0.0
   1046   1044   1047   1048   5     0.00000     0.34727     0.00000  0.0
   1046   1044   1047   1053   5     0.00000     0.34727     0.00000  0.0
   1044   1047   1048   1049   5     0.00000    30.33400     0.00000  0.0
   1044   1047   1048   1072   5     0.00000    30.33400     0.00000  0.0
   1053   1047   1048   1049   5     0.00000    30.33400     0.00000  0.0
   1053   1047   1048   1072   5     0.00000    30.33400     0.00000  0.0
   1044   1047   1053   1052   5     0.00000    30.33400     0.00000  0.0
   1044   1047   1053   1075   5     0.00000    30.33400     0.00000  0.0
   1048   1047   1053   1052   5     0.00000    30.33400     0.00000  0.0
   1048   1047   1053   1075   5     0.00000    30.33400     0.00000  0.0
   1047   1048   1049   1050   5     0.00000    30.33400     0.00000  0.0
   1047   1048   1049   1073   5     0.00000    30.33400     0.00000  0.0
   1072   1048   1049   1050   5     0.00000    30.33400     0.00000  0.0
   1072   1048   1049   1073   5     0.00000    30.33400     0.00000  0.0
   1048   1049   1050   1051   5     0.00000    30.33400     0.00000  0.0
   1048   1049   1050   1052   5     0.00000    30.33400     0.00000  0.0
   1073   1049   1050   1051   5     0.00000    30.33400     0.00000  0.0
   1073   1049   1050   1052   5     0.00000    30.33400     0.00000  0.0
   1049   1050   1051   1082   5     0.00000     7.03749     0.00000  0.0
   1052   1050   1051   1082   5     0.00000     7.03749     0.00000  0.0
   1049   1050   1052   1053   5     0.00000    30.33400     0.00000  0.0
   1049   1050   1052   1074   5     0.00000    30.33400     0.00000  0.0
   1051   1050   1052   1053   5     0.00000    30.33400     0.00000  0.0
   1051   1050   1052   1074   5     0.00000    30.33400     0.00000  0.0
   1050   1052   1053   1047   5     0.00000    30.33400     0.00000  0.0
   1050   1052   1053   1075   5     0.00000    30.33400     0.00000  0.0
   1074   1052   1053   1047   5     0.00000    30.33400     0.00000  0.0
   1074   1052   1053   1075   5     0.00000    30.33400     0.00000  0.0
   1043   1054   1055   1040   5     0.00000    30.33400     0.00000  0.0
   1043   1054   1055   1077   5     0.00000    30.33400     0.00000  0.0
   1076   1054   1055   1040   5     0.00000    30.33400     0.00000  0.0
   1076   1054   1055   1077   5     0.00000    30.33400     0.00000  0.0
   1038   1056   1057   1035   5     0.00000    30.33400     0.00000  0.0
   1038   1056   1057   1079   5     0.00000    30.33400     0.00000  0.0
   1078   1056   1057   1035   5     0.00000    30.33400     0.00000  0.0
   1078   1056   1057   1079   5     0.00000    30.33400     0.00000  0.0
   1031   1058   1059   1028   5     0.00000    30.33400     0.00000  0.0
   1031   1058   1059   1081   5     0.00000    30.33400     0.00000  0.0
   1080   1058   1059   1028   5     0.00000    30.33400     0.00000  0.0
   1080   1058   1059   1081   5     0.00000    30.33400     0.00000  0.0

[ dihedrals ]
; Improper dihedrals
; h   i   j   k   funct
      2     32      1     55   5     0.00000     9.20480     0.00000  0.0
      1      3      2     33   5     0.00000     9.20480     0.00000  0.0
      2      4      3     34   5     0.00000     9.20480     0.00000  0.0
      3      5      4     31   5     0.00000    33.47200     0.00000  0.0
      5      9      8     30   5     0.00000    33.47200     0.00000  0.0
      8     10      9     35   5     0.00000     9.20480     0.00000  0.0
      9     11     10     36   5     0.00000     9.20480     0.00000  0.0
     10     12     11     29   5     0.00000    33.47200     0.00000  0.0
     12     14     13     28   5     0.00000    33.47200     0.00000  0.0
     13     15     14     37   5     0.00000     9.20480     0.00000  0.0
     14     16     15     38   5     0.00000     9.20480     0.00000  0.0
     15     17     16     27   5     0.00000    33.47200     0.00000  0.0
     17     21     20     26   5     0.00000    33.47200     0.00000  0.0
     20     22     21     45   5     0.00000     9.20480     0.00000  0.0
     21     23     22     46   5     0.00000     9.20480     0.00000  0.0
     22     24     23     25   5     0.00000    33.47200     0.00000  0.0
     23     26     25     47   5     0.00000     9.20480     0.00000  0.0
     20     25     26     48   5     0.00000     9.20480     0.00000  0.0
     16     28     27     49   5     0.00000     9.20480     0.00000  0.0
     13     27     28     50   5     0.00000     9.20480     0.00000  0.0
     11     30     29     51   5     0.00000     9.20480     0.00000  0.0
      8     29     30     52   5     0.00000     9.20480     0.00000  0.0
      4     32     31     53   5     0.00000     9.20480     0.00000  0.0
      1     31     32     54   5     0.00000     9.20480     0.00000  0.0
     24     57     56     87   5     0.00000    33.47200     0.00000  0.0
     56     58     57     88   5     0.00000     9.20480     0.00000  0.0
     57     59     58     89   5     0.00000     9.20480     0.00000  0.0
     58     60     59     86   5     0.00000    33.47200     0.00000  0.0
     60     64     63     85   5     0.00000    33.47200     0.00000  0.0
     63     65     64     90   5     0.00000     9.20480     0.00000  0.0
     64     66     65     91   5     0.00000     9.20480     0.00000  0.0
     65     67     66     84   5     0.00000    33.47200     0.00000  0.0
     67     69     68     83   5     0.00000    33.47200     0.00000  0.0
     68     70     69     92   5     0.00000     9.20480     0.00000  0.0
     69     71     70     93   5     0.00000     9.20480     0.00000  0.0
     70     72     71     82   5     0.00000    33.47200     0.00000  0.0
     72     76     75     81   5     0.00000    33.47200     0.00000  0.0
     75     77     76    100   5     0.00000     9.20480     0.00000  0.0
     76     78     77    101   5     0.00000     9.20480     0.00000  0.0
     77     79     78     80   5     0.00000    33.47200     0.00000  0.0
     78     81     80    102   5     0.00000     9.20480     0.00000  0.0
     75     80     81    103   5     0.00000     9.20480     0.00000  0.0
     71     83     82    104   5     0.00000     9.20480     0.00000  0.0
     68     82     83    105   5     0.00000     9.20480     0.00000  0.0
     66     85     84    106   5     0.00000     9.20480     0.00000  0.0
     63     84     85    107   5     0.00000     9.20480     0.00000  0.0
     59     87     86    108   5     0.00000     9.20480     0.00000  0.0
     56     86     87    109   5     0.00000     9.20480     0.00000  0.0
     79    111    110    141   5     0.00000    33.47200     0.00000  0.0
    110    112    111    142   5     0.00000     9.20480     0.00000  0.0
    111    113    112    143   5     0.00000     9.20480     0.00000  0.0
    112    114    113    140   5     0.00000    33.47200     0.00000  0.0
    114    118    117    139   5     0.00000    33.47200     0.00000  0.0
    117    119    118    144   5     0.00000     9.20480     0.00000  0.0
    118    120    119    145   5     0.00000     9.20480     0.00000  0.0
    119    121    120    138   5     0.00000    33.47200     0.00000  0.0
    121    123    122    137   5     0.00000    33.47200     0.00000  0.0
    122    124    123    146   5     0.00000     9.20480     0.00000  0.0
    123    125    124    147   5     0.00000     9.20480     0.00000  0.0
    124    126    125    136   5     0.00000    33.47200     0.00000  0.0
    126    130    129    135   5     0.00000    33.47200     0.00000  0.0
    129    131    130    154   5     0.00000     9.20480     0.00000  0.0
    130    132    131    155   5     0.00000     9.20480     0.00000  0.0
    131    133    132    134   5     0.00000    33.47200     0.00000  0.0
    132    135    134    156   5     0.00000     9.20480     0.00000  0.0
    129    134    135    157   5     0.00000     9.20480     0.00000  0.0
    125    137    136    158   5     0.00000     9.20480     0.00000  0.0
    122    136    137    159   5     0.00000     9.20480     0.00000  0.0
    120    139    138    160   5     0.00000     9.20480     0.00000  0.0
    117    138    139    161   5     0.00000     9.20480     0.00000  0.0
    113    141    140    162   5     0.00000     9.20480     0.00000  0.0
    110    140    141    163   5     0.00000     9.20480     0.00000  0.0
    133    165    164    195   5     0.00000    33.47200     0.00000  0.0
    164    166    165    196   5     0.00000     9.20480     0.00000  0.0
    165    167    166    197   5     0.00000     9.20480     0.00000  0.0
    166    168    167    194   5     0.00000    33.47200     0.00000  0.0
    168    172    171    193   5     0.00000    33.47200     0.00000  0.0
    171    173    172    198   5     0.00000     9.20480     0.00000  0.0
    172    174    173    199   5     0.00000     9.20480     0.00000  0.0
    173    175    174    192   5     0.00000    33.47200     0.00000  0.0
    175    177    176    191   5     0.00000    33.47200     0.00000  0.0
    176    178    177    200   5     0.00000     9.20480     0.00000  0.0
    177    179    178    201   5     0.00000     9.20480     0.00000  0.0
    178    180    179    190   5     0.00000    33.47200     0.00000  0.0
    180    184    183    189   5     0.00000    33.47200     0.00000  0.0
    183    185    184    208   5     0.00000     9.20480     0.00000  0.0
    184    186    185    209   5     0.00000     9.20480     0.00000  0.0
    185    187    186    188   5     0.00000    33.47200     0.00000  0.0
    186    189    188    210   5     0.00000     9.20480     0.00000  0.0
    183    188    189    211   5     0.00000     9.20480     0.00000  0.0
    179    191    190    212   5     0.00000     9.20480     0.00000  0.0
    176    190    191    213   5     0.00000     9.20480     0.00000  0.0
    174    193    192    214   5     0.00000     9.20480     0.00000  0.0
    171    192    193    215   5     0.00000     9.20480     0.00000  0.0
    167    195    194    216   5     0.00000     9.20480     0.00000  0.0
    164    194    195    217   5     0.00000     9.20480     0.00000  0.0
    187    219    218    249   5     0.00000    33.47200     0.00000  0.0
    218    220    219    250   5     0.00000     9.20480     0.00000  0.0
    219    221    220    251   5     0.00000     9.20480     0.00000  0.0
    220    222    221    248   5     0.00000    33.47200     0.00000  0.0
    222    226    225    247   5     0.00000    33.47200     0.00000  0.0
    225    227    226    252   5     0.00000     9.20480     0.00000  0.0
    226    228    227    253   5     0.00000     9.20480     0.00000  0.0
    227    229    228    246   5     0.00000    33.47200     0.00000  0.0
    229    231    230    245   5     0.00000    33.47200     0.00000  0.0
    230    232    231    254   5     0.00000     9.20480     0.00000  0.0
    231    233    232    255   5     0.00000     9.20480     0.00000  0.0
    232    234    233    244   5     0.00000    33.47200     0.00000  0.0
    234    238    237    243   5     0.00000    33.47200     0.00000  0.0
    237    239    238    262   5     0.00000     9.20480     0.00000  0.0
    238    240    239    263   5     0.00000     9.20480     0.00000  0.0
    239    241    240    242   5     0.00000    33.47200     0.00000  0.0
    240    243    242    264   5     0.00000     9.20480     0.00000  0.0
    237    242    243    265   5     0.00000     9.20480     0.00000  0.0
    233    245    244    266   5     0.00000     9.20480     0.00000  0.0
    230    244    245    267   5     0.00000     9.20480     0.00000  0.0
    228    247    246    268   5     0.00000     9.20480     0.00000  0.0
    225    246    247    269   5     0.00000     9.20480     0.00000  0.0
    221    249    248    270   5     0.00000     9.20480     0.00000  0.0
    218    248    249    271   5     0.00000     9.20480     0.00000  0.0
    241    273    272    303   5     0.00000    33.47200     0.00000  0.0
    272    274    273    304   5     0.00000     9.20480     0.00000  0.0
    273    275    274    305   5     0.00000     9.20480     0.00000  0.0
    274    276    275    302   5     0.00000    33.47200     0.00000  0.0
    276    280    279    301   5     0.00000    33.47200     0.00000  0.0
    279    281    280    306   5     0.00000     9.20480     0.00000  0.0
    280    282    281    307   5     0.00000     9.20480     0.00000  0.0
    281    283    282    300   5     0.00000    33.47200     0.00000  0.0
    283    285    284    299   5     0.00000    33.47200     0.00000  0.0
    284    286    285    308   5     0.00000     9.20480     0.00000  0.0
    285    287    286    309   5     0.00000     9.20480     0.00000  0.0
    286    288    287    298   5     0.00000    33.47200     0.00000  0.0
    288    292    291    297   5     0.00000    33.47200     0.00000  0.0
    291    293    292    316   5     0.00000     9.20480     0.00000  0.0
    292    294    293    317   5     0.00000     9.20480     0.00000  0.0
    293    295    294    296   5     0.00000    33.47200     0.00000  0.0
    294    297    296    318   5     0.00000     9.20480     0.00000  0.0
    291    296    297    319   5     0.00000     9.20480     0.00000  0.0
    287    299    298    320   5     0.00000     9.20480     0.00000  0.0
    284    298    299    321   5     0.00000     9.20480     0.00000  0.0
    282    301    300    322   5     0.00000     9.20480     0.00000  0.0
    279    300    301    323   5     0.00000     9.20480     0.00000  0.0
    275    303    302    324   5     0.00000     9.20480     0.00000  0.0
    272    302    303    325   5     0.00000     9.20480     0.00000  0.0
    295    327    326    357   5     0.00000    33.47200     0.00000  0.0
    326    328    327    358   5     0.00000     9.20480     0.00000  0.0
    327    329    328    359   5     0.00000     9.20480     0.00000  0.0
    328    330    329    356   5     0.00000    33.47200     0.00000  0.0
    330    334    333    355   5     0.00000    33.47200     0.00000  0.0
    333    335    334    360   5     0.00000     9.20480     0.00000  0.0
    334    336    335    361   5     0.00000     9.20480     0.00000  0.0
    335    337    336    354   5     0.00000    33.47200     0.00000  0.0
    337    339    338    353   5     0.00000    33.47200     0.00000  0.0
    338    340    339    362   5     0.00000     9.20480     0.00000  0.0
    339    341    340    363   5     0.00000     9.20480     0.00000  0.0
    340    342    341    352   5     0.00000    33.47200     0.00000  0.0
    342    346    345    351   5     0.00000    33.47200     0.00000  0.0
    345    347    346    370   5     0.00000     9.20480     0.00000  0.0
    346    348    347    371   5     0.00000     9.20480     0.00000  0.0
    347    349    348    350   5     0.00000    33.47200     0.00000  0.0
    348    351    350    372   5     0.00000     9.20480     0.00000  0.0
    345    350    351    373   5     0.00000     9.20480     0.00000  0.0
    341    353    352    374   5     0.00000     9.20480     0.00000  0.0
    338    352    353    375   5     0.00000     9.20480     0.00000  0.0
    336    355    354    376   5     0.00000     9.20480     0.00000  0.0
    333    354    355    377   5     0.00000     9.20480     0.00000  0.0
    329    357    356    378   5     0.00000     9.20480     0.00000  0.0
    326    356    357    379   5     0.00000     9.20480     0.00000  0.0
    349    381    380    411   5     0.00000    33.47200     0.00000  0.0
    380    382    381    412   5     0.00000     9.20480     0.00000  0.0
    381    383    382    413   5     0.00000     9.20480     0.00000  0.0
    382    384    383    410   5     0.00000    33.47200     0.00000  0.0
    384    388    387    409   5     0.00000    33.47200     0.00000  0.0
    387    389    388    414   5     0.00000     9.20480     0.00000  0.0
    388    390    389    415   5     0.00000     9.20480     0.00000  0.0
    389    391    390    408   5     0.00000    33.47200     0.00000  0.0
    391    393    392    407   5     0.00000    33.47200     0.00000  0.0
    392    394    393    416   5     0.00000     9.20480     0.00000  0.0
    393    395    394    417   5     0.00000     9.20480     0.00000  0.0
    394    396    395    406   5     0.00000    33.47200     0.00000  0.0
    396    400    399    405   5     0.00000    33.47200     0.00000  0.0
    399    401    400    424   5     0.00000     9.20480     0.00000  0.0
    400    402    401    425   5     0.00000     9.20480     0.00000  0.0
    401    403    402    404   5     0.00000    33.47200     0.00000  0.0
    402    405    404    426   5     0.00000     9.20480     0.00000  0.0
    399    404    405    427   5     0.00000     9.20480     0.00000  0.0
    395    407    406    428   5     0.00000     9.20480     0.00000  0.0
    392    406    407    429   5     0.00000     9.20480     0.00000  0.0
    390    409    408    430   5     0.00000     9.20480     0.00000  0.0
    387    408    409    431   5     0.00000     9.20480     0.00000  0.0
    383    411    410    432   5     0.00000     9.20480     0.00000  0.0
    380    410    411    433   5     0.00000     9.20480     0.00000  0.0
    403    435    434    465   5     0.00000    33.47200     0.00000  0.0
    434    436    435    466   5     0.00000     9.20480     0.00000  0.0
    435    437    436    467   5     0.00000     9.20480     0.00000  0.0
    436    438    437    464   5     0.00000    33.47200     0.00000  0.0
    438    442    441    463   5     0.00000    33.47200     0.00000  0.0
    441    443    442    468   5     0.00000     9.20480     0.00000  0.0
    442    444    443    469   5     0.00000     9.20480     0.00000  0.0
    443    445    444    462   5     0.00000    33.47200     0.00000  0.0
    445    447    446    461   5     0.00000    33.47200     0.00000  0.0
    446    448    447    470   5     0.00000     9.20480     0.00000  0.0
    447    449    448    471   5     0.00000     9.20480     0.00000  0.0
    448    450    449    460   5     0.00000    33.47200     0.00000  0.0
    450    454    453    459   5     0.00000    33.47200     0.00000  0.0
    453    455    454    478   5     0.00000     9.20480     0.00000  0.0
    454    456    455    479   5     0.00000     9.20480     0.00000  0.0
    455    457    456    458   5     0.00000    33.47200     0.00000  0.0
    456    459    458    480   5     0.00000     9.20480     0.00000  0.0
    453    458    459    481   5     0.00000     9.20480     0.00000  0.0
    449    461    460    482   5     0.00000     9.20480     0.00000  0.0
    446    460    461    483   5     0.00000     9.20480     0.00000  0.0
    444    463    462    484   5     0.00000     9.20480     0.00000  0.0
    441    462    463    485   5     0.00000     9.20480     0.00000  0.0
    437    465    464    486   5     0.00000     9.20480     0.00000  0.0
    434    464    465    487   5     0.00000     9.20480     0.00000  0.0
    457    489    488    519   5     0.00000    33.47200     0.00000  0.0
    488    490    489    520   5     0.00000     9.20480     0.00000  0.0
    489    491    490    521   5     0.00000     9.20480     0.00000  0.0
    490    492    491    518   5     0.00000    33.47200     0.00000  0.0
    492    496    495    517   5     0.00000    33.47200     0.00000  0.0
    495    497    496    522   5     0.00000     9.20480     0.00000  0.0
    496    498    497    523   5     0.00000     9.20480     0.00000  0.0
    497    499    498    516   5     0.00000    33.47200     0.00000  0.0
    499    501    500    515   5     0.00000    33.47200     0.00000  0.0
    500    502    501    524   5     0.00000     9.20480     0.00000  0.0
    501    503    502    525   5     0.00000     9.20480     0.00000  0.0
    502    504    503    514   5     0.00000    33.47200     0.00000  0.0
    504    508    507    513   5     0.00000    33.47200     0.00000  0.0
    507    509    508    532   5     0.00000     9.20480     0.00000  0.0
    508    510    509    533   5     0.00000     9.20480     0.00000  0.0
    509    511    510    512   5     0.00000    33.47200     0.00000  0.0
    510    513    512    534   5     0.00000     9.20480     0.00000  0.0
    507    512    513    535   5     0.00000     9.20480     0.00000  0.0
    503    515    514    536   5     0.00000     9.20480     0.00000  0.0
    500    514    515    537   5     0.00000     9.20480     0.00000  0.0
    498    517    516    538   5     0.00000     9.20480     0.00000  0.0
    495    516    517    539   5     0.00000     9.20480     0.00000  0.0
    491    519    518    540   5     0.00000     9.20480     0.00000  0.0
    488    518    519    541   5     0.00000     9.20480     0.00000  0.0
    511    543    542    573   5     0.00000    33.47200     0.00000  0.0
    542    544    543    574   5     0.00000     9.20480     0.00000  0.0
    543    545    544    575   5     0.00000     9.20480     0.00000  0.0
    544    546    545    572   5     0.00000    33.47200     0.00000  0.0
    546    550    549    571   5     0.00000    33.47200     0.00000  0.0
    549    551    550    576   5     0.00000     9.20480     0.00000  0.0
    550    552    551    577   5     0.00000     9.20480     0.00000  0.0
    551    553    552    570   5     0.00000    33.47200     0.00000  0.0
    553    555    554    569   5     0.00000    33.47200     0.00000  0.0
    554    556    555    578   5     0.00000     9.20480     0.00000  0.0
    555    557    556    579   5     0.00000     9.20480     0.00000  0.0
    556    558    557    568   5     0.00000    33.47200     0.00000  0.0
    558    562    561    567   5     0.00000    33.47200     0.00000  0.0
    561    563    562    586   5     0.00000     9.20480     0.00000  0.0
    562    564    563    587   5     0.00000     9.20480     0.00000  0.0
    563    565    564    566   5     0.00000    33.47200     0.00000  0.0
    564    567    566    588   5     0.00000     9.20480     0.00000  0.0
    561    566    567    589   5     0.00000     9.20480     0.00000  0.0
    557    569    568    590   5     0.00000     9.20480     0.00000  0.0
    554    568    569    591   5     0.00000     9.20480     0.00000  0.0
    552    571    570    592   5     0.00000     9.20480     0.00000  0.0
    549    570    571    593   5     0.00000     9.20480     0.00000  0.0
    545    573    572    594   5     0.00000     9.20480     0.00000  0.0
    542    572    573    595   5     0.00000     9.20480     0.00000  0.0
    565    597    596    627   5     0.00000    33.47200     0.00000  0.0
    596    598    597    628   5     0.00000     9.20480     0.00000  0.0
    597    599    598    629   5     0.00000     9.20480     0.00000  0.0
    598    600    599    626   5     0.00000    33.47200     0.00000  0.0
    600    604    603    625   5     0.00000    33.47200     0.00000  0.0
    603    605    604    630   5     0.00000     9.20480     0.00000  0.0
    604    606    605    631   5     0.00000     9.20480     0.00000  0.0
    605    607    606    624   5     0.00000    33.47200     0.00000  0.0
    607    609    608    623   5     0.00000    33.47200     0.00000  0.0
    608    610    609    632   5     0.00000     9.20480     0.00000  0.0
    609    611    610    633   5     0.00000     9.20480     0.00000  0.0
    610    612    611    622   5     0.00000    33.47200     0.00000  0.0
    612    616    615    621   5     0.00000    33.47200     0.00000  0.0
    615    617    616    640   5     0.00000     9.20480     0.00000  0.0
    616    618    617    641   5     0.00000     9.20480     0.00000  0.0
    617    619    618    620   5     0.00000    33.47200     0.00000  0.0
    618    621    620    642   5     0.00000     9.20480     0.00000  0.0
    615    620    621    643   5     0.00000     9.20480     0.00000  0.0
    611    623    622    644   5     0.00000     9.20480     0.00000  0.0
    608    622    623    645   5     0.00000     9.20480     0.00000  0.0
    606    625    624    646   5     0.00000     9.20480     0.00000  0.0
    603    624    625    647   5     0.00000     9.20480     0.00000  0.0
    599    627    626    648   5     0.00000     9.20480     0.00000  0.0
    596    626    627    649   5     0.00000     9.20480     0.00000  0.0
    619    651    650    681   5     0.00000    33.47200     0.00000  0.0
    650    652    651    682   5     0.00000     9.20480     0.00000  0.0
    651    653    652    683   5     0.00000     9.20480     0.00000  0.0
    652    654    653    680   5     0.00000    33.47200     0.00000  0.0
    654    658    657    679   5     0.00000    33.47200     0.00000  0.0
    657    659    658    684   5     0.00000     9.20480     0.00000  0.0
    658    660    659    685   5     0.00000     9.20480     0.00000  0.0
    659    661    660    678   5     0.00000    33.47200     0.00000  0.0
    661    663    662    677   5     0.00000    33.47200     0.00000  0.0
    662    664    663    686   5     0.00000     9.20480     0.00000  0.0
    663    665    664    687   5     0.00000     9.20480     0.00000  0.0
    664    666    665    676   5     0.00000    33.47200     0.00000  0.0
    666    670    669    675   5     0.00000    33.47200     0.00000  0.0
    669    671    670    694   5     0.00000     9.20480     0.00000  0.0
    670    672    671    695   5     0.00000     9.20480     0.00000  0.0
    671    673    672    674   5     0.00000    33.47200     0.00000  0.0
    672    675    674    696   5     0.00000     9.20480     0.00000  0.0
    669    674    675    697   5     0.00000     9.20480     0.00000  0.0
    665    677    676    698   5     0.00000     9.20480     0.00000  0.0
    662    676    677    699   5     0.00000     9.20480     0.00000  0.0
    660    679    678    700   5     0.00000     9.20480     0.00000  0.0
    657    678    679    701   5     0.00000     9.20480     0.00000  0.0
    653    681    680    702   5     0.00000     9.20480     0.00000  0.0
    650    680    681    703   5     0.00000     9.20480     0.00000  0.0
    673    705    704    735   5     0.00000    33.47200     0.00000  0.0
    704    706    705    736   5     0.00000     9.20480     0.00000  0.0
    705    707    706    737   5     0.00000     9.20480     0.00000  0.0
    706    708    707    734   5     0.00000    33.47200     0.00000  0.0
    708    712    711    733   5     0.00000    33.47200     0.00000  0.0
    711    713    712    738   5     0.00000     9.20480     0.00000  0.0
    712    714    713    739   5     0.00000     9.20480     0.00000  0.0
    713    715    714    732   5     0.00000    33.47200     0.00000  0.0
    715    717    716    731   5     0.00000    33.47200     0.00000  0.0
    716    718    717    740   5     0.00000     9.20480     0.00000  0.0
    717    719    718    741   5     0.00000     9.20480     0.00000  0.0
    718    720    719    730   5     0.00000    33.47200     0.00000  0.0
    720    724    723    729   5     0.00000    33.47200     0.00000  0.0
    723    725    724    748   5     0.00000     9.20480     0.00000  0.0
    724    726    725    749   5     0.00000     9.20480     0.00000  0.0
    725    727    726    728   5     0.00000    33.47200     0.00000  0.0
    726    729    728    750   5     0.00000     9.20480     0.00000  0.0
    723    728    729    751   5     0.00000     9.20480     0.00000  0.0
    719    731    730    752   5     0.00000     9.20480     0.00000  0.0
    716    730    731    753   5     0.00000     9.20480     0.00000  0.0
    714    733    732    754   5     0.00000     9.20480     0.00000  0.0
    711    732    733    755   5     0.00000     9.20480     0.00000  0.0
    707    735    734    756   5     0.00000     9.20480     0.00000  0.0
    704    734    735    757   5     0.00000     9.20480     0.00000  0.0
    727    759    758    789   5     0.00000    33.47200     0.00000  0.0
    758    760    759    790   5     0.00000     9.20480     0.00000  0.0
    759    761    760    791   5     0.00000     9.20480     0.00000  0.0
    760    762    761    788   5     0.00000    33.47200     0.00000  0.0
    762    766    765    787   5     0.00000    33.47200     0.00000  0.0
    765    767    766    792   5     0.00000     9.20480     0.00000  0.0
    766    768    767    793   5     0.00000     9.20480     0.00000  0.0
    767    769    768    786   5     0.00000    33.47200     0.00000  0.0
    769    771    770    785   5     0.00000    33.47200     0.00000  0.0
    770    772    771    794   5     0.00000     9.20480     0.00000  0.0
    771    773    772    795   5     0.00000     9.20480     0.00000  0.0
    772    774    773    784   5     0.00000    33.47200     0.00000  0.0
    774    778    777    783   5     0.00000    33.47200     0.00000  0.0
    777    779    778    802   5     0.00000     9.20480     0.00000  0.0
    778    780    779    803   5     0.00000     9.20480     0.00000  0.0
    779    781    780    782   5     0.00000    33.47200     0.00000  0.0
    780    783    782    804   5     0.00000     9.20480     0.00000  0.0
    777    782    783    805   5     0.00000     9.20480     0.00000  0.0
    773    785    784    806   5     0.00000     9.20480     0.00000  0.0
    770    784    785    807   5     0.00000     9.20480     0.00000  0.0
    768    787    786    808   5     0.00000     9.20480     0.00000  0.0
    765    786    787    809   5     0.00000     9.20480     0.00000  0.0
    761    789    788    810   5     0.00000     9.20480     0.00000  0.0
    758    788    789    811   5     0.00000     9.20480     0.00000  0.0
    781    813    812    843   5     0.00000    33.47200     0.00000  0.0
    812    814    813    844   5     0.00000     9.20480     0.00000  0.0
    813    815    814    845   5     0.00000     9.20480     0.00000  0.0
    814    816    815    842   5     0.00000    33.47200     0.00000  0.0
    816    820    819    841   5     0.00000    33.47200     0.00000  0.0
    819    821    820    846   5     0.00000     9.20480     0.00000  0.0
    820    822    821    847   5     0.00000     9.20480     0.00000  0.0
    821    823    822    840   5     0.00000    33.47200     0.00000  0.0
    823    825    824    839   5     0.00000    33.47200     0.00000  0.0
    824    826    825    848   5     0.00000     9.20480     0.00000  0.0
    825    827    826    849   5     0.00000     9.20480     0.00000  0.0
    826    828    827    838   5     0.00000    33.47200     0.00000  0.0
    828    832    831    837   5     0.00000    33.47200     0.00000  0.0
    831    833    832    856   5     0.00000     9.20480     0.00000  0.0
    832    834    833    857   5     0.00000     9.20480     0.00000  0.0
    833    835    834    836   5     0.00000    33.47200     0.00000  0.0
    834    837    836    858   5     0.00000     9.20480     0.00000  0.0
    831    836    837    859   5     0.00000     9.20480     0.00000  0.0
    827    839    838    860   5     0.00000     9.20480     0.00000  0.0
    824    838    839    861   5     0.00000     9.20480     0.00000  0.0
    822    841    840    862   5     0.00000     9.20480     0.00000  0.0
    819    840    841    863   5     0.00000     9.20480     0.00000  0.0
    815    843    842    864   5     0.00000     9.20480     0.00000  0.0
    812    842    843    865   5     0.00000     9.20480     0.00000  0.0
    835    867    866    897   5     0.00000    33.47200     0.00000  0.0
    866    868    867    898   5     0.00000     9.20480     0.00000  0.0
    867    869    868    899   5     0.00000     9.20480     0.00000  0.0
    868    870    869    896   5     0.00000    33.47200     0.00000  0.0
    870    874    873    895   5     0.00000    33.47200     0.00000  0.0
    873    875    874    900   5     0.00000     9.20480     0.00000  0.0
    874    876    875    901   5     0.00000     9.20480     0.00000  0.0
    875    877    876    894   5     0.00000    33.47200     0.00000  0.0
    877    879    878    893   5     0.00000    33.47200     0.00000  0.0
    878    880    879    902   5     0.00000     9.20480     0.00000  0.0
    879    881    880    903   5     0.00000     9.20480     0.00000  0.0
    880    882    881    892   5     0.00000    33.47200     0.00000  0.0
    882    886    885    891   5     0.00000    33.47200     0.00000  0.0
    885    887    886    910   5     0.00000     9.20480     0.00000  0.0
    886    888    887    911   5     0.00000     9.20480     0.00000  0.0
    887    889    888    890   5     0.00000    33.47200     0.00000  0.0
    888    891    890    912   5     0.00000     9.20480     0.00000  0.0
    885    890    891    913   5     0.00000     9.20480     0.00000  0.0
    881    893    892    914   5     0.00000     9.20480     0.00000  0.0
    878    892    893    915   5     0.00000     9.20480     0.00000  0.0
    876    895    894    916   5     0.00000     9.20480     0.00000  0.0
    873    894    895    917   5     0.00000     9.20480     0.00000  0.0
    869    897    896    918   5     0.00000     9.20480     0.00000  0.0
    866    896    897    919   5     0.00000     9.20480     0.00000  0.0
    889    921    920    951   5     0.00000    33.47200     0.00000  0.0
    920    922    921    952   5     0.00000     9.20480     0.00000  0.0
    921    923    922    953   5     0.00000     9.20480     0.00000  0.0
    922    924    923    950   5     0.00000    33.47200     0.00000  0.0
    924    928    927    949   5     0.00000    33.47200     0.00000  0.0
    927    929    928    954   5     0.00000     9.20480     0.00000  0.0
    928    930    929    955   5     0.00000     9.20480     0.00000  0.0
    929    931    930    948   5     0.00000    33.47200     0.00000  0.0
    931    933    932    947   5     0.00000    33.47200     0.00000  0.0
    932    934    933    956   5     0.00000     9.20480     0.00000  0.0
    933    935    934    957   5     0.00000     9.20480     0.00000  0.0
    934    936    935    946   5     0.00000    33.47200     0.00000  0.0
    936    940    939    945   5     0.00000    33.47200     0.00000  0.0
    939    941    940    964   5     0.00000     9.20480     0.00000  0.0
    940    942    941    965   5     0.00000     9.20480     0.00000  0.0
    941    943    942    944   5     0.00000    33.47200     0.00000  0.0
    942    945    944    966   5     0.00000     9.20480     0.00000  0.0
    939    944    945    967   5     0.00000     9.20480     0.00000  0.0
    935    947    946    968   5     0.00000     9.20480     0.00000  0.0
    932    946    947    969   5     0.00000     9.20480     0.00000  0.0
    930    949    948    970   5     0.00000     9.20480     0.00000  0.0
    927    948    949    971   5     0.00000     9.20480     0.00000  0.0
    923    951    950    972   5     0.00000     9.20480     0.00000  0.0
    920    950    951    973   5     0.00000     9.20480     0.00000  0.0
    943    975    974   1005   5     0.00000    33.47200     0.00000  0.0
    974    976    975   1006   5     0.00000     9.20480     0.00000  0.0
    975    977    976   1007   5     0.00000     9.20480     0.00000  0.0
    976    978    977   1004   5     0.00000    33.47200     0.00000  0.0
    978    982    981   1003   5     0.00000    33.47200     0.00000  0.0
    981    983    982   1008   5     0.00000     9.20480     0.00000  0.0
    982    984    983   1009   5     0.00000     9.20480     0.00000  0.0
    983    985    984   1002   5     0.00000    33.47200     0.00000  0.0
    985    987    986   1001   5     0.00000    33.47200     0.00000  0.0
    986    988    987   1010   5     0.00000     9.20480     0.00000  0.0
    987    989    988   1011   5     0.00000     9.20480     0.00000  0.0
    988    990    989   1000   5     0.00000    33.47200     0.00000  0.0
    990    994    993    999   5     0.00000    33.47200     0.00000  0.0
    993    995    994   1018   5     0.00000     9.20480     0.00000  0.0
    994    996    995   1019   5     0.00000     9.20480     0.00000  0.0
    995    997    996    998   5     0.00000    33.47200     0.00000  0.0
    996    999    998   1020   5     0.00000     9.20480     0.00000  0.0
    993    998    999   1021   5     0.00000     9.20480     0.00000  0.0
    989   1001   1000   1022   5     0.00000     9.20480     0.00000  0.0
    986   1000   1001   1023   5     0.00000     9.20480     0.00000  0.0
    984   1003   1002   1024   5     0.00000     9.20480     0.00000  0.0
    981   1002   1003   1025   5     0.00000     9.20480     0.00000  0.0
    977   1005   1004   1026   5     0.00000     9.20480     0.00000  0.0
    974   1004   1005   1027   5     0.00000     9.20480     0.00000  0.0
    997   1029   1028   1059   5     0.00000    33.47200     0.00000  0.0
   1028   1030   1029   1060   5     0.00000     9.20480     0.00000  0.0
   1029   1031   1030   1061   5     0.00000     9.20480     0.00000  0.0
   1030   1032   1031   1058   5     0.00000    33.47200     0.00000  0.0
   1032   1036   1035   1057   5     0.00000    33.47200     0.00000  0.0
   1035   1037   1036   1062   5     0.00000     9.20480     0.00000  0.0
   1036   1038   1037   1063   5     0.00000     9.20480     0.00000  0.0
   1037   1039   1038   1056   5     0.00000    33.47200     0.00000  0.0
   1039   1041   1040   1055   5     0.00000    33.47200     0.00000  0.0
   1040   1042   1041   1064   5     0.00000     9.20480     0.00000  0.0
   1041   1043   1042   1065   5     0.00000     9.20480     0.00000  0.0
   1042   1044   1043   1054   5     0.00000    33.47200     0.00000  0.0
   1044   1048   1047   1053   5     0.00000    33.47200     0.00000  0.0
   1047   1049   1048   1072   5     0.00000     9.20480     0.00000  0.0
   1048   1050   1049   1073   5     0.00000     9.20480     0.00000  0.0
   1049   1051   1050   1052   5     0.00000    33.47200     0.00000  0.0
   1050   1053   1052   1074   5     0.00000     9.20480     0.00000  0.0
   1047   1052   1053   1075   5     0.00000     9.20480     0.00000  0.0
   1043   1055   1054   1076   5     0.00000     9.20480     0.00000  0.0
   1040   1054   1055   1077   5     0.00000     9.20480     0.00000  0.0
   1038   1057   1056   1078   5     0.00000     9.20480     0.00000  0.0
   1035   1056   1057   1079   5     0.00000     9.20480     0.00000  0.0
   1031   1059   1058   1080   5     0.00000     9.20480     0.00000  0.0
   1028   1058   1059   1081   5     0.00000     9.20480     0.00000  0.0
