Control file title. For DL_FIELD 4.10
49910
    1MOL     C1    1   2.737   4.627   6.508  0.3234 -0.9094  0.0725
    1MOL     C2    2   2.706   4.532   6.614  0.2202  0.5052  0.5177
    1MOL     C3    3   2.609   4.431   6.587 -0.2343  0.7481  0.2202
    1MOL     C4    4   2.577   4.331   6.684 -0.2487 -0.2016  0.3124
    1MOL     C5    5   2.629   4.342   6.817  0.4356 -0.2646  0.8603
    1MOL    Cl6    6   2.607   4.224   6.940  0.1848 -0.2538  0.2713
    1MOL     C7    7   2.714   4.449   6.842  0.0674  1.2550  0.4076
    1MOL     C8    8   2.753   4.544   6.745 -0.3212 -0.2014 -0.0711
    1MOL     C9    9   2.621   4.713   6.458 -0.1816  0.0012  0.0130
    1MOL    H10   10   2.777   4.563   6.429  1.3474 -0.3532  0.1302
    1MOL    H11   11   2.581   4.429   6.483  1.9159  0.8849 -0.3912
    1MOL    H12   12   2.499   4.264   6.651 -0.2254 -0.5368  0.9210
    1MOL    H13   13   2.752   4.463   6.942 -1.2308  2.6158  0.7384
    1MOL    H14   14   2.817   4.626   6.772  0.1748 -0.8924  0.8699
    1MOL    H15   15   2.660   4.764   6.371 -0.1369  1.1180  0.6723
    1MOL    H16   16   2.541   4.644   6.429  0.0865 -1.1204  1.8092
    1MOL    H17   17   2.818   4.692   6.542  0.5466 -1.9551  1.5291
    1MOL    C18   18   2.566   4.811   6.558 -0.3986  0.2322  0.5356
    1MOL    C19   19   2.668   4.912   6.601 -0.1539 -0.5463  1.0606
    1MOL    C20   20   2.718   4.911   6.734 -0.4314  0.2619  0.1420
    1MOL    C21   21   2.809   5.011   6.772  0.1479 -0.1506  0.5075
    1MOL    C22   22   2.840   5.116   6.678  0.2010 -0.1934  0.4665
    1MOL   Cl23   23   2.968   5.226   6.728  0.5514  0.1137 -0.3158
    1MOL    C24   24   2.783   5.123   6.549 -0.5263 -0.2243  0.6156
    1MOL    C25   25   2.705   5.012   6.508 -0.0694 -0.6141  0.0339
    1MOL    C26   26   2.423   4.876   6.526 -0.7936 -0.2604  0.9804
    1MOL    H27   27   2.551   4.750   6.647  2.0633 -1.7503 -0.3606
    1MOL    H28   28   2.695   4.832   6.805 -0.4676  0.7471  0.6716
    1MOL    H29   29   2.851   5.009   6.871  0.4229 -0.2251  0.3923
    1MOL    H30   30   2.808   5.205   6.482 -3.5160  1.3524  1.3535
    1MOL    H31   31   2.659   5.008   6.410 -2.9377  2.6508  1.0991
    1MOL    H32   32   2.410   4.972   6.576 -0.7169 -0.2260  0.9348
    1MOL    H33   33   2.425   4.910   6.422  1.2278 -0.0559  1.0544
    1MOL    C34   34   2.295   4.798   6.560  0.0392  0.2094 -0.5561
    1MOL    C35   35   2.304   4.734   6.698 -1.1415  0.1749 -0.5038
    1MOL    C36   36   2.324   4.809   6.814 -0.4166  0.0057  0.5379
    1MOL    C37   37   2.342   4.752   6.942  0.4164  0.5082  0.1503
    1MOL    C38   38   2.343   4.612   6.953 -0.1021 -0.7359  0.1027
    1MOL   Cl39   39   2.364   4.531   7.108 -0.4386 -0.2638  0.0100
    1MOL    C40   40   2.316   4.534   6.838 -0.0531  0.3799  0.6606
    1MOL    C41   41   2.292   4.593   6.712 -0.0868  0.2404 -0.5079
    1MOL    C42   42   2.161   4.873   6.533 -0.3247  0.2215  0.0227
    1MOL    H43   43   2.304   4.709   6.498 -0.5345  0.5437 -1.1204
    1MOL    H44   44   2.335   4.916   6.808  0.7491 -0.1687 -0.6459
    1MOL    H45   45   2.378   4.809   7.027 -1.7299  0.8073  0.8794
    1MOL    H46   46   2.314   4.427   6.844  0.4032  0.3658  0.6255
    1MOL    H47   47   2.291   4.529   6.625  1.6321  0.3536 -0.6211
    1MOL    H48   48   2.076   4.844   6.596  0.7903 -2.1226  0.4553
    1MOL    H49   49   2.181   4.978   6.556  0.4538  0.3164 -1.0551
    1MOL    C50   50   2.107   4.872   6.396  0.1365  0.2938  0.1587
    1MOL    C51   51   2.066   4.732   6.352 -0.0689 -0.5174 -1.0783
    1MOL    C52   52   2.151   4.664   6.268  0.4058 -0.2891  0.2353
    1MOL    C53   53   2.119   4.533   6.223  0.7758 -0.0572 -0.1529
    1MOL    C54   54   1.994   4.477   6.264 -0.3624 -0.4713 -0.4077
    1MOL   Cl55   55   1.945   4.323   6.215 -0.0495 -0.1302 -0.2126
    1MOL    C56   56   1.904   4.550   6.348  0.2473  0.5200 -1.0470
    1MOL    C57   57   1.944   4.673   6.396 -0.3461  0.4563  0.7650
    1MOL    C58   58   1.996   4.978   6.379 -0.0752  0.0029  0.3997
    1MOL    H59   59   2.184   4.897   6.323 -0.0778  1.1199  0.2145
    1MOL    H60   60   2.239   4.720   6.240  1.1234 -0.2958  2.3273
    1MOL    H61   61   2.180   4.486   6.147 -0.4811 -3.7121  0.9995
    1MOL    H62   62   1.805   4.515   6.376  0.0632  0.0620 -2.2583
    1MOL    H63   63   1.872   4.733   6.451 -1.5740 -0.2104 -0.0772
    1MOL    H64   64   1.953   4.977   6.278  0.3072  3.3980  0.1689
    1MOL    H65   65   1.918   4.955   6.451 -0.3633 -1.2409 -0.2874
    1MOL    C66   66   2.031   5.128   6.405 -0.4997 -0.1648  0.1978
    1MOL    C67   67   2.140   5.173   6.316 -0.2169  0.3353  0.5243
    1MOL    C68   68   2.260   5.208   6.366  0.4619 -0.1594 -0.1684
    1MOL    C69   69   2.362   5.253   6.281  0.3794  0.6750 -0.2349
    1MOL    C70   70   2.341   5.251   6.143  0.1928 -0.2470  0.4877
    1MOL   Cl71   71   2.461   5.283   6.027  0.0438 -0.0411 -0.7033
    1MOL    C72   72   2.211   5.208   6.094  0.1302  0.9152 -0.2785
    1MOL    C73   73   2.105   5.176   6.178 -0.2401 -1.2841  0.0313
    1MOL    C74   74   1.909   5.225   6.416  0.2541  0.5450  0.7722
    1MOL    H75   75   2.067   5.141   6.507 -0.9762  2.0238  0.1046
    1MOL    H76   76   2.283   5.211   6.471 -0.7929  1.4611  0.0637
    1MOL    H77   77   2.458   5.280   6.322 -0.4104 -1.7443  3.4785
    1MOL    H78   78   2.191   5.208   5.988  0.1259 -0.0238 -0.2854
    1MOL    H79   79   2.008   5.157   6.134 -0.9850  0.5114  0.8594
    1MOL    H80   80   1.848   5.217   6.326 -0.2935 -0.9103  1.2516
    1MOL    H81   81   1.845   5.182   6.493 -0.0913 -0.1230  0.1165
    1MOL    C82   82   1.948   5.374   6.446 -0.0987 -0.6966  0.3139
    1MOL    C83   83   1.913   5.466   6.330  0.5581 -0.1932 -0.1126
    1MOL    C84   84   1.775   5.485   6.301  0.6376 -0.3016 -0.4739
    1MOL    C85   85   1.729   5.555   6.186  0.0921  1.0633 -0.4407
    1MOL    C86   86   1.826   5.602   6.098 -0.6688  0.0315 -0.0909
    1MOL   Cl87   87   1.772   5.690   5.959  0.2156 -0.3077 -0.2611
    1MOL    C88   88   1.966   5.598   6.131 -0.1530 -0.2104 -0.3166
    1MOL    C89   89   2.007   5.529   6.250  0.0967 -0.3160 -0.2800
    1MOL    C90   90   1.902   5.432   6.583  0.4775 -0.0100  0.1407
    1MOL    H91   91   2.056   5.376   6.454 -0.0751  0.1351 -0.2378
    1MOL    H92   92   1.702   5.418   6.344  0.5101  0.0649 -0.1179
    1MOL    H93   93   1.622   5.564   6.177  0.1529  0.5699 -1.6746
    1MOL    H94   94   2.037   5.640   6.062  0.9345 -0.0228  0.9046
    1MOL    H95   95   2.112   5.528   6.274 -0.3992 -0.3190  1.9785
    1MOL    H96   96   1.948   5.531   6.583 -0.6829  0.5400 -0.0242
    1MOL    H97   97   1.794   5.448   6.591  0.5846 -0.3787  2.9054
    1MOL    C98   98   1.950   5.346   6.707 -0.3899  0.1672  0.0669
    1MOL    C99   99   2.109   5.336   6.705  0.6717 -0.0354  0.6988
    1MOL   C100  100   2.189   5.450   6.682 -0.3830 -0.3106 -0.3769
    1MOL   C101  101   2.328   5.435   6.683  0.6133  0.6690  0.3410
    1MOL   C102  102   2.385   5.311   6.724  0.4189  0.2521 -0.2176
    1MOL  Cl103  103   2.547   5.307   6.768  0.3582  0.1495  0.1164
    1MOL   C104  104   2.301   5.198   6.755 -0.7870 -0.3135  0.3806
    1MOL   C105  105   2.160   5.210   6.751 -0.5351  0.2371  0.2659
    1MOL   C106  106   1.902   5.414   6.834 -0.2630 -0.3729 -1.3659
    1MOL   H107  107   1.903   5.247   6.698 -0.2311  0.2421 -1.6225
    1MOL   H108  108   2.151   5.550   6.666  1.6548  0.9319  2.1507
    1MOL   H109  109   2.387   5.526   6.681 -0.7605  1.5411 -1.9476
    1MOL   H110  110   2.334   5.107   6.802 -1.4986  0.5741  2.7083
    1MOL   H111  111   2.100   5.125   6.782 -1.9208  1.1620  0.1431
    1MOL   H112  112   1.955   5.508   6.850 -4.1168  1.2100  2.9695
    1MOL   H113  113   1.804   5.450   6.805 -1.0246 -2.0292 -0.8998
    1MOL   C114  114   1.890   5.339   6.967  0.1668  0.3536 -0.2988
    1MOL   C115  115   2.024   5.302   7.029 -0.0533  0.2051  0.3217
    1MOL   C116  116   2.125   5.399   7.045 -0.2336 -0.1379 -0.0940
    1MOL   C117  117   2.244   5.376   7.119  0.0061 -0.2167 -0.4044
    1MOL   C118  118   2.255   5.249   7.173 -0.4113 -0.0307  0.0215
    1MOL  Cl119  119   2.401   5.212   7.256  0.4553  0.2861 -0.0551
    1MOL   C120  120   2.157   5.150   7.156  0.1177 -0.8334 -0.3003
    1MOL   C121  121   2.043   5.171   7.082  0.8077 -0.4281 -0.1443
    1MOL   C122  122   1.816   5.421   7.073 -0.8322  0.1810 -0.3146
    1MOL   H123  123   1.852   5.242   6.934  0.8349 -0.5115  1.4109
    1MOL   H124  124   2.118   5.500   7.006  2.8345 -0.1998 -0.9125
    1MOL   H125  125   2.323   5.450   7.124 -0.1587 -0.0595 -0.1056
    1MOL   H126  126   2.170   5.054   7.204 -2.1441 -0.5418  0.9720
    1MOL   H127  127   1.969   5.093   7.070 -0.9455  1.0732  0.6040
    1MOL   H128  128   1.829   5.382   7.174 -2.0159 -0.5055 -0.4162
    1MOL   H129  129   1.866   5.516   7.087  2.4075 -1.3238 -1.4039
    1MOL   C130  130   1.673   5.464   7.041  1.0447 -0.2294  0.4404
    1MOL   C131  131   1.572   5.347   7.038 -0.1231 -0.1478 -0.2082
    1MOL   C132  132   1.515   5.288   7.156 -0.1420 -0.6335  0.0056
    1MOL   C133  133   1.428   5.179   7.148  0.5050  0.2051  0.2580
    1MOL   C134  134   1.406   5.120   7.021  0.7854 -0.0200  0.5381
    1MOL  Cl135  135   1.294   4.991   7.015  0.0566  0.1997 -0.0372
    1MOL   C136  136   1.464   5.175   6.906  0.8206  0.1421 -0.2496
    1MOL   C137  137   1.545   5.284   6.916  0.5527  0.1891 -1.1489
    1MOL   C138  138   1.619   5.571   7.141  0.1563  0.0013 -0.4564
    1MOL   H139  139   1.670   5.510   6.942  1.7457  2.8272  1.7692
    1MOL   H140  140   1.531   5.334   7.252 -1.4353  0.4990 -0.2991
    1MOL   H141  141   1.377   5.137   7.233 -1.6365 -0.1675 -1.1672
    1MOL   H142  142   1.453   5.125   6.811 -1.8570 -1.7488  0.9713
    1MOL   H143  143   1.583   5.322   6.822  4.2949  1.0751  0.6218
    1MOL   H144  144   1.511   5.579   7.147  0.2364  1.2117 -0.4186
    1MOL   H145  145   1.638   5.531   7.241  2.4238 -0.6999 -1.1317
    1MOL   C146  146   1.669   5.718   7.109 -0.5034 -0.5119  0.2149
    1MOL   C147  147   1.628   5.764   6.973 -0.0115  0.0878  0.5571
    1MOL   C148  148   1.716   5.774   6.865 -0.2228 -0.0015 -0.2118
    1MOL   C149  149   1.679   5.814   6.740  0.3256  0.3563  0.5717
    1MOL   C150  150   1.543   5.846   6.710 -0.1147  0.4075  0.1937
    1MOL  Cl151  151   1.497   5.889   6.552 -0.5129  0.4491  0.0878
    1MOL   C152  152   1.454   5.837   6.820  0.2763  0.0448  0.6830
    1MOL   C153  153   1.487   5.786   6.948 -0.2987 -0.9252  0.5737
    1MOL   C154  154   1.627   5.811   7.221  0.4838 -0.9727 -0.0102
    1MOL   H155  155   1.778   5.712   7.105 -0.4545 -0.9209  1.5739
    1MOL   H156  156   1.820   5.748   6.879  0.0031 -0.5557 -2.6678
    1MOL   H157  157   1.747   5.824   6.657  0.8986 -1.2558  0.8116
    1MOL   H158  158   1.351   5.865   6.804  0.2632 -0.3853 -0.0124
    1MOL   H159  159   1.409   5.778   7.022 -1.8413  3.2202 -0.4911
    1MOL   H160  160   1.519   5.804   7.217  0.3504  0.6463  0.5329
    1MOL   H161  161   1.659   5.775   7.318  2.9533 -5.2834 -2.2613
    1MOL   C162  162   1.669   5.960   7.214 -0.3790  0.4813 -0.7676
    1MOL   C163  163   1.596   6.058   7.306 -0.2551  0.2915  0.4598
    1MOL   C164  164   1.588   6.193   7.264 -0.2464 -0.6088 -0.2633
    1MOL   C165  165   1.503   6.279   7.340  0.4435 -0.5120  0.3352
    1MOL   C166  166   1.426   6.229   7.448  0.2920  0.3913  0.6876
    1MOL  Cl167  167   1.321   6.344   7.521 -0.0049 -0.1932 -0.0929
    1MOL   C168  168   1.435   6.092   7.485 -0.0656  0.4611 -0.2775
    1MOL   C169  169   1.529   6.014   7.423  0.2510  0.7001 -0.8698
    1MOL   C170  170   1.821   5.984   7.208 -0.3631 -0.5528 -0.2225
    1MOL   H171  171   1.630   5.993   7.118  1.0780 -0.4350 -1.7059
    1MOL   H172  172   1.625   6.247   7.178  3.1899  1.1573  2.2152
    1MOL   H173  173   1.490   6.378   7.299  0.2023 -0.3227  0.8734
    1MOL   H174  174   1.369   6.066   7.566 -0.1953  0.6572 -0.3184
    1MOL   H175  175   1.547   5.917   7.466 -0.0702  1.0430  0.0524
    1MOL   H176  176   1.859   5.917   7.131  0.4768  0.0474 -0.3271
    1MOL   H177  177   1.836   6.084   7.168  0.5606  0.0222  1.5429
    1MOL   C178  178   1.910   5.981   7.330 -0.1115  0.4916  0.4464
    1MOL   C179  179   1.930   5.833   7.356 -0.5373 -0.4692 -0.1554
    1MOL   C180  180   2.022   5.752   7.285  0.1124  0.5630  0.9934
    1MOL   C181  181   2.038   5.618   7.310 -0.3597 -0.5128 -0.3312
    1MOL   C182  182   1.966   5.556   7.412  0.1941  0.1198  0.3925
    1MOL  Cl183  183   1.980   5.386   7.429 -0.1142  0.3611  0.3567
    1MOL   C184  184   1.885   5.634   7.495 -0.0550 -0.6529 -0.5461
    1MOL   C185  185   1.863   5.770   7.463 -0.7512 -0.2782  0.3826
    1MOL   C186  186   2.039   6.063   7.318  0.5207  0.8965 -0.7455
    1MOL   H187  187   1.847   6.015   7.412 -0.9258 -3.2057  1.4404
    1MOL   H188  188   2.069   5.799   7.200  1.2368 -1.5950  0.3934
    1MOL   H189  189   2.105   5.566   7.242 -0.8214  1.3485 -2.2572
    1MOL   H190  190   1.828   5.584   7.572 -1.9520 -1.7822 -2.6117
    1MOL   H191  191   1.783   5.823   7.513 -2.8833 -0.9984 -2.1594
    1MOL   H192  192   2.089   6.031   7.409 -0.6437  2.2881  0.4171
    1MOL   H193  193   2.092   6.029   7.230 -0.1269 -1.7404 -0.1678
    1MOL   C194  194   2.020   6.213   7.337  0.2913  0.4585 -0.4169
    1MOL   C195  195   2.025   6.266   7.482 -0.6766  0.1946  0.2100
    1MOL   C196  196   1.910   6.312   7.554  0.0578 -0.2923  0.9311
    1MOL   C197  197   1.922   6.360   7.689 -0.8707  0.6746  0.2486
    1MOL   C198  198   2.046   6.346   7.752  0.0965  0.6379  0.5781
    1MOL  Cl199  199   2.056   6.382   7.916  0.2836  0.2249  0.3380
    1MOL   C200  200   2.158   6.296   7.686 -0.2073  0.3119 -0.2219
    1MOL   C201  201   2.148   6.256   7.556  0.1256 -1.0584  0.6408
    1MOL   C202  202   2.119   6.290   7.252 -0.0193  0.9365  0.0410
    1MOL   H203  203   1.924   6.232   7.290 -1.0283 -0.4543  1.8704
    1MOL   H204  204   1.808   6.311   7.517 -0.3221 -0.7133  1.9682
    1MOL   H205  205   1.827   6.388   7.731 -0.9360  0.3543  0.3136
    1MOL   H206  206   2.254   6.295   7.734 -0.2700 -0.0241 -0.1067
    1MOL   H207  207   2.234   6.206   7.513 -0.8003 -1.0904 -1.2590
    1MOL   H208  208   2.132   6.390   7.294  1.0595  0.3753  1.0824
    1MOL   H209  209   2.206   6.232   7.284 -0.5697  1.7739  3.2710
    1MOL   C210  210   2.096   6.290   7.101 -0.0807 -0.1790  0.5115
    1MOL   C211  211   1.967   6.367   7.064  0.2200  0.3366 -0.2542
    1MOL   C212  212   1.907   6.471   7.140 -0.1545  0.2958 -0.1806
    1MOL   C213  213   1.795   6.540   7.091 -0.4653 -0.2067 -1.4328
    1MOL   C214  214   1.740   6.501   6.965 -0.0083  0.2868  0.2272
    1MOL  Cl215  215   1.601   6.582   6.908  0.1293  0.0070  0.0874
    1MOL   C216  216   1.793   6.394   6.892 -0.4072  0.0475  0.0889
    1MOL   C217  217   1.914   6.334   6.940 -0.3298 -0.4109 -0.2324
    1MOL   C218  218   2.215   6.344   7.018  0.5073  0.0799 -0.3577
    1MOL   H219  219   2.083   6.184   7.078 -1.2080 -0.3016  1.5958
    1MOL   H220  220   1.938   6.501   7.239  1.1596 -2.2805  0.2396
    1MOL   H221  221   1.741   6.616   7.145 -1.3950 -0.2779 -2.2413
    1MOL   H222  222   1.740   6.360   6.804  0.3977  0.0140 -0.3907
    1MOL   H223  223   1.969   6.256   6.889 -1.5533 -1.6771  0.3590
    1MOL   H224  224   2.194   6.337   6.912 -0.8881 -1.1330 -0.0197
    1MOL   H225  225   2.213   6.450   7.044 -1.3870  0.0189 -0.2012
    1MOL   C226  226   2.354   6.282   7.052 -0.1310 -0.3853 -0.1893
    1MOL   C227  227   2.353   6.134   7.021  0.4076 -0.5787  0.2670
    1MOL   C228  228   2.370   6.089   6.890  0.5362 -0.1044 -0.1007
    1MOL   C229  229   2.382   5.948   6.862  1.0776 -0.8127  0.8105
    1MOL   C230  230   2.348   5.855   6.963 -0.1823 -1.4466 -0.1747
    1MOL  Cl231  231   2.339   5.687   6.920  0.4035  0.2447 -0.0437
    1MOL   C232  232   2.322   5.903   7.091  0.2512 -0.6042 -0.5049
    1MOL   C233  233   2.329   6.040   7.127  1.1144  0.0814  0.4931
    1MOL   C234  234   2.466   6.361   6.993  0.5896  0.1549 -0.3214
    1MOL   H235  235   2.367   6.296   7.159 -2.3200 -0.3343  0.0837
    1MOL   H236  236   2.381   6.163   6.813  1.0411  0.6093  0.6561
    1MOL   H237  237   2.385   5.916   6.759  2.4273  0.2235  0.5116
    1MOL   H238  238   2.305   5.828   7.167 -0.6957 -1.4377 -1.5232
    1MOL   H239  239   2.326   6.065   7.232 -2.3262 -1.4591  0.8224
    1MOL   H240  240   2.560   6.307   6.986  0.3688 -0.1289 -1.0503
    1MOL   H241  241   2.449   6.374   6.886 -0.3812  1.0781 -0.0640
    1MOL   C242  242   2.497   6.499   7.055 -0.4361  1.1866  0.4807
    1MOL   C243  243   2.547   6.479   7.199  0.1142  0.5368 -0.0330
    1MOL   C244  244   2.683   6.443   7.224 -0.0646  0.5354  0.1698
    1MOL   C245  245   2.730   6.428   7.358  0.4138  0.1861 -0.1545
    1MOL   C246  246   2.639   6.452   7.463  0.0143  0.9563  0.2846
    1MOL  Cl247  247   2.704   6.458   7.626  0.1556 -0.1879  0.1152
    1MOL   C248  248   2.504   6.485   7.441  0.7144  0.9191 -0.5979
    1MOL   C249  249   2.456   6.498   7.311  0.0803 -0.1069 -0.3067
    1MOL   C250  250   2.590   6.586   6.977  0.2136  0.3224  0.8589
    1MOL   H251  251   2.402   6.551   7.069  0.0942  1.8800  1.6295
    1MOL   H252  252   2.750   6.424   7.141 -1.5108 -1.5769 -0.5722
    1MOL   H253  253   2.830   6.393   7.383 -0.2948 -3.1484 -1.6962
    1MOL   H254  254   2.448   6.517   7.528  2.6733 -0.6389  1.2995
    1MOL   H255  255   2.351   6.519   7.294  0.2676  1.7860  0.8140
    1MOL   H256  256   2.603   6.672   7.042 -3.1613  1.3781  0.2311
    1MOL   H257  257   2.682   6.531   6.958 -0.1263  0.2555 -0.6423
    1MOL   C258  258   2.551   6.627   6.831 -0.4496 -0.1232  0.1588
    1MOL   C259  259   2.400   6.619   6.805 -0.2057  0.0114  0.0822
    1MOL   C260  260   2.348   6.538   6.698  0.5562 -0.5007  0.9704
    1MOL   C261  261   2.211   6.530   6.669 -0.6444 -0.0233 -0.1299
    1MOL   C262  262   2.127   6.617   6.737 -0.1319  0.3324  0.6613
    1MOL  Cl263  263   1.951   6.627   6.711 -0.0190 -0.0581  0.0279
    1MOL   C264  264   2.176   6.704   6.834  0.0256 -0.5501  0.3585
    1MOL   C265  265   2.310   6.703   6.873 -0.4628  0.0777  0.8045
    1MOL   C266  266   2.602   6.770   6.799 -0.5986  0.1241 -0.2743
    1MOL   H267  267   2.613   6.557   6.775  0.5670  0.2789  0.7691
    1MOL   H268  268   2.415   6.477   6.638  1.2120  1.2319 -0.0871
    1MOL   H269  269   2.177   6.464   6.591 -2.2539  1.9554 -1.1668
    1MOL   H270  270   2.104   6.766   6.885  0.9371  0.4763  0.4401
    1MOL   H271  271   2.338   6.765   6.957 -0.3462 -1.4438  1.9141
    1MOL   H272  272   2.572   6.837   6.880  2.3534  0.4504  0.6179
    1MOL   H273  273   2.711   6.764   6.806 -0.5365 -0.4458 -1.6713
    1MOL   C274  274   2.569   6.833   6.661 -0.2549  0.2183 -0.3280
    1MOL   C275  275   2.460   6.942   6.672 -0.2308 -0.3293 -0.6964
    1MOL   C276  276   2.346   6.915   6.598  0.0790 -0.0788 -0.6160
    1MOL   C277  277   2.237   7.005   6.617 -0.2170 -0.5151 -0.1359
    1MOL   C278  278   2.247   7.118   6.705 -0.0692  0.0585  0.4046
    1MOL  Cl279  279   2.121   7.224   6.729  0.2067 -0.3601 -0.5090
    1MOL   C280  280   2.370   7.147   6.773 -0.0354  0.1344  0.3553
    1MOL   C281  281   2.472   7.052   6.758 -0.5350  0.2783  0.3122
    1MOL   C282  282   2.687   6.889   6.594  0.1801  0.1276 -0.3352
    1MOL   H283  283   2.535   6.753   6.595  0.9649 -0.0739 -0.6223
    1MOL   H284  284   2.334   6.838   6.523 -1.6587 -0.8478  0.4316
    1MOL   H285  285   2.151   6.986   6.554  0.2311 -3.1081 -0.0223
    1MOL   H286  286   2.385   7.229   6.842  0.1522  0.6783 -0.3187
    1MOL   H287  287   2.565   7.067   6.810  0.5866  0.3740 -1.6786
    1MOL   H288  288   2.672   6.954   6.507  1.0548 -0.3301 -0.8330
    1MOL   H289  289   2.736   6.952   6.669  0.2664  0.7210 -0.8771
    1MOL   C290  290   2.788   6.790   6.534  0.1734 -0.5048 -0.0030
    1MOL   C291  291   2.726   6.730   6.402 -0.4132  0.0539 -0.0258
    1MOL   C292  292   2.706   6.811   6.291  0.7079  0.3152  1.0343
    1MOL   C293  293   2.672   6.751   6.164  0.5097  0.0779 -0.0018
    1MOL   C294  294   2.627   6.617   6.162  0.1937 -0.1346 -0.2344
    1MOL  Cl295  295   2.576   6.549   6.015 -0.0394 -0.3365  0.0020
    1MOL   C296  296   2.643   6.536   6.278 -0.3423  0.0497  0.0717
    1MOL   C297  297   2.688   6.598   6.399 -0.5581 -0.0530  0.3290
    1MOL   C298  298   2.932   6.842   6.511 -0.2377 -0.4337  0.3383
    1MOL   H299  299   2.797   6.711   6.608  0.6913  0.6055  1.1514
    1MOL   H300  300   2.707   6.919   6.288  0.8684  0.2838 -0.1199
    1MOL   H301  301   2.657   6.806   6.072 -0.8079 -1.7307 -0.9014
    1MOL   H302  302   2.617   6.432   6.275 -2.0550  0.4619  0.5275
    1MOL   H303  303   2.707   6.538   6.487 -3.2717  0.7816  1.5276
    1MOL   H304  304   2.997   6.771   6.461  0.7930 -0.2119  1.3512
    1MOL   H305  305   2.933   6.934   6.453  1.2747  0.0453  1.0939
    1MOL   C306  306   3.010   6.882   6.634 -0.0508 -0.7226 -0.3655
    1MOL   C307  307   3.051   6.757   6.715 -0.0020 -0.1649  0.5184
    1MOL   C308  308   2.983   6.724   6.830  0.1875  0.1097  0.1467
    1MOL   C309  309   3.030   6.611   6.899 -1.3040  0.3288  0.2926
    1MOL   C310  310   3.144   6.537   6.860 -0.1926  0.0725 -0.2545
    1MOL  Cl311  311   3.199   6.403   6.957  0.1662  0.1292 -0.0165
    1MOL   C312  312   3.208   6.566   6.742  0.3227 -0.5478 -0.4173
    1MOL   C313  313   3.159   6.675   6.668 -0.0016  0.3508 -0.2051
    1MOL   C314  314   3.132   6.976   6.613 -0.1203  0.4129 -0.2902
    1MOL   H315  315   2.939   6.938   6.695  0.9719 -0.9729  1.0506
    1MOL   H316  316   2.905   6.790   6.866 -0.7847  0.2821 -2.1714
    1MOL   H317  317   2.978   6.576   6.987  0.5714 -0.7254  0.9960
    1MOL   H318  318   3.293   6.506   6.715 -0.4197 -2.4276  1.3620
    1MOL   H319  319   3.222   6.697   6.583 -1.3562 -0.2791 -1.3858
    1MOL   H320  320   3.198   6.990   6.699 -0.4323  0.5896 -0.0779
    1MOL   H321  321   3.197   6.941   6.532 -1.5201 -0.0238 -1.2486
    1MOL   H322  322   3.106   7.078   6.586 -0.3273  0.5916  0.5820
    2MOL     C1  323   7.884   3.663   5.053 -1.2386  0.4159 -0.1875
    2MOL     C2  324   8.027   3.624   5.003 -0.4943 -0.1825 -0.5476
    2MOL     C3  325   8.067   3.638   4.867 -0.2660 -0.1307 -0.0388
    2MOL     C4  326   8.200   3.616   4.825  0.1603  0.7299 -0.0298
    2MOL     C5  327   8.290   3.567   4.920 -0.1767 -0.2279 -0.7261
    2MOL    Cl6  328   0.008   3.515   4.869  0.0209 -0.3686  0.0725
    2MOL     C7  329   8.250   3.549   5.057  0.2173 -0.1257 -0.2886
    2MOL     C8  330   8.120   3.580   5.097  0.2604  0.0025  0.4139
    2MOL     C9  331   7.812   3.538   5.103  0.3300  0.8834  0.4592
    2MOL    H10  332   7.833   3.721   4.976  1.0471  1.6532 -0.7924
    2MOL    H11  333   7.994   3.665   4.792  1.3906  0.3629 -1.5257
    2MOL    H12  334   8.227   3.636   4.723  0.3203  0.8120  0.0271
    2MOL    H13  335   8.323   3.516   5.130  2.0022  1.9218 -1.0874
    2MOL    H14  336   8.084   3.568   5.199 -0.6048 -3.4427 -0.2133
    2MOL    H15  337   7.835   3.457   5.034  0.7166 -0.1214  1.7481
    2MOL    H16  338   7.842   3.510   5.203 -0.8617  0.1453  0.6143
    2MOL    H17  339   7.895   3.727   5.140  1.0391 -0.7713  0.4394
    2MOL    C18  340   7.657   3.556   5.106 -0.0683  0.2486 -0.3499
    2MOL    C19  341   7.614   3.617   5.239 -0.1635  0.2712 -0.5992
    2MOL    C20  342   7.639   3.756   5.261 -0.7110 -0.0477 -0.1111
    2MOL    C21  343   7.604   3.817   5.381 -0.3874 -0.2481  0.4231
    2MOL    C22  344   7.539   3.736   5.469  0.1166  0.1256 -0.5846
    2MOL   Cl23  345   7.499   3.825   5.610 -0.1043 -0.1052  0.4963
    2MOL    C24  346   7.510   3.598   5.457  0.4873 -0.4150 -0.5215
    2MOL    C25  347   7.565   3.537   5.342  0.3041 -0.4875 -1.0742
    2MOL    C26  348   7.576   3.611   4.980  0.6850 -0.3617  0.1421
    2MOL    H27  349   7.632   3.450   5.116  3.5399 -0.7340 -0.6402
    2MOL    H28  350   7.693   3.817   5.190 -2.2326  0.6963 -0.6620
    2MOL    H29  351   7.623   3.922   5.400  0.4859 -0.6161  1.6543
    2MOL    H30  352   7.466   3.549   5.542  0.8313  2.3402  1.3340
    2MOL    H31  353   7.557   3.431   5.324  3.4259 -0.8829 -0.3992
    2MOL    H32  354   7.591   3.719   4.985  0.6777 -0.3843  0.7275
    2MOL    H33  355   7.640   3.580   4.898  0.3007  1.0422 -0.6903
    2MOL    C34  356   7.423   3.577   4.978  0.0703 -0.2536 -0.3622
    2MOL    C35  357   7.361   3.617   4.843  0.3585  0.2108  0.1202
    2MOL    C36  358   7.368   3.533   4.732 -0.4734 -0.0079  0.3643
    2MOL    C37  359   7.321   3.576   4.604 -0.1224 -0.2128 -0.4407
    2MOL    C38  360   7.249   3.699   4.599  0.1678 -0.5636 -0.4157
    2MOL   Cl39  361   7.173   3.758   4.457 -0.0694  0.1123 -0.4444
    2MOL    C40  362   7.248   3.784   4.712 -0.3737 -0.1860 -0.3696
    2MOL    C41  363   7.302   3.743   4.830  0.0147  0.0625 -0.8644
    2MOL    C42  364   7.400   3.430   5.011  0.2128 -0.0357 -0.1065
    2MOL    H43  365   7.380   3.638   5.057  0.5201 -2.2077  1.4534
    2MOL    H44  366   7.414   3.435   4.741 -1.2591 -0.3697  0.4633
    2MOL    H45  367   7.339   3.509   4.521  1.0510  1.2417 -1.3719
    2MOL    H46  368   7.189   3.874   4.705  0.8514  0.5309 -1.6656
    2MOL    H47  369   7.295   3.797   4.923  1.7868  0.2891 -0.8524
    2MOL    H48  370   7.441   3.361   4.938 -1.6497 -2.6512  1.2567
    2MOL    H49  371   7.431   3.412   5.114  0.1199 -0.2250 -0.1114
    2MOL    C50  372   7.251   3.383   5.018  0.1460 -0.5752  0.2304
    2MOL    C51  373   7.246   3.238   5.066  0.1503  0.1286 -0.0995
    2MOL    C52  374   7.194   3.131   4.987 -0.2322  0.0725 -0.0827
    2MOL    C53  375   7.176   2.999   5.036 -0.4263 -0.4188 -0.0814
    2MOL    C54  376   7.214   2.971   5.165  0.3022  0.3722 -0.6740
    2MOL   Cl55  377   7.196   2.808   5.222  0.1051 -0.0807 -0.0632
    2MOL    C56  378   7.269   3.074   5.250 -0.2719 -0.3340  0.5836
    2MOL    C57  379   7.289   3.205   5.200  0.0907  0.7125  0.1103
    2MOL    C58  380   7.152   3.485   5.093 -0.7081 -0.0202  0.5414
    2MOL    H59  381   7.222   3.385   4.913  2.9522 -0.5393 -0.6023
    2MOL    H60  382   7.155   3.159   4.890 -1.4738 -1.3013 -0.0052
    2MOL    H61  383   7.153   2.916   4.971 -0.5154 -2.3497  2.3534
    2MOL    H62  384   7.278   3.060   5.356  0.9904  1.0276  0.6605
    2MOL    H63  385   7.311   3.281   5.273 -0.2446  0.6864  0.2402
    2MOL    H64  386   7.185   3.500   5.196 -0.1482 -4.1976  1.0710
    2MOL    H65  387   7.164   3.575   5.034  0.5004 -0.8457 -0.4970
    2MOL    C66  388   7.002   3.465   5.084 -0.5703 -0.1156 -0.3155
    2MOL    C67  389   6.942   3.578   5.163  0.0653 -0.0046 -0.0931
    2MOL    C68  390   6.902   3.551   5.300 -0.3035 -0.1801 -0.3083
    2MOL    C69  391   6.835   3.657   5.366  0.6753  0.2078  0.1359
    2MOL    C70  392   6.804   3.778   5.302  0.3997  0.0363  0.2546
    2MOL   Cl71  393   6.720   3.890   5.391 -0.2854 -0.1021 -0.2783
    2MOL    C72  394   6.843   3.807   5.171 -0.2939 -0.5215  0.0096
    2MOL    C73  395   6.911   3.701   5.102 -0.1978 -0.1861  0.3598
    2MOL    C74  396   6.940   3.445   4.947 -0.2272  0.4849 -0.1082
    2MOL    H75  397   6.969   3.379   5.143  0.9817  0.6815  1.7616
    2MOL    H76  398   6.925   3.457   5.348 -2.0855 -1.3834 -1.7792
    2MOL    H77  399   6.794   3.629   5.462  0.5637  0.0591  0.0433
    2MOL    H78  400   6.821   3.899   5.119  1.8054  1.5055  2.5788
    2MOL    H79  401   6.940   3.723   5.000  1.0859 -2.0731  0.2986
    2MOL    H80  402   6.981   3.523   4.884 -0.2744  1.9825  1.6871
    2MOL    H81  403   6.975   3.352   4.902  0.8675 -0.1931  2.0698
    2MOL    C82  404   6.782   3.450   4.929  0.1505 -0.3107  0.4852
    2MOL    C83  405   6.743   3.452   4.784 -0.5284 -0.3715 -0.3883
    2MOL    C84  406   6.790   3.341   4.705  0.2967 -0.2333 -0.1053
    2MOL    C85  407   6.775   3.333   4.564  0.2989  0.0280  0.7906
    2MOL    C86  408   6.714   3.438   4.498 -0.0464 -0.0857 -1.0269
    2MOL   Cl87  409   6.681   3.425   4.330 -0.2522 -0.1907  0.4261
    2MOL    C88  410   6.671   3.549   4.573  0.2887  0.4952  0.3015
    2MOL    C89  411   6.684   3.562   4.715  0.6141 -0.4642  0.4098
    2MOL    C90  412   6.701   3.341   5.014 -0.2562 -0.4316  0.4485
    2MOL    H91  413   6.746   3.548   4.962 -1.0168 -0.9657  1.1807
    2MOL    H92  414   6.840   3.259   4.755 -0.4174 -0.8270 -0.3448
    2MOL    H93  415   6.805   3.250   4.501  0.0704  0.6545 -0.1611
    2MOL    H94  416   6.627   3.625   4.511  0.5620  1.3445  1.1282
    2MOL    H95  417   6.665   3.651   4.772  1.4527 -1.2983  2.0317
    2MOL    H96  418   6.743   3.244   4.986  1.2893  0.4883 -0.4912
    2MOL    H97  419   6.745   3.353   5.113 -0.3807 -0.4867  0.5125
    2MOL    C98  420   6.551   3.354   5.024 -0.2813 -0.6923 -0.1055
    2MOL    C99  421   6.476   3.223   5.004  0.2168 -1.0750  1.1783
    2MOL   C100  422   6.410   3.201   4.883  0.0559  0.0098  0.1560
    2MOL   C101  423   6.333   3.086   4.866  0.6249  0.2660  0.4287
    2MOL   C102  424   6.351   2.981   4.962  0.2642  0.2524  0.4067
    2MOL  Cl103  425   6.269   2.827   4.944  0.2764 -0.4271  0.4725
    2MOL   C104  426   6.436   2.994   5.074  0.2408  0.0587 -0.2956
    2MOL   C105  427   6.497   3.117   5.097  0.1737 -0.6070 -0.2411
    2MOL   C106  428   6.512   3.455   5.142 -0.1146  0.7703 -0.3534
    2MOL   H107  429   6.536   3.400   4.926  0.7202 -1.8577 -0.8137
    2MOL   H108  430   6.396   3.282   4.813  0.2555  0.6030  0.7956
    2MOL   H109  431   6.284   3.073   4.771 -0.5687  0.2808  1.0431
    2MOL   H110  432   6.462   2.907   5.133 -0.4647 -0.1449 -0.2882
    2MOL   H111  433   6.558   3.133   5.185 -0.8850  0.4441  0.3161
    2MOL   H112  434   6.486   3.380   5.217 -2.3913  0.2600 -1.5977
    2MOL   H113  435   6.601   3.511   5.173  0.1574  1.2299 -1.9083
    2MOL   C114  436   6.398   3.558   5.117 -0.1206  0.1290 -0.3261
    2MOL   C115  437   6.264   3.505   5.056  0.2426  0.2762 -0.5367
    2MOL   C116  438   6.216   3.374   5.088 -0.0855  0.2240 -0.6124
    2MOL   C117  439   6.088   3.333   5.047  0.1744  0.1592  0.6845
    2MOL   C118  440   6.015   3.416   4.961 -0.1815  0.2792 -0.4062
    2MOL  Cl119  441   5.860   3.360   4.922 -0.2511  0.1730 -0.1418
    2MOL   C120  442   6.058   3.543   4.934  0.1425  0.5050 -0.0175
    2MOL   C121  443   6.176   3.594   4.989  0.2696 -0.2267  0.7733
    2MOL   C122  444   6.374   3.661   5.223 -0.9768  0.4947  0.0526
    2MOL   H123  445   6.428   3.602   5.022 -0.9855 -0.1043 -0.7188
    2MOL   H124  446   6.267   3.299   5.147  0.5499  0.9337 -0.2552
    2MOL   H125  447   6.050   3.241   5.088 -1.3257  0.1099 -0.7597
    2MOL   H126  448   5.985   3.604   4.881 -1.5354 -0.5958  0.9745
    2MOL   H127  449   6.206   3.697   4.977 -3.1362  0.7432  0.2502
    2MOL   H128  450   6.470   3.697   5.259  0.7433 -2.5252 -1.3559
    2MOL   H129  451   6.315   3.746   5.190 -1.4375 -0.2376 -1.0615
    2MOL   C130  452   6.289   3.612   5.340  0.3871  0.0254  0.6222
    2MOL   C131  453   6.360   3.498   5.410 -0.0631  0.1350 -0.5254
    2MOL   C132  454   6.291   3.374   5.422  0.5223 -0.5159  1.3270
    2MOL   C133  455   6.352   3.266   5.488 -0.3676  0.6842  0.3268
    2MOL   C134  456   6.492   3.273   5.519  0.3665  0.4695 -0.4946
    2MOL  Cl135  457   6.585   3.138   5.582  0.0362  0.1070 -0.1242
    2MOL   C136  458   6.557   3.399   5.518  0.0150  0.0468 -0.9554
    2MOL   C137  459   6.491   3.513   5.464 -0.4745  0.6219  0.4035
    2MOL   C138  460   6.246   3.716   5.444 -0.6389 -0.1619 -0.0118
    2MOL   H139  461   6.192   3.581   5.300  1.4262 -0.3767 -1.6344
    2MOL   H140  462   6.190   3.366   5.385  0.3708  0.0953  1.6097
    2MOL   H141  463   6.305   3.169   5.482  1.8860 -0.7307  4.0846
    2MOL   H142  464   6.657   3.417   5.554 -1.1235  0.6467  1.9883
    2MOL   H143  465   6.546   3.605   5.466  0.3166  0.1315  1.3968
    2MOL   H144  466   6.330   3.729   5.512  0.4811  0.2185 -1.4497
    2MOL   H145  467   6.244   3.816   5.401 -3.2588  0.2322  0.9206
    2MOL   C146  468   6.117   3.701   5.531 -0.2934  0.2241  0.1495
    2MOL   C147  469   5.995   3.685   5.440  0.3832  0.5395 -0.2333
    2MOL   C148  470   5.941   3.555   5.414 -0.8220 -0.2812 -0.2983
    2MOL   C149  471   5.856   3.533   5.300 -0.4886  0.0847  0.2576
    2MOL   C150  472   5.810   3.641   5.219  0.7797 -0.0651 -0.2030
    2MOL  Cl151  473   5.703   3.609   5.084  0.3153 -0.0345  0.1552
    2MOL   C152  474   5.867   3.769   5.249 -0.5676 -0.8247 -0.8788
    2MOL   C153  475   5.952   3.797   5.362  0.5374 -0.3341 -0.0404
    2MOL   C154  476   6.127   3.603   5.657  0.8095 -0.4684  0.3072
    2MOL   H155  477   6.108   3.797   5.582  0.8746 -0.1966  1.1646
    2MOL   H156  478   5.967   3.462   5.464  2.4366  1.4624  1.3590
    2MOL   H157  479   5.823   3.431   5.286 -1.8775  0.6232 -0.4802
    2MOL   H158  480   5.843   3.849   5.181 -1.2060 -0.0684  0.2271
    2MOL   H159  481   6.000   3.892   5.380  1.4036 -0.7053 -0.3357
    2MOL   H160  482   6.096   3.503   5.628 -1.8508  0.2479  0.5300
    2MOL   H161  483   6.230   3.595   5.691  0.5529  0.9737  1.4722
    2MOL   C162  484   6.036   3.645   5.778  0.1506 -0.4773 -0.9667
    2MOL   C163  485   5.971   3.521   5.851 -0.2178 -0.6375 -0.0675
    2MOL   C164  486   5.833   3.527   5.880 -0.7201  0.0409 -0.2022
    2MOL   C165  487   5.777   3.419   5.961  0.9099  0.4299 -0.2584
    2MOL   C166  488   5.855   3.307   5.996  0.5676  0.2791 -0.1063
    2MOL  Cl167  489   5.779   3.175   6.081 -0.1951  0.2064  0.4343
    2MOL   C168  490   5.993   3.305   5.971 -0.0596 -0.1896 -0.4678
    2MOL   C169  491   6.052   3.410   5.899  0.2391 -0.2281 -0.8688
    2MOL   C170  492   6.121   3.711   5.887  0.6906 -0.0571 -0.6097
    2MOL   H171  493   5.956   3.712   5.746  0.4194 -0.3046 -1.2772
    2MOL   H172  494   5.771   3.611   5.853  1.3603  1.5465 -0.4520
    2MOL   H173  495   5.677   3.432   5.999  0.2831  0.9606 -2.0283
    2MOL   H174  496   6.050   3.220   6.005  2.5291  1.7835  0.2753
    2MOL   H175  497   6.159   3.405   5.890  0.6343  2.8660  1.2787
    2MOL   H176  498   6.070   3.690   5.982 -0.1886  0.9831 -0.8350
    2MOL   H177  499   6.223   3.677   5.903  0.7650  1.0657  1.5072
    2MOL   C178  500   6.138   3.868   5.882  0.1047  0.3839 -0.2924
    2MOL   C179  501   5.997   3.927   5.860  0.4234 -0.6062  1.0347
    2MOL   C180  502   5.974   4.016   5.748  0.6815  0.8696  0.1270
    2MOL   C181  503   5.844   4.074   5.728  0.4458  0.0601  0.2512
    2MOL   C182  504   5.735   4.027   5.809 -0.7139 -0.4353 -0.1715
    2MOL  Cl183  505   5.579   4.086   5.782 -0.3204  0.5286  0.1201
    2MOL   C184  506   5.763   3.941   5.913  0.0462 -0.1342 -0.2364
    2MOL   C185  507   5.891   3.889   5.942  0.0130  0.0930 -0.8995
    2MOL   C186  508   6.222   3.915   6.015  0.5049 -0.4629  0.6266
    2MOL   H187  509   6.196   3.901   5.796  0.2123  0.9527 -0.0026
    2MOL   H188  510   6.057   4.050   5.687  2.1235 -1.0311  0.9588
    2MOL   H189  511   5.810   4.144   5.653  0.8669  0.3936  0.3739
    2MOL   H190  512   5.673   3.919   5.969 -1.1416  0.8687 -1.7099
    2MOL   H191  513   5.895   3.831   6.033  3.3887  0.1868 -0.9208
    2MOL   H192  514   6.194   3.852   6.099 -0.6039 -0.3760  0.3392
    2MOL   H193  515   6.329   3.902   6.001  0.5778  2.3378 -1.9411
    2MOL   C194  516   6.191   4.064   6.054 -0.2670  0.2685 -0.1562
    2MOL   C195  517   6.270   4.091   6.186 -0.8346  0.2452  0.0448
    2MOL   C196  518   6.205   4.041   6.303  0.3982  0.3760  0.2677
    2MOL   C197  519   6.271   4.044   6.428 -0.0559  0.2270  0.4232
    2MOL   C198  520   6.398   4.099   6.434 -0.2944 -0.2091  0.3585
    2MOL  Cl199  521   6.482   4.096   6.587 -0.6565 -0.4208 -0.0877
    2MOL   C200  522   6.457   4.155   6.323 -0.3977  0.0969  0.1278
    2MOL   C201  523   6.395   4.155   6.199  0.2307  0.1496  0.7325
    2MOL   C202  524   6.223   4.167   5.943  0.6315  0.0787 -0.7415
    2MOL   H203  525   6.083   4.067   6.067 -0.3548  0.1995 -0.8658
    2MOL   H204  526   6.107   3.998   6.295 -0.1110  1.5342  0.1295
    2MOL   H205  527   6.224   3.993   6.511 -0.3079  0.9889  0.7609
    2MOL   H206  528   6.562   4.174   6.340  0.1411 -2.6265  0.0236
    2MOL   H207  529   6.455   4.198   6.120 -0.9567 -2.7104 -1.7983
    2MOL   H208  530   6.326   4.155   5.910  0.5537 -1.8126 -0.3887
    2MOL   H209  531   6.165   4.133   5.858 -1.1491  1.2389 -0.0245
    2MOL   C210  532   6.201   4.316   5.973  0.6423  0.0488  0.1849
    2MOL   C211  533   6.232   4.398   5.851 -0.9709  0.6278 -0.5513
    2MOL   C212  534   6.144   4.396   5.734 -0.2954 -0.0596  0.1537
    2MOL   C213  535   6.164   4.484   5.626 -0.1779 -0.1026  0.2217
    2MOL   C214  536   6.278   4.568   5.632  0.3148 -0.3894 -0.0956
    2MOL  Cl215  537   6.313   4.670   5.499  0.1009 -0.0255  0.0968
    2MOL   C216  538   6.360   4.576   5.744  0.4619 -0.1872  0.2545
    2MOL   C217  539   6.340   4.492   5.854  0.3027  0.4588  0.2425
    2MOL   C218  540   6.062   4.358   6.028 -0.1393  0.8633  0.1331
    2MOL   H219  541   6.275   4.338   6.049  1.4469 -0.0171 -0.5692
    2MOL   H220  542   6.050   4.343   5.738  0.1290 -0.9551 -1.3498
    2MOL   H221  543   6.098   4.488   5.540 -0.8197  0.3146  0.7323
    2MOL   H222  544   6.432   4.656   5.740  0.8718 -0.5228  1.0085
    2MOL   H223  545   6.389   4.494   5.950 -0.9148  1.0277  0.8599
    2MOL   H224  546   5.987   4.323   5.958  1.8368 -0.1423 -1.5228
    2MOL   H225  547   6.062   4.296   6.118 -0.4591  1.3389  0.4661
    2MOL   C226  548   6.037   4.503   6.071 -0.1737  0.0184  0.0463
    2MOL   C227  549   6.001   4.606   5.970  0.4187  0.5420 -0.2433
    2MOL   C228  550   5.917   4.578   5.858 -0.2133 -0.3098  0.4966
    2MOL   C229  551   5.891   4.677   5.760 -0.3250  0.7944 -0.0438
    2MOL   C230  552   5.941   4.808   5.778 -0.6917 -0.7180  0.5027
    2MOL  Cl231  553   5.900   4.934   5.657 -0.0869 -0.1983 -0.2531
    2MOL   C232  554   6.015   4.833   5.896 -1.5133 -0.3263 -0.3584
    2MOL   C233  555   6.053   4.733   5.988  0.0042  0.0914 -0.4367
    2MOL   C234  556   5.942   4.505   6.198  0.8929 -0.2625  0.3714
    2MOL   H235  557   6.138   4.521   6.106 -0.3074  0.2047  0.3469
    2MOL   H236  558   5.883   4.479   5.832 -0.7953  0.1109 -0.3819
    2MOL   H237  559   5.833   4.674   5.669  0.5046  2.0116 -0.6382
    2MOL   H238  560   6.034   4.938   5.914 -0.7365 -0.8585  2.0906
    2MOL   H239  561   6.109   4.761   6.076  2.7636 -2.1158 -1.3768
    2MOL   H240  562   5.982   4.456   6.287  3.0486  2.3886  0.9272
    2MOL   H241  563   5.926   4.610   6.224 -0.5585 -0.7087  1.3736
    2MOL   C242  564   5.796   4.437   6.175  0.4427  0.3511  0.6033
    2MOL   C243  565   5.789   4.304   6.253  0.3446 -0.6302 -0.3853
    2MOL   C244  566   5.796   4.311   6.395 -0.4535  0.3748  0.2481
    2MOL   C245  567   5.808   4.191   6.474  0.0794 -0.9807  0.6178
    2MOL   C246  568   5.805   4.066   6.406 -1.0022 -0.2138 -0.3232
    2MOL  Cl247  569   5.800   3.924   6.500  0.0988  0.1040  0.3122
    2MOL   C248  570   5.794   4.062   6.268  0.3831 -0.4264  0.0143
    2MOL   C249  571   5.776   4.179   6.192 -0.6234 -0.0785 -0.3358
    2MOL   C250  572   5.669   4.527   6.213  0.5089  0.7117 -0.5376
    2MOL   H251  573   5.777   4.417   6.069 -1.5287  3.1277  0.3993
    2MOL   H252  574   5.812   4.407   6.442  1.2541 -0.3594  1.1958
    2MOL   H253  575   5.820   4.192   6.581  1.7189  4.8235  0.5579
    2MOL   H254  576   5.769   3.966   6.227 -1.0630  0.8261 -2.1185
    2MOL   H255  577   5.753   4.162   6.088 -0.3784 -0.0217 -0.3989
    2MOL   H256  578   5.653   4.563   6.315  1.0578  1.8735 -0.8520
    2MOL   H257  579   5.693   4.621   6.164 -0.2260  0.7794 -0.7638
    2MOL   C258  580   5.534   4.493   6.152 -0.0282 -0.7136  0.2103
    2MOL   C259  581   5.490   4.353   6.198  0.1875 -0.2935 -0.1791
    2MOL   C260  582   5.457   4.342   6.334 -0.2334  0.3576 -0.7688
    2MOL   C261  583   5.434   4.211   6.379 -0.6170 -0.7349 -0.8983
    2MOL   C262  584   5.432   4.095   6.300 -0.0496  0.1177  0.4930
    2MOL  Cl263  585   5.384   3.942   6.358  0.2516 -0.3228 -0.1420
    2MOL   C264  586   5.442   4.118   6.156  0.1896 -0.1720  0.3028
    2MOL   C265  587   5.471   4.249   6.107 -0.4668 -0.1175  0.4663
    2MOL   C266  588   5.421   4.600   6.173 -0.8713  0.1043  0.4273
    2MOL   H267  589   5.555   4.471   6.048  1.3443  1.9498 -0.1185
    2MOL   H268  590   5.486   4.418   6.406 -0.6693 -2.0862  2.0751
    2MOL   H269  591   5.416   4.200   6.485 -0.1231 -1.4837 -0.8905
    2MOL   H270  592   5.438   4.029   6.094 -0.0184 -1.3409  1.9405
    2MOL   H271  593   5.478   4.264   6.001 -0.8171 -2.0737  0.1426
    2MOL   H272  594   5.371   4.580   6.268  1.8479  1.7761  2.2912
    2MOL   H273  595   5.467   4.697   6.193 -2.6087  1.1467 -0.5111
    2MOL   C274  596   5.324   4.618   6.043 -1.0218  0.9590 -0.3708
    2MOL   C275  597   5.218   4.508   6.031 -0.5389  0.5765  0.1922
    2MOL   C276  598   5.147   4.481   6.153 -0.3826  0.0693  0.2977
    2MOL   C277  599   5.040   4.389   6.152 -0.1868 -1.4255 -0.1033
    2MOL   C278  600   5.009   4.317   6.032  0.3415 -0.4341 -0.2501
    2MOL  Cl279  601   4.878   4.210   6.038 -0.2638 -0.0805 -0.4163
    2MOL   C280  602   5.095   4.327   5.920 -0.2277  0.0422 -0.4872
    2MOL   C281  603   5.196   4.425   5.919 -0.5409 -0.1665  0.5763
    2MOL   C282  604   5.260   4.756   6.028  0.0416 -0.5692 -0.0633
    2MOL   H283  605   5.397   4.614   5.962 -1.4981  0.5692 -0.7861
    2MOL   H284  606   5.160   4.546   6.238  1.0109 -1.2262  1.1032
    2MOL   H285  607   4.972   4.383   6.236  0.1601  2.4083  0.5206
    2MOL   H286  608   5.089   4.267   5.831  1.3773 -1.2898  0.2656
    2MOL   H287  609   5.261   4.445   5.835 -0.8823  1.5275  0.6860
    2MOL   H288  610   5.175   4.744   5.962 -0.3785  0.3922  0.2916
    2MOL   H289  611   5.227   4.793   6.125  0.6737 -2.4088  0.8644
    2MOL   C290  612   5.346   4.863   5.961 -0.3751  0.2607  0.0256
    2MOL   C291  613   5.263   4.981   5.912  0.4440 -0.3539  0.2785
    2MOL   C292  614   5.243   5.001   5.773 -0.0042 -0.3188 -0.6436
    2MOL   C293  615   5.160   5.106   5.732  0.3995  0.4881  0.1325
    2MOL   C294  616   5.078   5.174   5.827 -0.0631  0.2566  0.7887
    2MOL  Cl295  617   4.950   5.285   5.779 -0.1942  0.6322  0.0512
    2MOL   C296  618   5.095   5.156   5.966  0.6629 -0.0466 -0.0642
    2MOL   C297  619   5.189   5.059   6.009 -0.5228 -0.3943 -0.1783
    2MOL   C298  620   5.475   4.905   6.040  0.1144 -0.8190  0.4622
    2MOL   H299  621   5.385   4.807   5.875 -0.3953 -0.0431  0.2157
    2MOL   H300  622   5.301   4.939   5.705  2.5190 -1.5687  2.4826
    2MOL   H301  623   5.135   5.107   5.627  0.8759  0.3329  0.0175
    2MOL   H302  624   5.026   5.199   6.037 -0.8373 -0.2301 -1.4172
    2MOL   H303  625   5.194   5.043   6.115 -1.0334 -0.4136 -0.1567
    2MOL   H304  626   5.445   4.929   6.142 -0.6702 -0.2548  0.1029
    2MOL   H305  627   5.541   4.818   6.046 -0.9721 -1.7823 -1.1741
    2MOL   C306  628   5.555   5.020   5.985  0.5046 -0.5616  0.0364
    2MOL   C307  629   5.673   5.062   6.071  0.8374 -0.5190 -0.2023
    2MOL   C308  630   5.779   4.975   6.103 -0.4177 -0.0811  0.3564
    2MOL   C309  631   5.874   5.005   6.199 -0.0691  0.1169 -0.8219
    2MOL   C310  632   5.861   5.121   6.278 -0.3432 -0.1254  0.2267
    2MOL  Cl311  633   5.952   5.135   6.418  0.1111 -0.1933 -0.2334
    2MOL   C312  634   5.754   5.210   6.256  0.6563  0.2062  0.5636
    2MOL   C313  635   5.661   5.173   6.152  0.1418 -0.4123  0.5128
    2MOL   C314  636   5.603   5.002   5.839 -0.3732  0.3706 -0.1548
    2MOL   H315  637   5.488   5.105   5.978  0.0019 -0.9459  0.1248
    2MOL   H316  638   5.791   4.889   6.038  2.7316  0.1503  0.5468
    2MOL   H317  639   5.951   4.931   6.218 -0.7431 -0.6669 -1.1670
    2MOL   H318  640   5.738   5.296   6.319  2.0572 -0.3292  1.6594
    2MOL   H319  641   5.580   5.244   6.150  0.8998  0.4927  1.4563
    2MOL   H320  642   5.659   4.909   5.829 -2.1622 -0.4538 -3.2930
    2MOL   H321  643   5.516   4.986   5.774  1.4660  0.0158 -2.6193
    2MOL   H322  644   5.668   5.080   5.800 -0.9114  0.9653  0.1305
    3MOL     C1  645   0.970   5.054   5.017  0.3489  0.1362  0.5606
    3MOL     C2  646   1.017   5.116   5.144  0.2507  0.1561 -0.8901
    3MOL     C3  647   0.952   5.092   5.267 -0.0274 -0.2023 -0.6796
    3MOL     C4  648   1.019   5.140   5.383  0.2909 -0.6897 -0.0861
    3MOL     C5  649   1.136   5.216   5.380  0.3416 -0.1819  0.7387
    3MOL    Cl6  650   1.213   5.260   5.528 -0.0838 -0.1062 -0.1960
    3MOL     C7  651   1.189   5.255   5.253  0.8577  0.0681 -0.2968
    3MOL     C8  652   1.128   5.210   5.138 -0.8306 -0.6046 -0.1591
    3MOL     C9  653   0.898   5.157   4.928 -0.1668 -0.4585  0.1289
    3MOL    H10  654   0.914   4.962   5.034  1.0275 -0.3274  0.2972
    3MOL    H11  655   0.873   5.019   5.277 -0.1810  0.0375 -0.1351
    3MOL    H12  656   0.980   5.107   5.477  0.1569  0.5493  0.3065
    3MOL    H13  657   1.274   5.321   5.246  0.5372  0.5094 -0.0983
    3MOL    H14  658   1.178   5.226   5.044  0.1409  1.0668  0.6246
    3MOL    H15  659   0.930   5.256   4.960  1.5997 -0.9076 -0.2054
    3MOL    H16  660   0.945   5.146   4.830 -0.4276  2.1553 -0.3366
    3MOL    H17  661   1.056   5.025   4.956 -1.0588 -0.3824 -1.2207
    3MOL    C18  662   0.741   5.139   4.920  0.3428  0.2166  0.5644
    3MOL    C19  663   0.676   5.121   5.058  0.3786 -0.4369 -0.2259
    3MOL    C20  664   0.691   5.228   5.151  0.0502  0.0793 -0.9324
    3MOL    C21  665   0.633   5.228   5.281  0.0338 -0.5353 -0.9006
    3MOL    C22  666   0.554   5.119   5.321  0.4949 -0.6287  0.1315
    3MOL   Cl23  667   0.490   5.102   5.476  0.2778  0.4230 -0.1654
    3MOL    C24  668   0.536   5.013   5.226 -0.0478  0.2161 -0.7418
    3MOL    C25  669   0.603   5.008   5.104 -0.2705  0.0606  0.0168
    3MOL    C26  670   0.676   5.259   4.849  0.4223 -0.0897  0.2043
    3MOL    H27  671   0.726   5.053   4.854 -0.8873 -0.7179  2.0390
    3MOL    H28  672   0.753   5.312   5.123  2.5611 -0.3604  2.8066
    3MOL    H29  673   0.652   5.303   5.356 -1.0727 -0.9882 -0.1526
    3MOL    H30  674   0.473   4.930   5.254  1.0879 -1.4511 -2.9566
    3MOL    H31  675   0.587   4.931   5.030  3.5726 -0.1185 -0.7509
    3MOL    H32  676   0.687   5.344   4.916  0.4582  0.0237  0.0546
    3MOL    H33  677   0.744   5.277   4.765 -0.5372  0.4282 -0.4700
    3MOL    C34  678   0.528   5.248   4.801 -0.2312  0.6841  0.2423
    3MOL    C35  679   0.466   5.385   4.819 -0.6060  0.2732  0.1232
    3MOL    C36  680   0.347   5.403   4.888 -0.3786 -0.0524  0.6414
    3MOL    C37  681   0.300   5.527   4.916  0.3830  0.1095 -0.2932
    3MOL    C38  682   0.361   5.643   4.864 -0.1229 -0.3488 -0.2055
    3MOL   Cl39  683   0.290   5.798   4.896  0.0709 -0.6159 -0.4917
    3MOL    C40  684   0.485   5.630   4.801  0.2575  0.3622  0.8541
    3MOL    C41  685   0.538   5.498   4.773  0.8889 -0.0820  0.1571
    3MOL    C42  686   0.507   5.203   4.657 -0.0680 -0.5354  0.0481
    3MOL    H43  687   0.471   5.179   4.864 -1.5431  0.0145 -1.6247
    3MOL    H44  688   0.295   5.313   4.918  0.0505 -0.1440  1.1286
    3MOL    H45  689   0.201   5.537   4.957  0.9973 -0.4089  1.3382
    3MOL    H46  690   0.530   5.727   4.785 -1.2598  0.9651  0.1075
    3MOL    H47  691   0.632   5.496   4.719  1.0396 -1.6332  0.4596
    3MOL    H48  692   0.405   5.238   4.644 -0.2934 -0.6368  1.3949
    3MOL    H49  693   0.559   5.263   4.583 -0.8493 -1.3283 -1.1664
    3MOL    C50  694   0.522   5.055   4.615  0.4383  0.2185 -0.6055
    3MOL    C51  695   0.430   4.963   4.705 -0.5202 -0.6055  0.1504
    3MOL    C52  696   0.292   4.979   4.715  0.2500  0.0074 -0.2068
    3MOL    C53  697   0.214   4.905   4.807  0.7819 -0.3736 -0.5657
    3MOL    C54  698   0.285   4.804   4.886  0.5521 -0.2666 -0.1406
    3MOL   Cl55  699   0.198   4.697   4.993 -0.0548 -0.2260  0.0049
    3MOL    C56  700   0.425   4.784   4.870 -0.2808 -0.4992  0.3840
    3MOL    C57  701   0.492   4.870   4.783 -0.5448  0.0287 -0.0915
    3MOL    C58  702   0.474   5.039   4.468 -0.4550 -0.0641 -0.8324
    3MOL    H59  703   0.628   5.030   4.620  0.5557  0.8207 -0.0448
    3MOL    H60  704   0.240   5.053   4.656  0.5966  1.0756  0.8044
    3MOL    H61  705   0.109   4.919   4.828  0.8345 -0.2148 -0.4057
    3MOL    H62  706   0.473   4.712   4.935  0.3201  2.3991  3.2362
    3MOL    H63  707   0.598   4.855   4.776 -0.2544  2.1348 -0.3961
    3MOL    H64  708   0.430   4.939   4.471 -0.9102  0.1234 -1.1674
    3MOL    H65  709   0.392   5.102   4.433 -0.6218 -0.4590 -1.1602
    3MOL    C66  710   0.593   5.032   4.371 -0.1146 -0.3459 -0.5138
    3MOL    C67  711   0.571   4.943   4.246 -0.0406 -0.5693 -0.6171
    3MOL    C68  712   0.684   4.898   4.179 -0.2309 -0.6553  0.5171
    3MOL    C69  713   0.662   4.812   4.066 -0.3885  0.0545 -0.5751
    3MOL    C70  714   0.537   4.799   4.010  0.1158 -0.2343 -0.0538
    3MOL   Cl71  715   0.522   4.699   3.873 -0.1072  0.0109  0.1462
    3MOL    C72  716   0.427   4.854   4.073  0.3911 -0.4492  0.1507
    3MOL    C73  717   0.442   4.921   4.197 -0.1959 -0.1951 -0.0237
    3MOL    C74  718   0.654   5.175   4.334  0.4398  0.3879  0.7888
    3MOL    H75  719   0.675   4.980   4.420 -0.0789  0.5391  0.3931
    3MOL    H76  720   0.786   4.918   4.209  0.6007 -1.1384 -1.8714
    3MOL    H77  721   0.754   4.773   4.024  0.1498 -0.9989  1.5275
    3MOL    H78  722   0.331   4.844   4.025  0.5727  0.4529 -0.4208
    3MOL    H79  723   0.356   4.966   4.244 -0.1845 -0.0702 -0.1240
    3MOL    H80  724   0.680   5.230   4.424 -0.2430  1.1766  0.5155
    3MOL    H81  725   0.753   5.158   4.293 -0.4802 -1.6972 -0.7003
    3MOL    C82  726   0.593   5.255   4.223  0.0839  0.2464 -0.3727
    3MOL    C83  727   0.448   5.301   4.268  0.5034  0.2932 -0.2867
    3MOL    C84  728   0.427   5.402   4.361 -0.8127  0.5087 -0.2385
    3MOL    C85  729   0.300   5.452   4.395  1.2142  0.1512 -0.6526
    3MOL    C86  730   0.188   5.398   4.327  0.4890 -0.4421  0.7367
    3MOL   Cl87  731   0.037   5.466   4.356 -0.1301  0.2291  0.3980
    3MOL    C88  732   0.202   5.293   4.231  0.3718 -0.0670 -0.8596
    3MOL    C89  733   0.332   5.253   4.204 -0.0260  0.1927  0.2774
    3MOL    C90  734   0.679   5.370   4.176 -0.2181 -0.4193  0.2171
    3MOL    H91  735   0.585   5.188   4.137  1.5909  0.9468 -1.0967
    3MOL    H92  736   0.517   5.447   4.399 -0.1603 -2.8147  2.3605
    3MOL    H93  737   0.290   5.532   4.468  2.8570  0.1304 -0.3833
    3MOL    H94  738   0.117   5.254   4.178 -2.5438  2.9640  1.3053
    3MOL    H95  739   0.351   5.169   4.138  0.1646 -0.6419  1.3662
    3MOL    H96  740   0.722   5.426   4.259  0.4497  0.5529 -0.7625
    3MOL    H97  741   0.774   5.336   4.133  0.1167  1.0543 -0.2419
    3MOL    C98  742   0.611   5.475   4.093 -0.4059 -0.1525 -0.4431
    3MOL    C99  743   0.699   5.600   4.069 -0.0857 -0.6656 -0.0491
    3MOL   C100  744   0.639   5.728   4.082  0.3175  0.0979  0.2450
    3MOL   C101  745   0.713   5.850   4.054  0.9042 -0.4754 -0.4005
    3MOL   C102  746   0.845   5.834   4.009 -1.2874 -0.1039 -0.0877
    3MOL  Cl103  747   0.935   5.974   3.978 -0.4592  0.1421  0.3290
    3MOL   C104  748   0.901   5.704   3.993  0.6662 -0.8768 -0.2877
    3MOL   C105  749   0.828   5.589   4.030  0.2162  0.5955  0.2772
    3MOL   C106  750   0.573   5.412   3.955  0.1691  0.2712  0.6588
    3MOL   H107  751   0.516   5.510   4.134 -0.2332  0.1228 -0.2697
    3MOL   H108  752   0.535   5.743   4.109  0.7003  2.4784  0.5104
    3MOL   H109  753   0.672   5.950   4.064 -2.5345 -1.7558 -0.7217
    3MOL   H110  754   0.996   5.699   3.942  1.1286 -1.3326  0.6130
    3MOL   H111  755   0.882   5.496   4.020  2.5893  2.1574 -2.4901
    3MOL   H112  756   0.658   5.393   3.889 -0.3677  1.0266 -0.2638
    3MOL   H113  757   0.524   5.316   3.969  1.0826 -0.1831  0.7944
    3MOL   C114  758   0.480   5.500   3.860  0.5840 -0.3866 -0.5648
    3MOL   C115  759   0.490   5.459   3.712  0.1028 -0.3262 -0.2099
    3MOL   C116  760   0.585   5.524   3.629 -0.2243  0.0009  1.1168
    3MOL   C117  761   0.585   5.498   3.488  0.2725  0.1121 -0.0964
    3MOL   C118  762   0.481   5.417   3.439 -0.3930 -0.0481 -0.1829
    3MOL  Cl119  763   0.488   5.389   3.270  0.2599  0.1287  0.1412
    3MOL   C120  764   0.384   5.352   3.520  0.1008  0.4717  1.0001
    3MOL   C121  765   0.394   5.375   3.655 -0.1789 -0.2482 -0.0240
    3MOL   C122  766   0.338   5.520   3.904  0.4112  0.2286 -0.0690
    3MOL   H123  767   0.517   5.602   3.864 -1.0929  0.1745  1.6791
    3MOL   H124  768   0.646   5.602   3.671  0.3778  0.7756 -1.1897
    3MOL   H125  769   0.654   5.545   3.420  0.4634 -0.5041 -0.3271
    3MOL   H126  770   0.308   5.286   3.480  1.0906 -1.1938  1.8043
    3MOL   H127  771   0.322   5.328   3.721 -0.7671  2.1350  1.0671
    3MOL   H128  772   0.292   5.424   3.882  0.4754  0.6381 -2.1190
    3MOL   H129  773   0.332   5.537   4.011  0.1387 -1.9246  0.2759
    3MOL   C130  774   0.262   5.634   3.837  0.4414  0.4195  0.2848
    3MOL   C131  775   0.113   5.608   3.838  0.2580 -0.4376  0.7221
    3MOL   C132  776   0.041   5.602   3.957 -0.2990  0.1096  0.1126
    3MOL   C133  777   8.343   5.585   3.962 -0.1422 -0.1096 -0.3676
    3MOL   C134  778   8.270   5.584   3.843 -0.8450  0.2487  0.0119
    3MOL  Cl135  779   8.095   5.571   3.847 -0.1065  0.2184 -0.3507
    3MOL   C136  780   8.340   5.581   3.724 -0.0333 -0.0998  0.4862
    3MOL   C137  781   0.035   5.591   3.724 -0.4969 -0.8523 -0.4818
    3MOL   C138  782   0.292   5.771   3.910 -0.5839  0.1975 -0.2578
    3MOL   H139  783   0.293   5.640   3.733  0.0576  1.7083  0.2270
    3MOL   H140  784   0.097   5.594   4.049 -0.3027  0.5222  0.1508
    3MOL   H141  785   8.288   5.590   4.054 -1.4217  2.9029 -1.2499
    3MOL   H142  786   8.293   5.578   3.628  1.6437  1.4418 -0.4177
    3MOL   H143  787   0.092   5.592   3.632 -0.1348  1.5572 -0.2560
    3MOL   H144  788   0.223   5.801   3.989 -0.9101 -1.8293  0.2706
    3MOL   H145  789   0.393   5.769   3.952  0.3940 -0.1777 -2.5829
    3MOL   C146  790   0.303   5.891   3.806 -0.6866 -0.0849 -1.0143
    3MOL   C147  791   0.415   5.873   3.702 -0.2849  1.0274 -0.1317
    3MOL   C148  792   0.543   5.897   3.745 -0.5331  0.0808  0.0910
    3MOL   C149  793   0.656   5.877   3.654  0.4548  0.7475 -0.1623
    3MOL   C150  794   0.625   5.832   3.524  0.0278 -0.4316 -0.0466
    3MOL  Cl151  795   0.766   5.797   3.427 -0.6925  0.0143 -0.1910
    3MOL   C152  796   0.492   5.810   3.483 -0.4848 -0.5361  0.6008
    3MOL   C153  797   0.389   5.813   3.574  0.5952  0.3278 -0.0961
    3MOL   C154  798   0.173   5.947   3.765 -0.1214  0.4377  0.0620
    3MOL   H155  799   0.345   5.969   3.870 -2.0548  1.4309 -1.9347
    3MOL   H156  800   0.570   5.938   3.841  5.1532 -0.8266 -0.9495
    3MOL   H157  801   0.754   5.888   3.697 -0.1964  1.0093  1.2867
    3MOL   H158  802   0.476   5.760   3.388 -0.3160 -0.5911  0.6019
    3MOL   H159  803   0.290   5.775   3.551  0.2440  0.9107  0.4123
    3MOL   H160  804   0.121   5.860   3.726 -2.0118  1.7918 -0.4739
    3MOL   H161  805   0.117   5.972   3.855 -1.4395 -0.7445 -0.4055
    3MOL   C162  806   0.163   6.057   3.660 -0.2401  0.0839 -0.4747
    3MOL   C163  807   0.014   6.074   3.638  0.6658  0.8612  0.0863
    3MOL   C164  808   8.367   6.140   3.732 -0.2535 -0.4319  0.2552
    3MOL   C165  809   8.237   6.177   3.693  0.2090  0.1193 -0.0941
    3MOL   C166  810   8.195   6.140   3.564 -0.4433 -0.1569  0.0362
    3MOL  Cl167  811   8.043   6.201   3.525  0.3168  0.1327 -0.0508
    3MOL   C168  812   8.279   6.077   3.475  0.0159  0.2112 -0.8998
    3MOL   C169  813   8.407   6.041   3.508 -0.6346 -0.2734 -0.2315
    3MOL   C170  814   0.232   6.194   3.705  0.2936 -0.6309  0.0435
    3MOL   H171  815   0.194   6.022   3.562  1.7532  0.6423 -0.0548
    3MOL   H172  816   8.400   6.163   3.832 -2.1348  0.3759  0.7236
    3MOL   H173  817   8.163   6.224   3.756 -0.6519  0.1036 -1.0813
    3MOL   H174  818   8.254   6.066   3.370 -1.8174  1.5019 -0.6178
    3MOL   H175  819   0.026   5.998   3.431 -2.6970 -0.3720 -1.8906
    3MOL   H176  820   0.195   6.203   3.807  2.1094  0.0668  0.6670
    3MOL   H177  821   0.341   6.189   3.711  0.4897  2.0285 -0.7813
    3MOL   C178  822   0.176   6.326   3.640 -0.2030 -0.5377  0.8741
    3MOL   C179  823   0.190   6.448   3.726 -0.1048 -0.2629 -0.1005
    3MOL   C180  824   0.089   6.493   3.811 -0.5796 -0.0347 -0.3014
    3MOL   C181  825   0.114   6.607   3.893  0.0689 -0.0671 -0.2203
    3MOL   C182  826   0.246   6.653   3.914  0.0980  0.1584 -0.5631
    3MOL  Cl183  827   0.290   6.762   4.035  0.5824 -0.2314 -0.2266
    3MOL   C184  828   0.350   6.600   3.841 -0.2942  0.1521  0.0558
    3MOL   C185  829   0.320   6.496   3.749 -1.2475  0.2262 -0.0931
    3MOL   C186  830   0.240   6.345   3.499  0.0403  0.4268 -0.4619
    3MOL   H187  831   0.070   6.313   3.618 -0.2490  0.3993  0.5462
    3MOL   H188  832   8.431   6.455   3.803 -0.8215  0.8182 -1.4814
    3MOL   H189  833   0.028   6.631   3.953  0.9478 -2.2659  2.0149
    3MOL   H190  834   0.448   6.639   3.866 -0.3508  1.7788 -2.0900
    3MOL   H191  835   0.397   6.442   3.696 -0.6326 -2.8567  3.7246
    3MOL   H192  836   0.348   6.357   3.500  0.0419  0.3829  0.4090
    3MOL   H193  837   0.232   6.250   3.447 -0.4408  0.4972 -0.5184
    3MOL   C194  838   0.160   6.455   3.427 -0.5907  0.3452  0.2204
    3MOL   C195  839   0.244   6.538   3.322  0.3723  1.1581 -0.6684
    3MOL   C196  840   0.223   6.679   3.310  0.0529 -0.3384  0.4925
    3MOL   C197  841   0.312   6.755   3.233  0.1878  0.2491 -0.0070
    3MOL   C198  842   0.417   6.693   3.163 -0.2949  0.0313 -0.1418
    3MOL  Cl199  843   0.524   6.790   3.071  0.1470  0.1303  0.2883
    3MOL   C200  844   0.434   6.554   3.171  0.1751 -0.0984 -0.6549
    3MOL   C201  845   0.350   6.473   3.248 -0.4013 -1.2196 -0.2839
    3MOL   C202  846   0.027   6.405   3.357  0.0407  0.3227 -0.0213
    3MOL   H203  847   0.130   6.533   3.496 -0.1632  0.9534 -0.2668
    3MOL   H204  848   0.148   6.727   3.371  1.3952  1.9348  0.4206
    3MOL   H205  849   0.308   6.863   3.230 -0.7225  0.1929 -0.8636
    3MOL   H206  850   0.519   6.517   3.117  1.3735  1.7803 -0.0832
    3MOL   H207  851   0.363   6.368   3.267  1.6219 -0.4786  2.7141
    3MOL   H208  852   0.064   6.352   3.270  2.2277 -1.4594  1.9285
    3MOL   H209  853   8.413   6.336   3.420  0.2402  1.0137  0.9410
    3MOL   C210  854   8.376   6.519   3.313 -0.6265  0.2027 -1.0881
    3MOL   C211  855   8.300   6.484   3.185 -1.6406 -0.2300 -0.8578
    3MOL   C212  856   8.232   6.365   3.178 -0.1490  0.8214  0.5654
    3MOL   C213  857   8.169   6.331   3.054 -0.8855  0.5913  0.7313
    3MOL   C214  858   8.178   6.420   2.941  0.1581 -0.4472  0.5318
    3MOL  Cl215  859   8.104   6.368   2.793 -0.2802 -0.0111  0.0984
    3MOL   C216  860   8.238   6.544   2.961 -0.0690  0.2964  0.1813
    3MOL   C217  861   8.298   6.574   3.082  0.0795  0.6197 -0.3350
    3MOL   C218  862   8.269   6.538   3.425  0.5283 -0.0824  0.2994
    3MOL   H219  863   8.438   6.607   3.298 -2.1302  1.1893 -1.6279
    3MOL   H220  864   8.238   6.297   3.262  1.4784  1.8620  1.3109
    3MOL   H221  865   8.122   6.236   3.037  1.8737 -0.8265  0.8289
    3MOL   H222  866   8.230   6.619   2.883  1.1432  1.6863  1.3766
    3MOL   H223  867   8.357   6.662   3.101  1.5463 -0.9895  2.7820
    3MOL   H224  868   8.199   6.454   3.423  1.3017 -0.7257 -1.0926
    3MOL   H225  869   8.313   6.539   3.524  1.2753  0.8758 -0.0301
    3MOL   C226  870   8.177   6.662   3.407  0.5975 -0.1373 -1.0295
    3MOL   C227  871   8.061   6.632   3.502 -0.0061  0.5063 -0.8321
    3MOL   C228  872   8.087   6.630   3.642  0.0875 -0.0934  0.3175
    3MOL   C229  873   7.992   6.581   3.731  0.4852 -0.6601  0.0219
    3MOL   C230  874   7.864   6.537   3.678 -0.0869  0.2768 -0.1326
    3MOL  Cl231  875   7.743   6.479   3.792 -0.0727  0.3045 -0.4545
    3MOL   C232  876   7.835   6.545   3.540  0.3863  0.3339  0.2945
    3MOL   C233  877   7.940   6.588   3.456  0.3273  0.0979  0.3661
    3MOL   C234  878   8.240   6.805   3.399  0.0324  0.1095  0.2850
    3MOL   H235  879   8.128   6.641   3.312 -2.1523 -1.0379  0.5257
    3MOL   H236  880   8.185   6.649   3.684 -0.3244  1.9770  0.3751
    3MOL   H237  881   8.003   6.571   3.838 -1.4246  0.8636  0.3865
    3MOL   H238  882   7.742   6.503   3.504 -0.3050  2.1432 -0.0609
    3MOL   H239  883   7.930   6.574   3.349  0.6754  0.0105  0.3459
    3MOL   H240  884   8.316   6.818   3.475  2.4939 -3.0121 -1.5237
    3MOL   H241  885   8.293   6.815   3.304 -0.4295  1.4942  0.1607
    3MOL   C242  886   8.125   6.915   3.391 -0.2369 -0.4161  0.4572
    3MOL   C243  887   8.185   7.056   3.414 -0.0648  0.2812  0.1647
    3MOL   C244  888   8.119   7.159   3.497 -0.2379  0.0011  0.5189
    3MOL   C245  889   8.171   7.285   3.512 -1.1101  1.0115  0.2529
    3MOL   C246  890   8.288   7.320   3.446 -0.6996 -0.4194  0.9208
    3MOL  Cl247  891   8.347   7.482   3.452  0.2733 -0.0942  0.2612
    3MOL   C248  892   8.347   7.227   3.358 -0.1531  0.2556 -0.8881
    3MOL   C249  893   8.308   7.092   3.353 -0.0042  0.1693  0.0996
    3MOL   C250  894   8.032   6.899   3.265 -0.0360 -0.4537  0.1226
    3MOL   H251  895   8.053   6.902   3.472  0.1175  0.2169  0.8754
    3MOL   H252  896   8.023   7.141   3.542 -0.8265 -3.3943 -1.9017
    3MOL   H253  897   8.114   7.357   3.569 -1.7576  0.6148  0.1080
    3MOL   H254  898   0.000   7.260   3.322 -1.1880  0.9278 -3.1566
    3MOL   H255  899   8.372   7.023   3.300  0.1052  0.1237  0.2893
    3MOL   H256  900   8.073   6.823   3.198  1.1360 -0.2074  0.5464
    3MOL   H257  901   7.939   6.860   3.306 -0.4805  0.6281  0.1597
    3MOL   C258  902   7.999   7.026   3.183 -0.2809  0.0377  0.1127
    3MOL   C259  903   8.122   7.066   3.087  0.9142  0.4359 -0.3744
    3MOL   C260  904   8.195   6.960   3.027  0.3872  0.2609 -0.1411
    3MOL   C261  905   8.305   6.995   2.948 -0.0426  0.5596  0.5346
    3MOL   C262  906   8.344   7.128   2.925  0.1126 -0.0398 -0.1513
    3MOL  Cl263  907   0.035   7.170   2.825 -0.5815 -0.1353 -0.2468
    3MOL   C264  908   8.265   7.233   2.985  0.6660  0.3390  0.1434
    3MOL   C265  909   8.153   7.201   3.064 -0.0145  0.5897 -0.4128
    3MOL   C266  910   7.860   7.011   3.111 -0.2025  0.4985  0.2100
    3MOL   H267  911   7.985   7.106   3.256  3.3188 -0.6556  1.6659
    3MOL   H268  912   8.170   6.855   3.030  0.8510  0.1578  0.1054
    3MOL   H269  913   8.351   6.916   2.891 -3.0717  0.5669 -2.0560
    3MOL   H270  914   8.285   7.338   2.971 -0.6022  0.6672  0.7296
    3MOL   H271  915   8.091   7.283   3.098 -1.1825  0.1119 -1.3356
    3MOL   H272  916   7.784   7.003   3.190  1.2021 -0.3469  1.5036
    3MOL   H273  917   7.832   7.102   3.058  0.5849 -0.0339 -1.1221
    3MOL   C274  918   7.844   6.910   2.994  0.4490 -0.4405 -0.6980
    3MOL   C275  919   7.814   6.764   3.040 -0.1990  0.4379  0.1792
    3MOL   C276  920   7.696   6.746   3.111  0.7080 -0.3944 -0.2715
    3MOL   C277  921   7.666   6.620   3.164  0.4714 -0.5243 -0.2982
    3MOL   C278  922   7.752   6.507   3.131  1.1130  0.0174  0.2283
    3MOL  Cl279  923   7.710   6.351   3.177 -0.2918  0.0312  0.0067
    3MOL   C280  924   7.864   6.527   3.044 -0.3049 -0.4912 -0.1739
    3MOL   C281  925   7.898   6.653   3.003 -0.1783 -0.2508  0.0046
    3MOL   C282  926   7.732   6.948   2.890 -0.3377  0.5669 -0.9246
    3MOL   H283  927   7.945   6.916   2.955  0.5173  1.8225 -0.2462
    3MOL   H284  928   7.637   6.831   3.142 -3.2432 -2.8341 -0.6360
    3MOL   H285  929   7.574   6.609   3.218  0.4615  1.2476  0.0628
    3MOL   H286  930   7.916   6.438   3.014 -1.7270 -1.2365 -0.4606
    3MOL   H287  931   7.986   6.671   2.943  0.0771  0.4619  0.5885
    3MOL   H288  932   7.635   6.938   2.937  0.0618 -2.2840 -0.6222
    3MOL   H289  933   7.756   7.050   2.862 -1.4053  1.3909  1.0730
    3MOL   C290  934   7.721   6.863   2.767  0.0683  0.3767 -0.0983
    3MOL   C291  935   7.588   6.894   2.691 -1.0025 -1.1319 -0.5755
    3MOL   C292  936   7.583   6.962   2.572  0.6157 -1.1499  0.6738
    3MOL   C293  937   7.457   6.992   2.517  0.0647  0.5917  0.1574
    3MOL   C294  938   7.343   6.944   2.588  0.0310  0.2599 -0.1307
    3MOL  Cl295  939   7.185   6.988   2.530 -0.0974 -0.1671 -0.0592
    3MOL   C296  940   7.348   6.853   2.692  0.1731 -0.1766 -0.2331
    3MOL   C297  941   7.474   6.828   2.744 -0.3029 -0.8057  0.2711
    3MOL   C298  942   7.851   6.877   2.678 -0.1558  0.0712  0.0424
    3MOL   H299  943   7.711   6.757   2.793 -0.2097  0.1907 -0.9669
    3MOL   H300  944   7.669   7.015   2.532  0.5484  0.7963  2.9770
    3MOL   H301  945   7.443   7.060   2.434  1.8136 -0.8004 -1.3300
    3MOL   H302  946   7.256   6.800   2.714  1.0509 -1.4525  0.4405
    3MOL   H303  947   7.488   6.755   2.823 -3.2404  1.1838  2.7862
    3MOL   H304  948   7.865   6.981   2.647  0.8929 -0.2478 -0.5783
    3MOL   H305  949   7.941   6.854   2.734 -0.4127 -2.1681 -0.4442
    3MOL   C306  950   7.859   6.770   2.562  0.6565 -0.4203  0.4124
    3MOL   C307  951   7.932   6.840   2.452 -0.0532 -0.5269  0.3450
    3MOL   C308  952   8.045   6.923   2.481  0.2883 -0.1618 -0.0394
    3MOL   C309  953   8.092   7.004   2.373  0.3967  0.6548  0.5784
    3MOL   C310  954   8.029   6.999   2.249 -0.4971 -0.6975  0.4005
    3MOL  Cl311  955   8.077   7.115   2.124 -0.0020  0.3219 -0.0594
    3MOL   C312  956   7.929   6.905   2.219  0.2841  0.2950 -0.9613
    3MOL   C313  957   7.884   6.825   2.318  0.0920  0.7244  0.4040
    3MOL   C314  958   7.939   6.639   2.599  0.0274 -0.1840 -0.5568
    3MOL   H315  959   7.763   6.744   2.518  0.1187  2.9456 -0.5064
    3MOL   H316  960   8.094   6.926   2.578  0.7025  0.6601 -0.2631
    3MOL   H317  961   8.170   7.076   2.392  0.8474  0.0545  1.0603
    3MOL   H318  962   7.892   6.909   2.117 -0.1176 -0.8553 -0.8652
    3MOL   H319  963   7.797   6.763   2.301  1.6753 -1.9140  1.5745
    3MOL   H320  964   7.883   6.583   2.674  0.4661  0.0842 -0.0262
    3MOL   H321  965   7.952   6.572   2.514  0.5107 -2.2980  1.1520
    3MOL   H322  966   8.037   6.658   2.643 -1.2618  0.3812  2.1973
    4MOL     C1  967   0.670   2.537   2.382 -0.0694 -0.0390 -0.6492
    4MOL     C2  968   0.724   2.676   2.399 -0.8471 -0.0650 -0.1638
    4MOL     C3  969   0.660   2.764   2.484 -0.4532 -0.3040 -0.0725
    4MOL     C4  970   0.696   2.899   2.481 -0.1874 -0.2571 -0.1411
    4MOL     C5  971   0.803   2.942   2.405 -0.1274 -0.1493  1.0969
    4MOL    Cl6  972   0.849   3.103   2.395  0.1078 -0.1855 -0.3643
    4MOL     C7  973   0.867   2.851   2.319  0.3503  0.3257 -0.7180
    4MOL     C8  974   0.824   2.720   2.310  0.1323  0.5635  0.2109
    4MOL     C9  975   0.744   2.416   2.443  0.0643  0.4084 -0.4171
    4MOL    H10  976   0.671   2.532   2.273  1.5361  1.5824 -0.7317
    4MOL    H11  977   0.579   2.725   2.543  0.6629 -2.0924  0.3118
    4MOL    H12  978   0.649   2.967   2.551  0.1174  0.4706 -0.6367
    4MOL    H13  979   0.940   2.881   2.246  0.3482 -2.1590 -1.7957
    4MOL    H14  980   0.854   2.659   2.226  0.4512  1.3274 -0.2341
    4MOL    H15  981   0.852   2.432   2.435  0.2651 -0.6099  0.1133
    4MOL    H16  982   0.703   2.422   2.544 -0.2353 -0.3149 -0.4955
    4MOL    H17  983   0.565   2.537   2.411 -0.3602  0.2003 -1.6832
    4MOL    C18  984   0.717   2.277   2.387 -0.1675  0.7968  0.3485
    4MOL    C19  985   0.741   2.282   2.233  0.5631 -0.5589 -0.8652
    4MOL    C20  986   0.640   2.269   2.138  0.2750  0.2265  0.3308
    4MOL    C21  987   0.668   2.270   2.000 -0.0815 -0.7976 -0.5221
    4MOL    C22  988   0.802   2.285   1.960  0.0911 -0.1253 -0.1705
    4MOL   Cl23  989   0.834   2.269   1.791  0.0336 -0.3376 -0.0278
    4MOL    C24  990   0.907   2.305   2.050 -0.0421 -0.2269 -0.6708
    4MOL    C25  991   0.874   2.304   2.189 -0.1209 -0.5099 -0.0977
    4MOL    C26  992   0.797   2.170   2.464  0.9241  0.3845 -0.3194
    4MOL    H27  993   0.613   2.247   2.403  0.1794  0.1916  1.5733
    4MOL    H28  994   0.542   2.246   2.178  0.0063 -0.7008 -0.8426
    4MOL    H29  995   0.591   2.266   1.925 -0.3134 -2.8769 -0.2001
    4MOL    H30  996   1.012   2.309   2.025 -0.0612 -2.1118 -1.1398
    4MOL    H31  997   0.953   2.313   2.261 -1.7694 -0.7526  1.7739
    4MOL    H32  998   0.897   2.174   2.422  1.2315 -1.6484  0.1803
    4MOL    H33  999   0.796   2.195   2.570 -0.5033 -0.4591 -0.1042
    4MOL    C34 1000   0.749   2.024   2.465 -0.0213  0.3441  0.1847
    4MOL    C35 1001   0.780   1.965   2.325  0.8877  0.8668 -0.8343
    4MOL    C36 1002   0.678   1.965   2.229  0.6027 -0.0456  0.3463
    4MOL    C37 1003   0.708   1.926   2.092 -0.7237 -0.0590  0.1511
    4MOL    C38 1004   0.843   1.881   2.058 -0.2781 -0.1807  0.5176
    4MOL   Cl39 1005   0.879   1.821   1.906  0.1689  0.0583 -0.3109
    4MOL    C40 1006   0.948   1.890   2.152 -0.4685 -0.4357  1.1197
    4MOL    C41 1007   0.914   1.926   2.283 -0.1190  0.0946  1.6919
    4MOL    C42 1008   0.809   1.924   2.577 -1.0978  0.5904  0.4106
    4MOL    H43 1009   0.642   2.023   2.482 -0.4884 -0.6802 -2.6686
    4MOL    H44 1010   0.580   2.004   2.250  0.3214  1.1408 -2.8400
    4MOL    H45 1011   0.624   1.901   2.029  1.1095 -0.8186 -2.0529
    4MOL    H46 1012   1.046   1.858   2.120 -0.2942  0.6385  0.5646
    4MOL    H47 1013   1.002   1.948   2.342  1.5664 -0.4703 -0.5598
    4MOL    H48 1014   0.778   1.824   2.547  2.0330  0.1972 -1.7661
    4MOL    H49 1015   0.917   1.917   2.568 -1.2311 -0.8442 -0.2524
    4MOL    C50 1016   0.780   1.967   2.722 -0.4569 -0.4223  1.2633
    4MOL    C51 1017   0.632   1.994   2.742  0.3349  0.2950 -0.3209
    4MOL    C52 1018   0.543   1.885   2.750 -1.0437  0.1537  0.5361
    4MOL    C53 1019   0.408   1.905   2.742  0.7324 -0.1518 -0.7751
    4MOL    C54 1020   0.350   2.032   2.742 -0.2827 -0.6056  0.3578
    4MOL   Cl55 1021   0.181   2.057   2.736 -0.1325 -0.1540  0.2419
    4MOL    C56 1022   0.433   2.143   2.752  0.0143  0.2532  0.8190
    4MOL    C57 1023   0.577   2.125   2.748  0.2943 -0.1962  0.4334
    4MOL    C58 1024   0.844   1.873   2.830  0.2170  0.2697 -0.2301
    4MOL    H59 1025   0.828   2.064   2.738  0.1041 -0.4786 -0.0391
    4MOL    H60 1026   0.578   1.786   2.771  0.5279  0.7738  0.9337
    4MOL    H61 1027   0.340   1.821   2.741  2.1975 -1.4128  0.7621
    4MOL    H62 1028   0.387   2.241   2.755 -0.3268  0.1432 -0.6740
    4MOL    H63 1029   0.643   2.210   2.751  1.1174 -0.8277  0.4537
    4MOL    H64 1030   0.785   1.864   2.921 -1.4209  1.2651 -1.1582
    4MOL    H65 1031   0.844   1.771   2.789  0.3201  0.0595  0.2922
    4MOL    C66 1032   0.999   1.903   2.859 -0.1107  0.5440 -0.3063
    4MOL    C67 1033   1.020   2.015   2.960 -0.3688 -0.6285  0.1950
    4MOL    C68 1034   0.972   1.994   3.093 -0.2553  0.1473 -0.1092
    4MOL    C69 1035   0.996   2.088   3.190  0.6278  0.3957 -0.0715
    4MOL    C70 1036   1.058   2.211   3.159  0.2846 -0.2147 -0.0673
    4MOL   Cl71 1037   1.082   2.328   3.280 -0.3608 -0.3492  0.1158
    4MOL    C72 1038   1.109   2.237   3.029 -0.1206 -0.1511 -0.1066
    4MOL    C73 1039   1.101   2.130   2.935 -0.2536 -0.0421 -0.2071
    4MOL    C74 1040   1.068   1.774   2.901  0.2766 -0.2541  1.2917
    4MOL    H75 1041   1.067   1.932   2.779  2.8329  0.2029  1.9772
    4MOL    H76 1042   0.927   1.900   3.121 -1.8541  0.7339 -0.6779
    4MOL    H77 1043   0.966   2.068   3.292 -1.1332  0.3313 -0.5881
    4MOL    H78 1044   1.166   2.325   3.006 -3.3625  1.9042 -0.6761
    4MOL    H79 1045   1.157   2.136   2.843  0.2410  2.3065  0.2150
    4MOL    H80 1046   1.137   1.799   2.982 -1.4642  1.0743  2.4002
    4MOL    H81 1047   0.995   1.711   2.952 -0.9781 -0.2041 -0.4222
    4MOL    C82 1048   1.135   1.703   2.793 -0.3055 -0.0114  0.3188
    4MOL    C83 1049   1.259   1.790   2.748 -0.8327 -0.0123  0.1098
    4MOL    C84 1050   1.376   1.796   2.826 -0.1858 -0.6783  0.4556
    4MOL    C85 1051   1.486   1.869   2.786  0.0991 -0.3851 -0.2646
    4MOL    C86 1052   1.482   1.947   2.666 -0.4125  0.7153  0.4536
    4MOL   Cl87 1053   1.617   2.050   2.617 -0.4884 -0.1973 -0.0280
    4MOL    C88 1054   1.368   1.949   2.586  0.9570  0.0805 -0.0796
    4MOL    C89 1055   1.261   1.865   2.630 -0.2959 -0.1547 -0.6246
    4MOL    C90 1056   1.168   1.562   2.838 -0.2755 -0.1264 -0.6677
    4MOL    H91 1057   1.065   1.700   2.709  0.8669  0.0633 -0.6840
    4MOL    H92 1058   1.386   1.751   2.924  3.0387  1.2849  1.0701
    4MOL    H93 1059   1.574   1.859   2.848 -1.3641 -0.0496  1.9365
    4MOL    H94 1060   1.367   2.009   2.496 -0.4389 -1.7257 -1.3244
    4MOL    H95 1061   1.176   1.847   2.566  1.2357 -1.0229 -2.4667
    4MOL    H96 1062   1.227   1.556   2.930  0.6203 -1.2927 -1.3004
    4MOL    H97 1063   1.073   1.515   2.864  0.3302 -0.5253  0.9181
    4MOL    C98 1064   1.224   1.468   2.734 -0.7116 -0.2045 -0.0555
    4MOL    C99 1065   1.372   1.504   2.697  0.2209 -0.2608 -0.2463
    4MOL   C100 1066   1.402   1.558   2.571  0.7939  0.2292  0.5734
    4MOL   C101 1067   1.533   1.584   2.533  0.0740  0.0658  0.1839
    4MOL   C102 1068   1.644   1.550   2.620  0.1233 -0.6462  0.0262
    4MOL  Cl103 1069   1.809   1.584   2.578 -0.3892  0.3443 -0.1846
    4MOL   C104 1070   1.620   1.488   2.749  0.6612  0.2488 -0.5003
    4MOL   C105 1071   1.483   1.467   2.782 -0.5368 -0.1265 -0.5808
    4MOL   C106 1072   1.227   1.318   2.773  0.4913 -0.6909 -0.0621
    4MOL   H107 1073   1.171   1.480   2.639 -0.1047 -1.1817 -0.5262
    4MOL   H108 1074   1.326   1.578   2.496  0.8680  0.2140  0.4935
    4MOL   H109 1075   1.560   1.639   2.444  0.9063  0.6331  0.7750
    4MOL   H110 1076   1.703   1.466   2.815 -0.2681  0.5755  0.7790
    4MOL   H111 1077   1.457   1.433   2.881 -1.2003 -1.3640 -1.1731
    4MOL   H112 1078   1.276   1.310   2.870  0.0131 -1.3453  0.1263
    4MOL   H113 1079   1.129   1.273   2.788 -0.0829  0.7036  0.4620
    4MOL   C114 1080   1.299   1.223   2.670  0.5696  0.2574 -0.7805
    4MOL   C115 1081   1.314   1.094   2.743  1.1296  0.3485 -0.2660
    4MOL   C116 1082   1.434   1.071   2.810  0.7612 -0.0927 -0.3063
    4MOL   C117 1083   1.445   0.949   2.886  0.4524  0.2329 -0.5604
    4MOL   C118 1084   1.345   0.850   2.875 -0.3958  0.5882 -0.2047
    4MOL  Cl119 1085   1.358   0.704   2.966  0.0405  0.4637 -0.2553
    4MOL   C120 1086   1.233   0.873   2.799  0.4656 -0.3614 -0.6976
    4MOL   C121 1087   1.213   0.998   2.742 -0.9767  0.1722  0.0999
    4MOL   C122 1088   1.242   1.221   2.524  0.2918  0.2457  0.3098
    4MOL   H123 1089   1.403   1.255   2.658  0.6908 -0.4792 -1.7863
    4MOL   H124 1090   1.506   1.151   2.819  0.4253  0.3299 -1.2316
    4MOL   H125 1091   1.525   0.927   2.955 -0.1755 -0.0016  0.0999
    4MOL   H126 1092   1.156   0.798   2.794  0.1375 -0.0324 -0.6205
    4MOL   H127 1093   1.124   1.032   2.689  0.4532 -0.6576 -2.9772
    4MOL   H128 1094   1.134   1.204   2.524  0.4502 -0.7549  0.5859
    4MOL   H129 1095   1.253   1.321   2.483  0.6426  0.1842  0.2531
    4MOL   C130 1096   1.319   1.138   2.413 -0.0545 -0.1754  0.3276
    4MOL   C131 1097   1.467   1.175   2.418  0.1898 -0.0958  0.1097
    4MOL   C132 1098   1.510   1.301   2.374 -0.3053  0.4688  0.4568
    4MOL   C133 1099   1.645   1.341   2.374  0.2951  0.3395  0.0214
    4MOL   C134 1100   1.738   1.249   2.423 -0.1780 -0.1334 -0.0777
    4MOL  Cl135 1101   1.907   1.293   2.422  0.0244 -0.6565  0.0047
    4MOL   C136 1102   1.695   1.130   2.481  0.6664  1.1500 -0.2339
    4MOL   C137 1103   1.560   1.089   2.474  0.2265  0.9033  0.0789
    4MOL   C138 1104   1.289   0.983   2.417  0.0464  0.2319  0.3506
    4MOL   H139 1105   1.287   1.181   2.319 -0.5192 -0.1385  0.4995
    4MOL   H140 1106   1.434   1.367   2.337  1.4824  2.9348  1.0301
    4MOL   H141 1107   1.679   1.437   2.340 -0.3249  0.3615 -0.5360
    4MOL   H142 1108   1.764   1.055   2.518 -1.0165 -1.0663 -1.4240
    4MOL   H143 1109   1.540   0.988   2.509 -0.2515 -0.7033 -4.5213
    4MOL   H144 1110   1.350   0.932   2.342 -2.9798  0.3138 -2.2568
    4MOL   H145 1111   1.322   0.931   2.507 -1.4296 -2.9035 -0.8518
    4MOL   C146 1112   1.142   0.948   2.389 -0.1997  0.1969 -0.8769
    4MOL   C147 1113   1.095   1.016   2.260  0.1300 -0.1070 -0.4755
    4MOL   C148 1114   1.151   0.984   2.134  0.0466 -0.4011  0.3512
    4MOL   C149 1115   1.099   1.042   2.017  0.1150 -0.0680  0.0654
    4MOL   C150 1116   1.004   1.141   2.026 -0.1336  0.0290  0.1490
    4MOL  Cl151 1117   0.950   1.219   1.886 -0.2419  0.1201  0.3256
    4MOL   C152 1118   0.947   1.169   2.151  1.1818  0.3963 -0.2482
    4MOL   C153 1119   0.991   1.108   2.270 -0.6111  0.6502 -0.7057
    4MOL   C154 1120   1.121   0.793   2.375 -0.1495 -0.4072 -0.2097
    4MOL   H155 1121   1.085   0.975   2.477  1.3375  0.0148  0.1936
    4MOL   H156 1122   1.224   0.904   2.137 -0.0507 -0.4538  2.5607
    4MOL   H157 1123   1.134   1.006   1.921  0.6979 -0.4672  0.4284
    4MOL   H158 1124   0.874   1.249   2.146  0.0001 -0.6893 -0.6605
    4MOL   H159 1125   0.941   1.125   2.364 -0.6268 -0.0114 -0.5911
    4MOL   H160 1126   1.190   0.749   2.304 -1.3041 -3.3623  0.3967
    4MOL   H161 1127   1.153   0.749   2.470 -2.9013 -2.4500 -0.1476
    4MOL   C162 1128   0.972   0.753   2.346 -0.5095  0.5943 -0.1307
    4MOL   C163 1129   0.977   0.614   2.282 -0.0872  0.1728 -0.5807
    4MOL   C164 1130   0.900   0.590   2.171 -0.2172  0.4695 -0.1071
    4MOL   C165 1131   0.896   0.462   2.118 -0.2808 -0.4147  0.7186
    4MOL   C166 1132   0.971   0.356   2.167  0.2361  0.4479  0.7334
    4MOL  Cl167 1133   0.947   0.196   2.103  0.0189 -0.2974  0.0494
    4MOL   C168 1134   1.060   0.383   2.272 -0.0976 -0.6029  0.0066
    4MOL   C169 1135   1.060   0.510   2.334  0.6900  0.6979  0.5124
    4MOL   C170 1136   0.885   0.758   2.476 -0.1493  0.6097 -0.5488
    4MOL   H171 1137   0.926   0.823   2.277  1.9598  1.6615 -0.7332
    4MOL   H172 1138   0.833   0.666   2.135  1.1897  1.6068 -0.3709
    4MOL   H173 1139   0.831   0.438   2.035 -0.4409 -0.1589  0.7714
    4MOL   H174 1140   1.121   0.301   2.310 -0.1075  0.0090  1.3625
    4MOL   H175 1141   1.125   0.524   2.419 -0.4442 -1.0356  1.7039
    4MOL   H176 1142   0.874   0.651   2.493  0.3861  0.5912 -0.2940
    4MOL   H177 1143   0.946   0.788   2.562  1.1554 -2.5713 -0.3065
    4MOL   C178 1144   0.743   0.828   2.461 -0.1579  0.5233 -0.0928
    4MOL   C179 1145   0.668   0.776   2.340  0.4775  0.4463  0.2472
    4MOL   C180 1146   0.613   0.644   2.340  0.7857 -0.3187 -0.4212
    4MOL   C181 1147   0.547   0.601   2.222  0.0722  0.1975  0.4560
    4MOL   C182 1148   0.544   0.679   2.107 -0.0330  0.7189  0.4810
    4MOL  Cl183 1149   0.461   0.625   1.965  0.0258  0.2671 -0.3559
    4MOL   C184 1150   0.603   0.808   2.103 -0.8754 -0.1362 -0.2245
    4MOL   C185 1151   0.659   0.860   2.225  1.0376  0.0450  0.0733
    4MOL   C186 1152   0.656   0.816   2.589  0.1996 -0.1630  0.1006
    4MOL   H187 1153   0.744   0.934   2.435 -1.5238  0.6055  0.1244
    4MOL   H188 1154   0.638   0.575   2.419  2.1587 -0.9925 -1.4327
    4MOL   H189 1155   0.502   0.503   2.234 -1.2556  0.6782 -0.4468
    4MOL   H190 1156   0.597   0.869   2.014 -1.8388  2.4237  1.5111
    4MOL   H191 1157   0.685   0.965   2.231 -1.2607  0.7489 -1.3094
    4MOL   H192 1158   0.559   0.864   2.575  0.0695 -0.1128  1.1477
    4MOL   H193 1159   0.643   0.710   2.610  0.2461  0.2733  2.4874
    4MOL   C194 1160   0.718   0.878   2.719  0.0802  0.2950  1.7259
    4MOL   C195 1161   0.748   1.023   2.717  0.5052  0.0076  0.0331
    4MOL   C196 1162   0.678   1.110   2.625 -0.0900 -0.2700  0.4889
    4MOL   C197 1163   0.705   1.246   2.621 -0.1490  0.2691 -0.2104
    4MOL   C198 1164   0.801   1.303   2.707 -0.6321 -0.0933 -0.3856
    4MOL  Cl199 1165   0.839   1.469   2.702  0.2834 -0.2785 -0.0505
    4MOL   C200 1166   0.866   1.221   2.800 -0.0725  0.9416 -0.7228
    4MOL   C201 1167   0.845   1.080   2.800  0.1505  0.0514  0.7103
    4MOL   C202 1168   0.639   0.833   2.844 -0.4567  0.2325 -0.7492
    4MOL   H203 1169   0.820   0.846   2.741  0.3329 -3.2288 -3.7289
    4MOL   H204 1170   0.608   1.060   2.559 -0.2636 -3.7708  3.1992
    4MOL   H205 1171   0.643   1.304   2.554  0.4623  0.5088 -0.5744
    4MOL   H206 1172   0.945   1.257   2.864 -1.1686  1.3810  0.3974
    4MOL   H207 1173   0.916   1.023   2.857  0.7583 -0.8972 -0.9744
    4MOL   H208 1174   0.698   0.877   2.924 -2.0120 -0.6566  0.9002
    4MOL   H209 1175   0.540   0.879   2.845 -0.2014  0.7563  0.6146
    4MOL   C210 1176   0.622   0.680   2.872 -0.2212  0.0446  0.2811
    4MOL   C211 1177   0.747   0.599   2.848 -0.5445  0.5074 -0.6490
    4MOL   C212 1178   0.754   0.507   2.739  0.5888 -0.0971 -0.1409
    4MOL   C213 1179   0.875   0.441   2.704 -0.3164 -0.3796  0.0483
    4MOL   C214 1180   0.993   0.473   2.775  0.5076 -0.2004  0.4805
    4MOL  Cl215 1181   1.135   0.389   2.740  0.1807  0.5957  0.0196
    4MOL   C216 1182   0.986   0.562   2.882  0.8287 -0.3776  0.0544
    4MOL   C217 1183   0.867   0.627   2.915 -0.5800 -0.2199  0.5423
    4MOL   C218 1184   0.574   0.653   3.016 -0.0197 -0.5343  0.5233
    4MOL   H219 1185   0.546   0.643   2.803 -1.3355  1.2524  0.8140
    4MOL   H220 1186   0.665   0.480   2.684 -0.1845  0.6039  0.7594
    4MOL   H221 1187   0.880   0.378   2.616 -3.1741  0.3697 -0.7127
    4MOL   H222 1188   1.069   0.600   2.940  0.0118  0.2666  0.7999
    4MOL   H223 1189   0.869   0.706   2.988 -2.3245  0.0516  0.3088
    4MOL   H224 1190   0.601   0.552   3.049  2.0773 -0.4235 -0.7849
    4MOL   H225 1191   0.630   0.717   3.085  1.3793  1.2762 -2.2062
    4MOL   C226 1192   0.419   0.661   3.038 -0.4276  0.4587  0.0271
    4MOL   C227 1193   0.355   0.564   2.947  0.0162  0.4852 -0.2510
    4MOL   C228 1194   0.255   0.608   2.853 -0.0927  0.0999  1.7683
    4MOL   C229 1195   0.188   0.517   2.770  0.1357  0.0755  0.2394
    4MOL   C230 1196   0.222   0.380   2.771  0.5961 -0.4247 -1.0017
    4MOL  Cl231 1197   0.133   0.264   2.683  0.3302 -0.1451  0.0018
    4MOL   C232 1198   0.325   0.338   2.865 -0.0057  0.6909  0.1697
    4MOL   C233 1199   0.389   0.429   2.947 -0.9249 -0.3066  0.0601
    4MOL   C234 1200   0.371   0.644   3.184 -0.1660 -0.2689  0.1528
    4MOL   H235 1201   0.390   0.761   3.005  1.1837  0.5847 -1.0524
    4MOL   H236 1202   0.226   0.711   2.839  0.4368  0.4739  3.2810
    4MOL   H237 1203   0.112   0.557   2.705  0.1619  1.4470  1.0463
    4MOL   H238 1204   0.343   0.233   2.879  2.1376  1.0225  0.0805
    4MOL   H239 1205   0.455   0.381   3.018  0.0328  0.6726 -0.1505
    4MOL   H240 1206   0.373   0.538   3.211  1.8618 -0.0359  0.9728
    4MOL   H241 1207   0.432   0.700   3.255 -1.1685  1.5394 -0.3795
    4MOL   C242 1208   0.223   0.682   3.205 -0.2761  0.6731  0.2946
    4MOL   C243 1209   0.152   0.606   3.318 -0.2649  0.4012 -0.1170
    4MOL   C244 1210   0.014   0.572   3.303 -0.2874  0.1084  0.0753
    4MOL   C245 1211   8.387   0.519   3.415  0.3149 -0.2332  0.4472
    4MOL   C246 1212   0.010   0.503   3.544 -0.7966 -0.3141  0.7074
    4MOL  Cl247 1213   8.371   0.439   3.681  0.5126  0.2232 -0.1680
    4MOL   C248 1214   0.151   0.531   3.560 -0.3526  0.3260  1.0892
    4MOL   C249 1215   0.219   0.579   3.442 -0.3620  0.3166 -0.4468
    4MOL   C250 1216   0.195   0.833   3.206 -0.1135 -0.1187  0.2774
    4MOL   H251 1217   0.179   0.647   3.112 -0.2137 -2.1559  1.2710
    4MOL   H252 1218   8.411   0.582   3.206  0.2739 -0.0020 -0.2072
    4MOL   H253 1219   8.284   0.492   3.405  0.1828 -0.8076  2.8919
    4MOL   H254 1220   0.201   0.518   3.655  0.2967  0.2370  0.7351
    4MOL   H255 1221   0.323   0.607   3.446 -0.3522  0.2223 -0.0332
    4MOL   H256 1222   0.219   0.869   3.106  2.8491 -0.9277  0.6486
    4MOL   H257 1223   0.090   0.843   3.233  0.0718  2.2624  0.2926
    4MOL   C258 1224   0.263   0.920   3.313  0.4005  0.4580 -0.1770
    4MOL   C259 1225   0.394   0.983   3.264  0.4310  0.1501 -1.1973
    4MOL   C260 1226   0.514   0.977   3.343 -0.2567  0.2829  0.0606
    4MOL   C261 1227   0.640   1.042   3.305  0.4418 -0.3479 -0.6137
    4MOL   C262 1228   0.642   1.111   3.185 -0.0120 -0.0403  0.0243
    4MOL  Cl263 1229   0.797   1.177   3.136  0.1446  0.0333  0.0126
    4MOL   C264 1230   0.526   1.122   3.107 -0.8751 -0.6772  0.1475
    4MOL   C265 1231   0.407   1.056   3.143 -0.9096  0.7037 -0.9615
    4MOL   C266 1232   0.169   1.026   3.382  0.1395 -0.6300 -0.3481
    4MOL   H267 1233   0.299   0.858   3.395 -0.6670  0.9496  0.6700
    4MOL   H268 1234   0.500   0.927   3.438  0.3955  0.3430  0.1887
    4MOL   H269 1235   0.722   1.050   3.375  1.5836 -1.5799 -1.7862
    4MOL   H270 1236   0.512   1.180   3.018  1.4079  1.2794  1.0007
    4MOL   H271 1237   0.316   1.071   3.088  0.4807  1.0045 -3.2353
    4MOL   H272 1238   0.219   1.122   3.392 -1.4400  0.2136 -0.4280
    4MOL   H273 1239   0.093   1.046   3.307 -1.8430  0.9926  1.9803
    4MOL   C274 1240   0.119   0.988   3.533 -0.7688  0.1536 -0.4314
    4MOL   C275 1241   0.233   0.970   3.633  0.0777  0.1442 -0.1000
    4MOL   C276 1242   0.347   1.055   3.629 -0.5696  0.0367 -0.7722
    4MOL   C277 1243   0.451   1.044   3.720 -0.7512 -0.0220  0.0126
    4MOL   C278 1244   0.442   0.941   3.817  0.3646 -0.3840 -0.9046
    4MOL  Cl279 1245   0.570   0.926   3.933  0.0535 -0.0713  0.3285
    4MOL   C280 1246   0.335   0.850   3.821 -0.1950  0.2278 -0.6042
    4MOL   C281 1247   0.234   0.857   3.723 -0.1115 -0.8074  0.3325
    4MOL   C282 1248   0.019   1.083   3.591  0.4239  0.1105  0.3397
    4MOL   H283 1249   0.068   0.893   3.521  3.8147 -2.3342 -1.4573
    4MOL   H284 1250   0.342   1.138   3.560 -0.5515  0.5175 -0.2045
    4MOL   H285 1251   0.530   1.118   3.714  0.1989 -0.9804  0.5134
    4MOL   H286 1252   0.325   0.772   3.895  0.7587 -0.7647 -1.5234
    4MOL   H287 1253   0.153   0.786   3.726 -0.5035 -0.4840 -1.6905
    4MOL   H288 1254   0.010   1.060   3.698  0.6156 -2.3993 -0.1564
    4MOL   H289 1255   0.064   1.182   3.582  0.3913  0.3260  2.2872
    4MOL   C290 1256   8.318   1.088   3.527  0.3584 -0.2471  0.2784
    4MOL   C291 1257   8.244   0.958   3.547  0.4212  0.1747  0.4731
    4MOL   C292 1258   8.191   0.893   3.438 -0.5501 -0.6521  0.1370
    4MOL   C293 1259   8.131   0.772   3.453 -0.2726 -0.0287 -0.0663
    4MOL   C294 1260   8.117   0.708   3.579  0.4835  0.6479 -0.1412
    4MOL  Cl295 1261   8.061   0.542   3.592 -0.2968  0.0673  0.1065
    4MOL   C296 1262   8.176   0.770   3.690  0.1664  0.0867  0.3415
    4MOL   C297 1263   8.237   0.898   3.673 -0.1879 -0.6473  0.1947
    4MOL   C298 1264   8.218   1.200   3.559 -0.4388  0.1869  0.1663
    4MOL   H299 1265   8.337   1.101   3.421 -0.8115  0.8566  0.1949
    4MOL   H300 1266   8.213   0.929   3.339 -1.5504  1.5106  0.6876
    4MOL   H301 1267   8.116   0.725   3.357  3.8450 -0.1270 -0.7517
    4MOL   H302 1268   8.177   0.721   3.787 -0.6502 -2.3136 -0.8095
    4MOL   H303 1269   8.275   0.957   3.756  1.0696  0.5644 -1.2211
    4MOL   H304 1270   8.121   1.165   3.593 -0.2956  0.6709  1.0869
    4MOL   H305 1271   8.259   1.239   3.652 -0.3470 -0.2085  0.2908
    4MOL   C306 1272   8.197   1.307   3.456 -0.2402  0.1924  0.1105
    4MOL   C307 1273   8.139   1.256   3.331  0.6692 -0.0898  0.6677
    4MOL   C308 1274   8.189   1.300   3.207  0.3663  0.7765 -0.1093
    4MOL   C309 1275   8.143   1.248   3.086  0.8310  0.4109 -0.3726
    4MOL   C310 1276   8.053   1.143   3.086 -0.4844 -0.0957 -0.4456
    4MOL  Cl311 1277   8.016   1.073   2.930 -0.0365 -0.1451  0.1780
    4MOL   C312 1278   7.995   1.101   3.204  0.3301  0.9989  0.5041
    4MOL   C313 1279   8.032   1.159   3.327  0.3417  0.0129 -0.4783
    4MOL   C314 1280   8.109   1.425   3.503 -0.1174 -0.1231  0.2232
    4MOL   H315 1281   8.289   1.363   3.441 -0.5509  0.4543 -0.8140
    4MOL   H316 1282   8.262   1.380   3.205  1.1184  0.1456  1.1552
    4MOL   H317 1283   8.184   1.288   2.994  1.3937  0.2372 -0.2027
    4MOL   H318 1284   7.931   1.014   3.208  2.2445 -0.5187 -0.4208
    4MOL   H319 1285   7.988   1.127   3.420  0.4701  2.3169  0.3916
    4MOL   H320 1286   8.016   1.396   3.551 -1.4704  1.8846 -1.1368
    4MOL   H321 1287   8.165   1.488   3.573 -1.0044  0.1174  0.7225
    4MOL   H322 1288   8.077   1.478   3.413  0.0039  1.0294  0.8404
    5MOL     C1 1289   4.264   6.245   2.863  0.9246 -0.7533 -0.8531
    5MOL     C2 1290   4.217   6.295   2.726  0.1372 -0.2458  0.4145
    5MOL     C3 1291   4.168   6.425   2.724 -0.8709  0.4036 -0.1923
    5MOL     C4 1292   4.129   6.480   2.602 -0.2056  0.6421  1.6592
    5MOL     C5 1293   4.128   6.400   2.483  0.1787  0.0189 -0.7043
    5MOL    Cl6 1294   4.073   6.475   2.337  0.0915  0.1941 -0.2537
    5MOL     C7 1295   4.168   6.265   2.489  0.5395  0.2475 -0.3745
    5MOL     C8 1296   4.218   6.213   2.608  0.0279  0.4977 -0.0536
    5MOL     C9 1297   4.369   6.334   2.934 -0.0125  0.5449 -0.2529
    5MOL    H10 1298   4.303   6.144   2.855 -0.5063 -1.3891 -0.0362
    5MOL    H11 1299   4.190   6.490   2.807  0.3780  0.0320 -0.2047
    5MOL    H12 1300   4.096   6.583   2.598  2.7899  1.5542 -0.4818
    5MOL    H13 1301   4.148   6.202   2.403  0.9845 -2.3944  1.3884
    5MOL    H14 1302   4.266   6.117   2.616 -0.4268  0.5022  3.1827
    5MOL    H15 1303   4.427   6.366   2.847 -2.2513 -1.0200 -2.3753
    5MOL    H16 1304   4.317   6.419   2.978 -1.0554  0.0047 -0.4317
    5MOL    H17 1305   4.183   6.234   2.936 -1.0717  1.3028 -2.6815
    5MOL    C18 1306   4.472   6.266   3.033  0.4299  0.0090 -0.1270
    5MOL    C19 1307   4.599   6.359   3.029  0.4390 -0.0050  0.3294
    5MOL    C20 1308   4.583   6.492   3.072 -0.1697  0.1981 -0.4521
    5MOL    C21 1309   4.681   6.591   3.047 -0.1626 -0.1872 -0.0873
    5MOL    C22 1310   4.796   6.556   2.976  0.5709 -0.4832 -0.3708
    5MOL   Cl23 1311   4.906   6.682   2.927 -0.2761  0.4981 -0.5072
    5MOL    C24 1312   4.814   6.418   2.938 -0.2135 -1.1629  0.7967
    5MOL    C25 1313   4.715   6.323   2.960  0.2488  0.6356 -1.0572
    5MOL    C26 1314   4.408   6.240   3.171  0.1017 -0.4463  0.1289
    5MOL    H27 1315   4.493   6.169   2.988  1.4420  0.6312 -1.0171
    5MOL    H28 1316   4.491   6.520   3.121 -0.1280 -0.7376  0.1820
    5MOL    H29 1317   4.662   6.695   3.070  2.2526 -0.2076  2.3388
    5MOL    H30 1318   4.899   6.396   2.876  0.3995  2.1125  0.3773
    5MOL    H31 1319   4.734   6.222   2.926 -0.1446  0.0439  0.4156
    5MOL    H32 1320   4.380   6.340   3.203  0.6960 -0.0313 -0.6180
    5MOL    H33 1321   4.314   6.186   3.162 -0.8590  0.9038  1.8214
    5MOL    C34 1322   4.508   6.198   3.282  0.1646 -0.1848 -0.1105
    5MOL    C35 1323   4.457   6.226   3.424 -0.1212 -0.3873 -0.7701
    5MOL    C36 1324   4.321   6.216   3.456 -0.5424  0.1854  0.4639
    5MOL    C37 1325   4.271   6.259   3.586 -0.5330  0.2753 -0.6955
    5MOL    C38 1326   4.357   6.323   3.678  0.2172 -0.2412  0.0349
    5MOL   Cl39 1327   4.305   6.377   3.828 -0.1183 -0.0428  0.1440
    5MOL    C40 1328   4.488   6.333   3.643  0.0092  0.1906 -0.2756
    5MOL    C41 1329   4.542   6.290   3.522  0.4203 -0.0933  0.3217
    5MOL    C42 1330   4.552   6.049   3.274  0.0882  0.0517  0.1480
    5MOL    H43 1331   4.595   6.262   3.293  0.1357 -0.4421  1.7442
    5MOL    H44 1332   4.248   6.174   3.389 -0.9593  1.0260  0.3878
    5MOL    H45 1333   4.168   6.249   3.618 -0.3448 -1.5659 -0.6100
    5MOL    H46 1334   4.556   6.363   3.721 -0.0857  1.4287 -0.6520
    5MOL    H47 1335   4.649   6.304   3.517  0.0658  3.5064  1.6630
    5MOL    H48 1336   4.499   5.983   3.341 -1.7522  1.9012  0.5782
    5MOL    H49 1337   4.509   6.019   3.178  0.4515 -1.1473  0.3547
    5MOL    C50 1338   4.709   6.014   3.266  0.1157  0.6184  0.0401
    5MOL    C51 1339   4.785   6.075   3.385  0.2160  0.6183 -0.7891
    5MOL    C52 1340   4.782   6.018   3.517 -0.6402  0.3541  0.5745
    5MOL    C53 1341   4.857   6.079   3.614  0.9407 -0.1504  0.0217
    5MOL    C54 1342   4.928   6.201   3.592 -0.4857 -0.9191 -0.7661
    5MOL   Cl55 1343   5.003   6.273   3.734  0.4097  0.1141  0.4033
    5MOL    C56 1344   4.931   6.254   3.464 -0.1299 -0.4686  0.5914
    5MOL    C57 1345   4.863   6.189   3.358  0.4335 -0.3739  0.2824
    5MOL    C58 1346   4.740   5.858   3.258 -0.1857 -0.6553  0.2270
    5MOL    H59 1347   4.732   6.057   3.169 -1.9108  1.3928 -0.1182
    5MOL    H60 1348   4.727   5.927   3.535  2.6015 -1.7648  0.2300
    5MOL    H61 1349   4.858   6.040   3.715 -1.2119  0.5882  0.3433
    5MOL    H62 1350   4.963   6.357   3.452 -0.5554 -0.5095 -1.0094
    5MOL    H63 1351   4.861   6.231   3.258  0.1023 -0.8225  0.0974
    5MOL    H64 1352   4.846   5.856   3.235 -0.2237 -1.0929  0.0820
    5MOL    H65 1353   4.721   5.807   3.352 -0.6196 -0.9655 -0.0255
    5MOL    C66 1354   4.667   5.777   3.142 -0.1312  0.3295  0.4914
    5MOL    C67 1355   4.671   5.836   3.005  0.2160  0.6447 -0.2687
    5MOL    C68 1356   4.550   5.861   2.934 -0.6320  0.4220  0.1437
    5MOL    C69 1357   4.551   5.923   2.807 -0.4038  0.5904  0.1937
    5MOL    C70 1358   4.672   5.961   2.749  0.2934  0.4510  0.3363
    5MOL   Cl71 1359   4.672   6.064   2.609  0.0072  0.2099 -0.0777
    5MOL    C72 1360   4.795   5.937   2.814  0.1557  0.3276 -0.1077
    5MOL    C73 1361   4.791   5.875   2.939 -0.7709 -0.0702 -0.1658
    5MOL    C74 1362   4.728   5.634   3.132 -0.8735 -0.2852  0.5653
    5MOL    H75 1363   4.562   5.765   3.171  0.1700 -0.7855  1.1828
    5MOL    H76 1364   4.454   5.857   2.983 -1.2090  3.4445 -0.5961
    5MOL    H77 1365   4.457   5.950   2.760 -0.8577  2.0679  1.8982
    5MOL    H78 1366   4.891   5.975   2.784  0.5551  0.9796  1.9042
    5MOL    H79 1367   4.885   5.870   2.992 -0.8977 -2.6338 -0.1210
    5MOL    H80 1368   4.699   5.586   3.038  0.0952 -0.4027  0.3121
    5MOL    H81 1369   4.835   5.646   3.110 -1.6511  1.3741 -2.7007
    5MOL    C82 1370   4.711   5.533   3.251 -0.9951  0.2260  0.6340
    5MOL    C83 1371   4.567   5.521   3.307  0.1205 -0.3809  0.1781
    5MOL    C84 1372   4.543   5.600   3.422  0.5609  0.3501 -0.3308
    5MOL    C85 1373   4.413   5.590   3.476 -0.0621 -0.5134  0.1354
    5MOL    C86 1374   4.310   5.510   3.421  0.0049 -0.3240 -0.1512
    5MOL   Cl87 1375   4.165   5.495   3.504  0.3536 -0.0551 -0.2211
    5MOL    C88 1376   4.341   5.430   3.308  0.4509  0.6339 -0.4286
    5MOL    C89 1377   4.469   5.439   3.245  0.7239  0.4777  0.2854
    5MOL    C90 1378   4.781   5.396   3.217  0.2125 -0.1008  0.4069
    5MOL    H91 1379   4.763   5.576   3.337 -0.1415 -1.2099  0.8449
    5MOL    H92 1380   4.611   5.653   3.486 -1.1969  1.2218  0.8591
    5MOL    H93 1381   4.391   5.641   3.569 -1.3390 -0.4734 -0.1826
    5MOL    H94 1382   4.272   5.355   3.271  0.7104  1.6127 -3.0302
    5MOL    H95 1383   4.494   5.389   3.153 -2.6842  1.7188 -1.3977
    5MOL    H96 1384   4.730   5.345   3.135  0.3017 -0.9588  0.8749
    5MOL    H97 1385   4.882   5.404   3.178  0.0808  0.8392  0.2358
    5MOL    C98 1386   4.770   5.287   3.321 -0.3048 -0.2405 -0.3290
    5MOL    C99 1387   4.700   5.164   3.273  0.6992  0.4308 -0.4234
    5MOL   C100 1388   4.761   5.074   3.182  0.4540  0.1989 -0.2311
    5MOL   C101 1389   4.698   4.945   3.162 -0.7326 -0.3434  0.0758
    5MOL   C102 1390   4.573   4.916   3.222  0.4050  0.2953  0.2874
    5MOL  Cl103 1391   4.496   4.765   3.179 -0.3482  0.0609 -0.2733
    5MOL   C104 1392   4.510   5.011   3.300  1.0279 -0.5031 -0.8213
    5MOL   C105 1393   4.573   5.133   3.333 -0.2915 -0.0372  0.0578
    5MOL   C106 1394   4.908   5.250   3.382 -0.3585 -0.6923 -1.0216
    5MOL   H107 1395   4.717   5.332   3.405  0.0060 -1.4342  0.5117
    5MOL   H108 1396   4.859   5.091   3.140  0.6479 -1.3702 -0.4684
    5MOL   H109 1397   4.740   4.882   3.086 -1.8990  1.4953 -2.1629
    5MOL   H110 1398   4.414   4.991   3.345  1.4225 -2.0316 -0.6143
    5MOL   H111 1399   4.534   5.200   3.408 -0.8228  1.3484 -1.4339
    5MOL   H112 1400   4.906   5.157   3.440 -0.1873  0.8070  1.4721
    5MOL   H113 1401   4.980   5.239   3.301  0.8363  0.7091 -0.1768
    5MOL   C114 1402   4.965   5.347   3.485 -0.2438  0.4646  0.1110
    5MOL   C115 1403   4.881   5.354   3.614 -0.2113  0.1307  0.4322
    5MOL   C116 1404   4.900   5.248   3.708 -0.6914 -0.2335  0.9504
    5MOL   C117 1405   4.855   5.259   3.842 -0.2162 -0.3404 -0.3963
    5MOL   C118 1406   4.799   5.384   3.883 -0.3046 -0.1513  0.0255
    5MOL  Cl119 1407   4.773   5.406   4.050 -0.0835 -0.4461  0.0402
    5MOL   C120 1408   4.782   5.486   3.786  1.1573 -0.4079  0.0888
    5MOL   C121 1409   4.819   5.473   3.650  1.1551 -0.3808 -0.2927
    5MOL   C122 1410   5.114   5.340   3.522 -0.5637  0.5027  0.0898
    5MOL   H123 1411   4.958   5.444   3.435 -0.4057  0.9926  1.1330
    5MOL   H124 1412   4.958   5.160   3.685  1.8847  2.2055 -2.3953
    5MOL   H125 1413   4.857   5.171   3.905  1.0369  0.1885  0.3405
    5MOL   H126 1414   4.736   5.578   3.817 -2.0040 -2.2387  1.0592
    5MOL   H127 1415   4.811   5.547   3.573  0.8247  1.0153  1.0576
    5MOL   H128 1416   5.123   5.405   3.609 -0.1690 -0.0107  0.4359
    5MOL   H129 1417   5.142   5.243   3.564  2.1546  1.4829  0.6502
    5MOL   C130 1418   5.211   5.390   3.413  0.3986  0.0569 -0.5799
    5MOL   C131 1419   5.191   5.533   3.365 -0.6041 -0.0915  0.4020
    5MOL   C132 1420   5.189   5.560   3.225  0.0552 -0.2867  0.2110
    5MOL   C133 1421   5.179   5.695   3.185 -0.4273 -0.2017 -0.8002
    5MOL   C134 1422   5.173   5.802   3.278 -0.2500 -1.0541  0.2657
    5MOL  Cl135 1423   5.179   5.966   3.228  0.0506  0.1512 -0.2861
    5MOL   C136 1424   5.163   5.772   3.414  0.4488  0.2756  0.3287
    5MOL   C137 1425   5.183   5.639   3.461 -0.1827  0.1860 -0.2741
    5MOL   C138 1426   5.356   5.370   3.464 -0.0714 -0.2143 -0.7378
    5MOL   H139 1427   5.209   5.321   3.330 -1.8397 -1.2733  0.5410
    5MOL   H140 1428   5.194   5.478   3.155  1.0026  0.8438 -1.0781
    5MOL   H141 1429   5.180   5.732   3.083 -4.7764  0.0535 -0.8228
    5MOL   H142 1430   5.147   5.845   3.492 -1.3993 -0.9605  1.1429
    5MOL   H143 1431   5.176   5.620   3.567 -1.2891  3.0138  0.2174
    5MOL   H144 1432   5.429   5.409   3.393  0.1865 -1.3631 -1.1205
    5MOL   H145 1433   5.362   5.439   3.549  0.8802 -0.9943 -0.1600
    5MOL   C146 1434   5.394   5.221   3.502 -0.1293  0.0252 -0.8287
    5MOL   C147 1435   5.358   5.124   3.389  1.4135 -0.2900 -0.2339
    5MOL   C148 1436   5.404   5.144   3.257 -0.0913 -0.3525  0.1790
    5MOL   C149 1437   5.360   5.057   3.158  0.3473 -0.5853 -0.2545
    5MOL   C150 1438   5.285   4.944   3.186  0.2237 -0.2073  0.4674
    5MOL  Cl151 1439   5.236   4.839   3.060 -0.0489 -0.3115 -0.0420
    5MOL   C152 1440   5.239   4.928   3.318 -0.0715  0.2191 -0.2467
    5MOL   C153 1441   5.261   5.027   3.415 -0.7513  0.5474 -0.6645
    5MOL   C154 1442   5.542   5.212   3.543  0.3743 -0.2805 -0.4450
    5MOL   H155 1443   5.339   5.187   3.590 -1.6960  1.2730 -1.2960
    5MOL   H156 1444   5.468   5.229   3.238  0.8999 -1.1239  0.0089
    5MOL   H157 1445   5.410   5.070   3.063 -1.3534  0.0420 -1.0826
    5MOL   H158 1446   5.187   4.839   3.350 -0.5891  0.4373 -0.4623
    5MOL   H159 1447   5.209   5.025   3.510 -0.5756  2.0751 -0.5277
    5MOL   H160 1448   5.609   5.256   3.469 -2.6848  3.1744 -1.3413
    5MOL   H161 1449   5.551   5.290   3.619 -0.6978 -2.6700  2.2018
    5MOL   C162 1450   5.592   5.077   3.601  0.5644 -0.1594  0.3156
    5MOL   C163 1451   5.610   4.963   3.501  0.2752  0.2933  0.3891
    5MOL   C164 1452   5.551   4.836   3.525  0.0477 -0.5144 -0.1913
    5MOL   C165 1453   5.556   4.732   3.431  0.4212  0.2321  0.5390
    5MOL   C166 1454   5.638   4.758   3.314  0.1263 -0.0791  0.6240
    5MOL  Cl167 1455   5.655   4.628   3.191  0.2365 -0.2811  0.1921
    5MOL   C168 1456   5.703   4.878   3.296 -0.9310  0.0302  0.4476
    5MOL   C169 1457   5.687   4.981   3.387 -0.4041  0.3306  0.4074
    5MOL   C170 1458   5.727   5.103   3.677 -0.0227 -0.2860 -0.2872
    5MOL   H171 1459   5.515   5.046   3.671  0.7916 -1.2203  0.1027
    5MOL   H172 1460   5.491   4.828   3.614  0.2167  0.0737 -0.0174
    5MOL   H173 1461   5.503   4.638   3.438  1.6457 -0.3496  2.2901
    5MOL   H174 1462   5.762   4.889   3.207 -1.5014 -2.9222 -0.3484
    5MOL   H175 1463   5.722   5.079   3.359  2.6625 -1.4000 -2.2466
    5MOL   H176 1464   5.803   5.118   3.601 -1.5335  2.2976 -1.3556
    5MOL   H177 1465   5.713   5.190   3.741 -1.3657 -1.1658  0.6419
    5MOL   C178 1466   5.768   4.988   3.773 -0.4753  0.2380  0.2198
    5MOL   C179 1467   5.919   4.981   3.804 -0.0135 -0.6240 -0.0939
    5MOL   C180 1468   5.993   4.860   3.789  1.1666 -0.3003  0.0429
    5MOL   C181 1469   6.128   4.862   3.827  0.0115 -0.2664 -0.3116
    5MOL   C182 1470   6.200   4.979   3.864  0.9120 -0.3158 -0.3095
    5MOL  Cl183 1471   6.354   4.962   3.928  0.3881 -0.1903 -0.0823
    5MOL   C184 1472   6.129   5.098   3.868  0.5256 -0.0729 -0.1004
    5MOL   C185 1473   5.990   5.102   3.835 -0.4631  0.0480  0.2768
    5MOL   C186 1474   5.671   4.993   3.900  0.5458  0.6518  0.3423
    5MOL   H187 1475   5.753   4.907   3.701  0.8444  2.8360 -3.1185
    5MOL   H188 1476   5.949   4.763   3.772  2.2797 -0.8330  0.1705
    5MOL   H189 1477   6.190   4.774   3.819  0.8863  0.1338  1.8998
    5MOL   H190 1478   6.182   5.188   3.894  0.9834 -0.6374  0.9625
    5MOL   H191 1479   5.936   5.196   3.837 -0.8060 -0.0116 -2.9997
    5MOL   H192 1480   5.684   5.090   3.947  0.6101 -0.2268  2.1679
    5MOL   H193 1481   5.564   4.994   3.882  0.4645  0.2125  0.7979
    5MOL   C194 1482   5.686   4.889   4.010 -0.4479  0.2540 -0.6353
    5MOL   C195 1483   5.629   4.925   4.150 -0.2582 -0.4457 -0.6320
    5MOL   C196 1484   5.713   4.998   4.236  0.2044 -0.4999 -0.0220
    5MOL   C197 1485   5.658   5.046   4.355 -0.1621  0.5159  0.0192
    5MOL   C198 1486   5.529   5.013   4.392  0.0975  0.3151  0.6976
    5MOL  Cl199 1487   5.461   5.055   4.547  0.0448 -0.1128 -0.3348
    5MOL   C200 1488   5.449   4.938   4.307 -0.1073 -0.1079 -0.7278
    5MOL   C201 1489   5.496   4.902   4.183 -0.5681 -0.0959 -0.5649
    5MOL   C202 1490   5.634   4.748   3.951  0.1176  0.0985  0.4155
    5MOL   H203 1491   5.794   4.884   4.022 -0.3381  1.2139 -1.1385
    5MOL   H204 1492   5.818   5.008   4.213  0.4130  0.2164  1.1670
    5MOL   H205 1493   5.717   5.106   4.422 -0.4362  0.8737 -0.0581
    5MOL   H206 1494   5.346   4.921   4.335 -0.9485 -0.2398 -3.7062
    5MOL   H207 1495   5.423   4.865   4.112  0.7075 -2.2125 -0.8028
    5MOL   H208 1496   5.527   4.749   3.934  0.5281 -0.6724 -2.6089
    5MOL   H209 1497   5.683   4.735   3.854  1.0024  0.7133  0.7785
    5MOL   C210 1498   5.653   4.626   4.047  0.4398  0.3028 -0.0748
    5MOL   C211 1499   5.600   4.506   3.974  0.0771  0.3869 -0.0128
    5MOL   C212 1500   5.492   4.430   4.027  0.7586 -0.0430  0.2426
    5MOL   C213 1501   5.452   4.306   3.975  0.6862 -0.6782  0.8276
    5MOL   C214 1502   5.519   4.247   3.869 -0.7324  0.4572  0.2835
    5MOL  Cl215 1503   5.456   4.096   3.806  0.0574 -0.0746 -0.1844
    5MOL   C216 1504   5.619   4.321   3.811 -0.3436  0.8180 -0.0544
    5MOL   C217 1505   5.657   4.451   3.858  0.0630  0.2125  0.1443
    5MOL   C218 1506   5.807   4.590   4.091  0.1979  0.5807 -0.2046
    5MOL   H219 1507   5.598   4.642   4.139 -1.9730 -1.3538 -1.1881
    5MOL   H220 1508   5.441   4.481   4.108  0.9889  3.1984 -1.5460
    5MOL   H221 1509   5.370   4.253   4.022 -1.5077  1.9004  0.0165
    5MOL   H222 1510   5.668   4.286   3.721  0.9919  2.7504 -0.1119
    5MOL   H223 1511   5.724   4.506   3.795 -0.2055 -0.9800 -1.2044
    5MOL   H224 1512   5.873   4.552   4.014 -0.4681  1.2694 -1.1301
    5MOL   H225 1513   5.845   4.690   4.110 -0.2339  0.3165  2.2846
    5MOL   C226 1514   5.805   4.502   4.226 -0.3217 -0.3730  0.8363
    5MOL   C227 1515   5.787   4.352   4.199  0.3227  0.0009 -0.0494
    5MOL   C228 1516   5.846   4.283   4.093  0.5290 -0.0524 -0.2329
    5MOL   C229 1517   5.806   4.151   4.057 -0.2053  0.4276 -0.1529
    5MOL   C230 1518   5.708   4.085   4.129  1.1980  0.4121  0.2440
    5MOL  Cl231 1519   5.658   3.918   4.087  0.1325 -0.5499  0.1758
    5MOL   C232 1520   5.652   4.153   4.241  0.4171  0.7772 -0.5175
    5MOL   C233 1521   5.689   4.284   4.270  0.5781 -1.2152  0.2673
    5MOL   C234 1522   5.935   4.516   4.306  0.3646 -0.7893 -0.5422
    5MOL   H235 1523   5.722   4.543   4.283 -0.4210 -0.2935  0.6334
    5MOL   H236 1524   5.927   4.334   4.044 -0.0662  0.3936 -0.7559
    5MOL   H237 1525   5.854   4.096   3.978  1.0308  0.7924  0.3442
    5MOL   H238 1526   5.579   4.102   4.303 -0.6363 -0.3939 -2.6450
    5MOL   H239 1527   5.624   4.326   4.345  1.6966  1.3685 -0.1582
    5MOL   H240 1528   5.932   4.427   4.369  1.3692 -0.3130  0.1994
    5MOL   H241 1529   6.019   4.510   4.236  0.6257  2.4144 -0.5716
    5MOL   C242 1530   5.952   4.645   4.390 -0.4528  0.1197 -0.2498
    5MOL   C243 1531   5.840   4.659   4.495  0.3819 -0.9308  0.0334
    5MOL   C244 1532   5.725   4.741   4.479 -0.0328  0.3038 -0.5062
    5MOL   C245 1533   5.619   4.744   4.578 -0.3786  0.0442  0.5665
    5MOL   C246 1534   5.638   4.675   4.696  0.3461  0.2741 -0.4845
    5MOL  Cl247 1535   5.515   4.674   4.818 -0.0136 -0.1012  0.0562
    5MOL   C248 1536   5.744   4.583   4.709  0.3809 -0.1742  0.0637
    5MOL   C249 1537   5.849   4.582   4.616  0.5937  0.4903 -0.5363
    5MOL   C250 1538   6.101   4.666   4.442 -0.3460 -0.1905  0.2103
    5MOL   H251 1539   5.934   4.730   4.324 -0.0682 -1.2003 -2.0912
    5MOL   H252 1540   5.710   4.774   4.377  2.7239  0.3833 -0.9258
    5MOL   H253 1541   5.530   4.801   4.555  0.3391  1.2975  0.8391
    5MOL   H254 1542   5.751   4.511   4.789 -1.2034  0.0723  0.4617
    5MOL   H255 1543   5.928   4.508   4.628  1.3447  1.6201  1.7228
    5MOL   H256 1544   6.094   4.705   4.544 -1.1115 -0.9141  0.4430
    5MOL   H257 1545   6.148   4.569   4.458 -1.0472 -0.3563  1.3974
    5MOL   C258 1546   6.187   4.740   4.345  0.3838 -0.2860 -0.0599
    5MOL   C259 1547   6.143   4.891   4.332 -0.1790  0.1240  0.5444
    5MOL   C260 1548   6.114   4.953   4.203  0.1939  0.1929 -0.4625
    5MOL   C261 1549   6.077   5.089   4.188  0.1245 -0.1633  0.4573
    5MOL   C262 1550   6.046   5.159   4.304  0.0160  0.2444  0.0274
    5MOL  Cl263 1551   5.994   5.323   4.303 -0.1912 -0.0623 -0.3605
    5MOL   C264 1552   6.072   5.095   4.430 -0.4529 -0.5360  0.1190
    5MOL   C265 1553   6.123   4.964   4.445 -0.1053  0.9074  0.0381
    5MOL   C266 1554   6.340   4.727   4.381  1.3540  0.5286 -0.1907
    5MOL   H267 1555   6.169   4.703   4.244 -0.1540  2.2411 -0.9399
    5MOL   H268 1556   6.118   4.891   4.115 -0.2865 -0.6611  0.1153
    5MOL   H269 1557   6.066   5.142   4.095  1.0126 -0.2561  0.2902
    5MOL   H270 1558   6.053   5.158   4.515 -0.5829 -1.0569  0.4804
    5MOL   H271 1559   6.140   4.915   4.540 -0.3216 -0.1798 -0.4796
    5MOL   H272 1560   6.392   4.800   4.320  2.0374 -1.0178 -1.5069
    5MOL   H273 1561   6.359   4.757   4.484  3.7890  0.8269 -0.6906
    5MOL   C274 1562   6.398   4.584   4.367 -0.5815 -0.5663 -0.5864
    5MOL   C275 1563   6.345   4.500   4.254  0.2666 -0.3746  0.4533
    5MOL   C276 1564   6.293   4.370   4.280 -0.0288 -0.1574 -0.4826
    5MOL   C277 1565   6.241   4.294   4.173  0.4081  0.1504  0.2340
    5MOL   C278 1566   6.253   4.344   4.043  0.2451  0.2446  0.8781
    5MOL  Cl279 1567   6.246   4.244   3.906 -0.2797 -0.2818  0.0284
    5MOL   C280 1568   6.294   4.471   4.016 -0.0242 -0.0479  0.1174
    5MOL   C281 1569   6.340   4.547   4.125 -0.2398  0.1894 -0.0438
    5MOL   C282 1570   6.546   4.589   4.357  0.6546 -0.4191  0.1710
    5MOL   H283 1571   6.373   4.524   4.455  0.3222 -0.9037 -0.5500
    5MOL   H284 1572   6.291   4.338   4.383  1.3691  1.6598  0.1467
    5MOL   H285 1573   6.194   4.197   4.186  0.3736  0.0480 -0.6242
    5MOL   H286 1574   6.316   4.504   3.915  2.0778 -0.3036  0.4829
    5MOL   H287 1575   6.373   4.649   4.107 -2.5118  1.0830  0.6626
    5MOL   H288 1576   6.583   4.636   4.266  0.9765 -0.7401  0.1361
    5MOL   H289 1577   6.581   4.653   4.438 -0.6493  1.8139 -0.9778
    5MOL   C290 1578   6.616   4.449   4.380  0.0697  0.3844  0.1269
    5MOL   C291 1579   6.701   4.397   4.266  0.0059  0.2685  0.3470
    5MOL   C292 1580   6.648   4.302   4.175  0.9229 -0.3724 -0.0903
    5MOL   C293 1581   6.720   4.259   4.064 -0.7741 -0.2681  0.2048
    5MOL   C294 1582   6.847   4.316   4.044  0.1304 -0.4110 -0.6718
    5MOL  Cl295 1583   6.937   4.255   3.912 -0.1875 -0.1536 -0.0671
    5MOL   C296 1584   6.897   4.424   4.125  0.5018  0.5345  0.0600
    5MOL   C297 1585   6.826   4.460   4.240  0.3259  0.7934  0.3192
    5MOL   C298 1586   6.698   4.434   4.513  0.0987  0.6306  0.0300
    5MOL   H299 1587   6.539   4.374   4.399 -0.1319  0.3202 -0.9325
    5MOL   H300 1588   6.547   4.265   4.188  0.4807  0.0738 -1.9921
    5MOL   H301 1589   6.689   4.181   3.996  1.6925 -0.7237 -0.4236
    5MOL   H302 1590   6.990   4.471   4.099  0.2464  0.7973 -0.3904
    5MOL   H303 1591   6.867   4.541   4.299 -1.5152  1.9102  0.0931
    5MOL   H304 1592   6.788   4.495   4.500 -0.2748  1.0766 -0.4984
    5MOL   H305 1593   6.643   4.476   4.597  2.2369  0.7567  1.4251
    5MOL   C306 1594   6.721   4.283   4.552  0.3423 -0.0454 -0.3107
    5MOL   C307 1595   6.863   4.268   4.604 -1.0304  0.0705 -0.3449
    5MOL   C308 1596   6.914   4.346   4.711  0.7012 -0.3016 -0.0397
    5MOL   C309 1597   7.043   4.326   4.753  0.1323  0.1327 -0.2506
    5MOL   C310 1598   7.134   4.235   4.692 -0.1024 -0.1262  0.7949
    5MOL  Cl311 1599   7.297   4.229   4.757  0.0954  0.1188  0.1344
    5MOL   C312 1600   7.088   4.157   4.584  0.6041  0.0022 -0.5255
    5MOL   C313 1601   6.955   4.173   4.540  0.2371  0.2797  0.2113
    5MOL   C314 1602   6.618   4.232   4.656 -0.1654 -1.1429 -1.0584
    5MOL   H315 1603   6.711   4.223   4.461 -0.6615 -0.0991 -0.1757
    5MOL   H316 1604   6.851   4.424   4.753  0.1251 -0.2561 -0.9903
    5MOL   H317 1605   7.088   4.387   4.830 -0.0896 -0.9861  0.7879
    5MOL   H318 1606   7.155   4.081   4.547  2.0998  1.8380 -1.6812
    5MOL   H319 1607   6.918   4.126   4.450 -2.1228 -1.4980  2.0297
    5MOL   H320 1608   6.523   4.225   4.603  0.3406  2.8548 -2.6456
    5MOL   H321 1609   6.642   4.132   4.693  0.2411 -1.2591 -1.6367
    5MOL   H322 1610   6.614   4.300   4.741 -2.5927 -1.6906 -0.6802
    6MOL     C1 1611   4.893   5.653   6.022 -0.1148  0.3453  0.4531
    6MOL     C2 1612   5.031   5.591   6.004  0.7008  0.8939 -0.2777
    6MOL     C3 1613   5.102   5.531   6.110  0.1378 -0.0602 -0.4683
    6MOL     C4 1614   5.221   5.459   6.080 -0.1412 -0.4859  0.0930
    6MOL     C5 1615   5.274   5.461   5.950 -0.1306 -0.0985 -0.5371
    6MOL    Cl6 1616   5.424   5.377   5.913 -0.0624  0.1519  0.4716
    6MOL     C7 1617   5.213   5.530   5.845 -0.0300 -0.4011  0.1305
    6MOL     C8 1618   5.083   5.594   5.877 -0.8853 -0.0735  0.0272
    6MOL     C9 1619   4.780   5.561   5.974  0.4840  0.2044  0.2390
    6MOL    H10 1620   4.893   5.744   5.962 -0.1833  0.2010  0.2337
    6MOL    H11 1621   5.066   5.531   6.212 -0.3290  0.8744 -0.6331
    6MOL    H12 1622   5.272   5.406   6.158  1.2771 -0.6342 -0.9246
    6MOL    H13 1623   5.262   5.526   5.749  1.5346 -1.2363  0.9454
    6MOL    H14 1624   5.031   5.642   5.796 -2.3798  1.7160  1.9927
    6MOL    H15 1625   4.778   5.538   5.868  1.6736 -0.9167  0.4599
    6MOL    H16 1626   4.795   5.463   6.018 -1.4214 -0.3367 -0.2851
    6MOL    H17 1627   4.877   5.680   6.127  2.5868  0.0611  0.9690
    6MOL    C18 1628   4.646   5.623   6.008 -0.0804 -0.6713 -0.3129
    6MOL    C19 1629   4.631   5.760   5.941  0.1813  0.2553 -0.1489
    6MOL    C20 1630   4.641   5.778   5.796 -0.4041  0.6848 -0.3558
    6MOL    C21 1631   4.605   5.903   5.738  0.5817 -0.7450  0.1876
    6MOL    C22 1632   4.565   6.016   5.822  0.5250  0.9383  0.1800
    6MOL   Cl23 1633   4.529   6.170   5.751  0.0202  0.0231 -0.3597
    6MOL    C24 1634   4.564   5.994   5.960 -0.1330  0.3088 -0.2018
    6MOL    C25 1635   4.598   5.868   6.018  0.2305  0.8491 -0.0519
    6MOL    C26 1636   4.527   5.534   5.961  0.2825  0.4607 -0.2221
    6MOL    H27 1637   4.624   5.631   6.115  0.0798 -1.4257 -0.2209
    6MOL    H28 1638   4.673   5.695   5.735  2.0378  0.8672  0.6303
    6MOL    H29 1639   4.620   5.922   5.633  0.0099  1.0049  0.4148
    6MOL    H30 1640   4.541   6.070   6.032  0.1230 -1.1534  1.4562
    6MOL    H31 1641   4.611   5.864   6.125  2.2613  0.3000 -0.2922
    6MOL    H32 1642   4.546   5.505   5.858  1.9042  1.1757 -0.1335
    6MOL    H33 1643   4.543   5.441   6.016 -2.1266 -0.3257 -0.8023
    6MOL    C34 1644   4.382   5.583   5.983 -0.2142  0.5052  0.4002
    6MOL    C35 1645   4.289   5.474   5.916 -0.2458  0.2498 -0.1145
    6MOL    C36 1646   4.271   5.350   5.989 -0.2342 -0.0432  0.2076
    6MOL    C37 1647   4.199   5.243   5.935 -0.1874 -0.4757  0.0569
    6MOL    C38 1648   4.137   5.266   5.808  0.1326 -0.1926  0.4143
    6MOL   Cl39 1649   4.043   5.140   5.738 -0.3111 -0.2332  0.0717
    6MOL    C40 1650   4.148   5.392   5.740  0.4014 -0.2920  0.0617
    6MOL    C41 1651   4.232   5.492   5.793 -0.3438  0.5895  1.0923
    6MOL    C42 1652   4.352   5.611   6.135 -0.0416 -0.3395 -1.1369
    6MOL    H43 1653   4.365   5.673   5.925 -3.3563 -1.2174 -1.4812
    6MOL    H44 1654   4.316   5.336   6.086  0.4210 -1.9582 -0.3440
    6MOL    H45 1655   4.181   5.154   5.993  0.7225 -1.1245 -0.6546
    6MOL    H46 1656   4.096   5.406   5.646  0.6703 -2.8247 -0.5111
    6MOL    H47 1657   4.246   5.582   5.736 -2.2949  1.1106  1.4088
    6MOL    H48 1658   4.366   5.525   6.201  1.8127  1.6609  1.2078
    6MOL    H49 1659   4.421   5.688   6.169 -1.2026 -0.5745  1.9123
    6MOL    C50 1660   4.219   5.684   6.165  0.9805 -0.0332  0.9390
    6MOL    C51 1661   4.096   5.603   6.149 -1.0232  0.0304  0.1448
    6MOL    C52 1662   4.082   5.478   6.211  0.1351  0.1345 -0.4469
    6MOL    C53 1663   3.957   5.414   6.224  0.7492 -0.1686  0.1304
    6MOL    C54 1664   3.835   5.469   6.179 -0.0509 -0.2614 -0.3466
    6MOL   Cl55 1665   3.678   5.408   6.211 -0.2666  0.1287 -0.2064
    6MOL    C56 1666   3.848   5.596   6.121 -0.8361 -0.9078 -0.4813
    6MOL    C57 1667   3.975   5.655   6.095  0.1803 -0.6501 -0.3071
    6MOL    C58 1668   4.218   5.787   6.286 -0.1168 -0.2610  0.0294
    6MOL    H59 1669   4.219   5.746   6.076 -0.2250 -1.1409  0.1521
    6MOL    H60 1670   4.165   5.428   6.259 -1.0186 -2.0600 -0.6540
    6MOL    H61 1671   3.956   5.324   6.283  2.0903  0.4859  1.1708
    6MOL    H62 1672   3.764   5.657   6.093 -2.0200 -2.6342 -0.8265
    6MOL    H63 1673   3.970   5.752   6.048  0.9350  0.0703  1.0711
    6MOL    H64 1674   4.292   5.865   6.274 -0.2951 -0.0777  0.1239
    6MOL    H65 1675   4.121   5.838   6.287  0.3488  0.7205 -2.0489
    6MOL    C66 1676   4.254   5.726   6.430  0.3952 -0.2769  0.2806
    6MOL    C67 1677   4.408   5.706   6.445 -0.9333  0.0401 -0.5581
    6MOL    C68 1678   4.461   5.574   6.453  0.0481 -0.3999 -0.1858
    6MOL    C69 1679   4.603   5.558   6.451  1.2224 -0.0548 -0.2913
    6MOL    C70 1680   4.687   5.671   6.450  0.9741  0.3512 -0.0002
    6MOL   Cl71 1681   4.856   5.647   6.435  0.1148 -0.1825 -0.0367
    6MOL    C72 1682   4.631   5.805   6.450 -0.6545  0.1638  0.4959
    6MOL    C73 1683   4.492   5.817   6.438 -0.0971 -0.3356 -0.6277
    6MOL    C74 1684   4.196   5.811   6.538 -0.4320  0.0010  0.3183
    6MOL    H75 1685   4.212   5.626   6.441 -1.0824  0.7406  4.9480
    6MOL    H76 1686   4.389   5.496   6.474  1.4468 -1.7435 -0.2811
    6MOL    H77 1687   4.639   5.456   6.454 -0.4069 -0.6816 -1.2644
    6MOL    H78 1688   4.698   5.890   6.448  0.8559 -0.9320  2.1369
    6MOL    H79 1689   4.445   5.913   6.423 -0.7884 -0.5131  0.3900
    6MOL    H80 1690   4.242   5.910   6.539  2.3348 -1.2418  2.0180
    6MOL    H81 1691   4.094   5.835   6.507 -2.4302 -3.7894  3.5558
    6MOL    C82 1692   4.218   5.756   6.678 -0.4075  0.4204 -0.0687
    6MOL    C83 1693   4.287   5.857   6.772  0.2282 -0.4845  0.2539
    6MOL    C84 1694   4.214   5.956   6.842  0.3439  1.1438  0.4479
    6MOL    C85 1695   4.267   6.040   6.940  0.1981 -0.7750  0.1018
    6MOL    C86 1696   4.402   6.039   6.962  0.7947 -0.8885 -0.3068
    6MOL   Cl87 1697   4.480   6.150   7.061 -0.1740  0.3863  0.0671
    6MOL    C88 1698   4.484   5.944   6.893 -0.0845 -0.1024  0.2021
    6MOL    C89 1699   4.425   5.854   6.803 -0.6243  0.5128  0.3320
    6MOL    C90 1700   4.098   5.688   6.747 -0.7518 -0.4030  0.0182
    6MOL    H91 1701   4.283   5.669   6.669 -1.8668 -0.8498  1.2479
    6MOL    H92 1702   4.108   5.972   6.826  0.5895  0.9014 -1.4684
    6MOL    H93 1703   4.207   6.114   6.990  1.7269  0.3396  0.3340
    6MOL    H94 1704   4.591   5.948   6.906  0.0631 -0.8601 -0.8036
    6MOL    H95 1705   4.495   5.792   6.749  2.2347  2.5398  1.6182
    6MOL    H96 1706   4.009   5.750   6.734  0.5626  1.4488 -0.3202
    6MOL    H97 1707   4.073   5.607   6.678  0.6337 -0.4624 -0.4356
    6MOL    C98 1708   4.111   5.647   6.897 -0.3528  0.2993 -0.2238
    6MOL    C99 1709   3.980   5.604   6.951  0.0644 -0.1959  0.2355
    6MOL   C100 1710   3.904   5.512   6.879 -0.2160  0.4160  0.2466
    6MOL   C101 1711   3.784   5.463   6.937 -0.3327 -0.2209  0.1362
    6MOL   C102 1712   3.735   5.526   7.055  0.3269 -0.0910  0.1870
    6MOL  Cl103 1713   3.574   5.478   7.099  0.1922 -0.1155 -0.1523
    6MOL   C104 1714   3.805   5.627   7.112  0.1596  0.1039  0.2784
    6MOL   C105 1715   3.939   5.654   7.073 -0.1206 -0.9175 -0.1489
    6MOL   C106 1716   4.232   5.548   6.928  0.2581  0.3937  0.2014
    6MOL   H107 1717   4.125   5.745   6.941 -1.3342  0.7597 -0.9251
    6MOL   H108 1718   3.947   5.476   6.787 -1.3198 -0.2939 -0.0106
    6MOL   H109 1719   3.727   5.386   6.887  1.2922 -1.1499 -0.3110
    6MOL   H110 1720   3.756   5.667   7.200  1.0623 -0.2820  0.9608
    6MOL   H111 1721   3.974   5.738   7.131  0.9279 -2.3426  1.3162
    6MOL   H112 1722   4.185   5.452   6.950  0.1137  0.4870  0.2982
    6MOL   H113 1723   4.286   5.530   6.834 -0.2184  1.9384 -0.3840
    6MOL   C114 1724   4.340   5.590   7.031 -0.1596 -0.0443 -0.1194
    6MOL   C115 1725   4.278   5.642   7.156 -0.4375  0.6712 -0.0165
    6MOL   C116 1726   4.206   5.555   7.243 -0.1964 -0.0277 -0.0211
    6MOL   C117 1727   4.128   5.609   7.347 -0.4015 -0.1471  0.1762
    6MOL   C118 1728   4.132   5.751   7.368 -0.1409  0.0317  0.0000
    6MOL  Cl119 1729   4.036   5.822   7.495 -0.3229 -0.2085  0.0506
    6MOL   C120 1730   4.213   5.832   7.289  0.2505 -0.2555 -0.1937
    6MOL   C121 1731   4.278   5.782   7.180 -0.5105  1.2349  0.2196
    6MOL   C122 1732   4.442   5.479   7.074  0.3441 -0.1903  0.0494
    6MOL   H123 1733   4.401   5.671   6.993  0.1511 -0.1437  0.1616
    6MOL   H124 1734   4.183   5.452   7.221 -1.0431 -0.1737  1.4324
    6MOL   H125 1735   4.063   5.549   7.409  0.3603  0.5712  1.6984
    6MOL   H126 1736   4.209   5.938   7.308 -2.3932 -0.1912 -0.9067
    6MOL   H127 1737   4.340   5.843   7.116  1.6890 -1.5517 -0.3731
    6MOL   H128 1738   4.509   5.514   7.152 -2.2373 -0.5277  2.4755
    6MOL   H129 1739   4.392   5.396   7.124  1.4741 -0.0860  1.3740
    6MOL   C130 1740   4.531   5.415   6.954 -0.1363  0.0630 -0.2513
    6MOL   C131 1741   4.657   5.501   6.940 -0.1540  0.0758 -0.1309
    6MOL   C132 1742   4.684   5.581   6.824  0.3512 -0.0834 -0.2269
    6MOL   C133 1743   4.798   5.658   6.814 -0.3603  0.8021  0.4370
    6MOL   C134 1744   4.903   5.652   6.907  0.5961  0.6566 -0.0340
    6MOL  Cl135 1745   5.042   5.755   6.886 -0.0025  0.0524  0.0785
    6MOL   C136 1746   4.877   5.580   7.024  0.1767  0.1744  0.4821
    6MOL   C137 1747   4.762   5.500   7.032  0.1970 -0.8264  0.0939
    6MOL   C138 1748   4.556   5.259   6.982 -0.1834 -0.3830  0.1827
    6MOL   H139 1749   4.479   5.424   6.859 -1.1924 -0.1679  0.3008
    6MOL   H140 1750   4.596   5.586   6.762 -1.1251 -0.4224  1.7961
    6MOL   H141 1751   4.792   5.717   6.724 -0.4961 -1.0601 -0.8090
    6MOL   H142 1752   4.944   5.562   7.107 -0.8439 -1.6206  0.9615
    6MOL   H143 1753   4.754   5.456   7.130 -0.7532 -0.6606  0.1029
    6MOL   H144 1754   4.640   5.224   6.922 -0.2777 -2.4367  1.2103
    6MOL   H145 1755   4.584   5.246   7.086 -1.9694 -0.0232  0.7280
    6MOL   C146 1756   4.441   5.168   6.947  0.0003 -0.3532  1.1543
    6MOL   C147 1757   4.410   5.158   6.792 -0.5198 -0.0380  0.1826
    6MOL   C148 1758   4.279   5.161   6.747  0.2435  0.3079  0.7665
    6MOL   C149 1759   4.253   5.170   6.609 -0.5277 -0.5134  0.1983
    6MOL   C150 1760   4.359   5.203   6.524 -0.6251  0.2080  0.1180
    6MOL  Cl151 1761   4.322   5.220   6.361  0.2439  0.1567 -0.5924
    6MOL   C152 1762   4.493   5.206   6.570  0.3966  0.1748  0.6529
    6MOL   C153 1763   4.520   5.190   6.704 -0.2610  0.5946 -0.2688
    6MOL   C154 1764   4.469   5.039   7.012  0.6208  0.4659  0.2106
    6MOL   H155 1765   4.359   5.212   7.003  0.6770 -0.4377  2.2140
    6MOL   H156 1766   4.189   5.150   6.806  0.7061  0.5314  1.5255
    6MOL   H157 1767   4.154   5.164   6.568  0.1780 -2.1257 -1.2972
    6MOL   H158 1768   4.564   5.226   6.491  1.2031  0.4287  1.4317
    6MOL   H159 1769   4.621   5.169   6.736 -1.2568 -1.7980  1.5175
    6MOL   H160 1770   4.412   4.961   6.960  0.9376 -0.2010  0.8679
    6MOL   H161 1771   4.568   4.997   6.997  0.5502  0.6291 -0.8089
    6MOL   C162 1772   4.421   5.035   7.161 -0.2804  0.8322  1.0062
    6MOL   C163 1773   4.270   5.051   7.178 -0.7223 -0.4100 -1.0910
    6MOL   C164 1774   4.221   5.144   7.278 -0.0196  0.0174  0.5963
    6MOL   C165 1775   4.078   5.158   7.288 -0.2280 -0.1488 -0.2060
    6MOL   C166 1776   3.989   5.085   7.205  0.1138 -0.6256  0.0385
    6MOL  Cl167 1777   3.823   5.101   7.218 -0.1794 -0.0579  0.1053
    6MOL   C168 1778   4.038   4.992   7.111 -0.9721  0.0775 -0.5170
    6MOL   C169 1779   4.176   4.966   7.110 -0.1353 -0.4465 -0.6415
    6MOL   C170 1780   4.478   4.910   7.223  0.0848  0.6980  0.1673
    6MOL   H171 1781   4.468   5.116   7.216  1.1820  0.3364  0.5292
    6MOL   H172 1782   4.292   5.197   7.340  2.3328 -0.1546 -1.8261
    6MOL   H173 1783   4.031   5.224   7.360 -0.5705 -0.5871 -0.0275
    6MOL   H174 1784   3.972   4.923   7.060  0.5982  0.3072 -2.9867
    6MOL   H175 1785   4.219   4.889   7.048  2.7864 -0.4453  1.2915
    6MOL   H176 1786   4.425   4.833   7.168  2.8268  0.2370 -1.9540
    6MOL   H177 1787   4.583   4.888   7.204  0.0992  0.3770  0.6236
    6MOL   C178 1788   4.450   4.894   7.367 -0.1904 -0.3244  0.0596
    6MOL   C179 1789   4.376   4.761   7.396  0.4525  0.0992  0.6085
    6MOL   C180 1790   4.247   4.755   7.445 -0.0251  0.1612  0.2856
    6MOL   C181 1791   4.197   4.631   7.485 -0.0558 -0.0601  0.7014
    6MOL   C182 1792   4.259   4.507   7.452 -0.1892 -0.2377  1.2784
    6MOL  Cl183 1793   4.190   4.360   7.501  0.1235 -0.6045  0.1030
    6MOL   C184 1794   4.377   4.512   7.376 -0.4418 -0.5762  0.3624
    6MOL   C185 1795   4.444   4.642   7.353 -0.5463  0.2411  0.9483
    6MOL   C186 1796   4.568   4.914   7.465 -1.0145 -0.2300 -0.1370
    6MOL   H187 1797   4.377   4.966   7.403 -0.7932 -0.8603 -0.0734
    6MOL   H188 1798   4.189   4.838   7.482  0.0668 -0.7491  2.5652
    6MOL   H189 1799   4.105   4.624   7.540 -1.3689 -0.7506 -1.5409
    6MOL   H190 1800   4.419   4.423   7.330  0.3634 -0.2755  0.5047
    6MOL   H191 1801   4.539   4.644   7.301 -0.7588  1.0316  0.5913
    6MOL   H192 1802   4.532   4.915   7.567 -0.3292  0.4747  0.1053
    6MOL   H193 1803   4.634   4.828   7.452 -0.8797 -0.2149  0.4357
    6MOL   C194 1804   4.645   5.047   7.445 -0.2174 -0.4230  0.3915
    6MOL   C195 1805   4.564   5.174   7.463  1.2682  0.4359  0.1996
    6MOL   C196 1806   4.603   5.288   7.389 -0.6640  0.3422  0.0747
    6MOL   C197 1807   4.543   5.414   7.406 -0.5321 -0.2307  0.6782
    6MOL   C198 1808   4.442   5.426   7.500  0.6807  0.1199  0.8425
    6MOL  Cl199 1809   4.379   5.585   7.533  0.1956 -0.0907 -0.3137
    6MOL   C200 1810   4.399   5.314   7.568  0.1095 -0.1784 -0.2641
    6MOL   C201 1811   4.461   5.186   7.555  0.0348  0.1915 -0.1155
    6MOL   C202 1812   4.769   5.039   7.530 -0.1973 -0.0706 -0.3227
    6MOL   H203 1813   4.669   5.056   7.339 -1.1409  1.1015  0.3068
    6MOL   H204 1814   4.688   5.279   7.322 -0.3079  0.5331  0.4979
    6MOL   H205 1815   4.584   5.492   7.344 -0.3227 -1.7008 -1.0763
    6MOL   H206 1816   4.335   5.341   7.651  0.4656  2.4018 -0.7867
    6MOL   H207 1817   4.445   5.114   7.634  0.6515  0.1451 -0.0238
    6MOL   H208 1818   4.780   5.139   7.573 -0.8399  0.0271 -0.3825
    6MOL   H209 1819   4.750   4.973   7.614  0.0786 -0.3153 -0.4532
    6MOL   C210 1820   4.902   4.985   7.466 -0.2574  0.4239 -0.0358
    6MOL   C211 1821   4.936   5.057   7.331  0.2239 -0.2379 -0.7245
    6MOL   C212 1822   4.953   5.199   7.327  0.0312  0.0326 -0.3805
    6MOL   C213 1823   4.987   5.268   7.210  0.4022 -0.5360 -0.5881
    6MOL   C214 1824   5.007   5.189   7.093  0.2861 -0.4865 -0.6395
    6MOL  Cl215 1825   5.065   5.279   6.953  0.2059  0.2253  0.3809
    6MOL   C216 1826   4.988   5.051   7.098  0.1973 -0.2308  0.4567
    6MOL   C217 1827   4.952   4.987   7.215 -0.0538 -0.3327 -0.3598
    6MOL   C218 1828   5.014   4.994   7.568 -0.0955 -0.2598 -0.1616
    6MOL   H219 1829   4.888   4.879   7.444 -1.4177  0.2641  1.4149
    6MOL   H220 1830   4.950   5.249   7.423 -0.0956 -0.4711 -0.1200
    6MOL   H221 1831   5.011   5.373   7.209  2.2793 -0.9115  0.9359
    6MOL   H222 1832   4.997   4.990   7.009 -2.6876 -1.4800  0.9492
    6MOL   H223 1833   4.939   4.880   7.222  2.6871 -0.6403  0.6576
    6MOL   H224 1834   5.068   5.088   7.568  1.6177 -1.1830  1.7115
    6MOL   H225 1835   4.975   4.979   7.669  0.2603 -0.8797 -0.1082
    6MOL   C226 1836   5.120   4.882   7.552 -0.0104 -0.3167 -0.2732
    6MOL   C227 1837   5.214   4.903   7.436 -0.0152 -0.7128 -0.6130
    6MOL   C228 1838   5.228   4.801   7.343  0.0278  0.8346  0.2878
    6MOL   C229 1839   5.304   4.820   7.226  0.2202 -1.0205 -0.1815
    6MOL   C230 1840   5.372   4.941   7.205  0.5858  0.2658  0.6588
    6MOL  Cl231 1841   5.461   4.960   7.066 -0.0952 -0.0978 -0.3872
    6MOL   C232 1842   5.364   5.044   7.298 -0.0408 -0.1734  0.0203
    6MOL   C233 1843   5.291   5.020   7.413  0.6735  0.3141  0.0452
    6MOL   C234 1844   5.210   4.873   7.680  0.2065 -0.0724 -0.9422
    6MOL   H235 1845   5.066   4.788   7.540 -2.1418  0.9963 -1.2366
    6MOL   H236 1846   5.177   4.707   7.359  1.3056  0.1695  0.6035
    6MOL   H237 1847   5.307   4.749   7.145 -0.5819  0.0607 -1.1652
    6MOL   H238 1848   5.410   5.140   7.281  1.4551 -0.6132  1.5534
    6MOL   H239 1849   5.281   5.104   7.481  1.8221  2.2131 -2.0558
    6MOL   H240 1850   5.256   4.971   7.688  1.6703 -0.7311 -1.0888
    6MOL   H241 1851   5.150   4.852   7.769  2.1041 -0.1337  0.3587
    6MOL   C242 1852   5.332   4.770   7.685 -0.1223 -0.2440  0.3027
    6MOL   C243 1853   5.411   4.786   7.807 -0.0966  0.1951 -0.0622
    6MOL   C244 1854   5.549   4.817   7.793 -0.0381  0.4894  0.3041
    6MOL   C245 1855   5.621   4.855   7.908  0.2909 -0.6293 -1.0188
    6MOL   C246 1856   5.557   4.854   8.035 -0.4139  0.7047 -0.1736
    6MOL  Cl247 1857   5.640   4.904   8.178  0.2552 -0.0264  0.0422
    6MOL   C248 1858   5.421   4.817   8.050 -0.3401  0.0784 -0.3471
    6MOL   C249 1859   5.344   4.788   7.937 -0.4400 -0.2837  0.1117
    6MOL   C250 1860   5.296   4.619   7.660 -0.1895  0.6851 -0.1080
    6MOL   H251 1861   5.395   4.796   7.600 -0.8221  2.0528  0.4640
    6MOL   H252 1862   5.596   4.823   7.696  0.3878 -0.5080  0.4456
    6MOL   H253 1863   5.721   4.894   7.898 -0.0679  0.4891 -0.3499
    6MOL   H254 1864   5.383   4.795   8.148 -0.5511 -3.0566 -1.0882
    6MOL   H255 1865   5.238   4.768   7.945 -0.6324  0.2495 -0.9886
    6MOL   H256 1866   5.259   4.570   7.750 -1.8268 -0.6033 -1.4466
    6MOL   H257 1867   5.215   4.623   7.587  0.7763  0.6503 -1.1814
    6MOL   C258 1868   5.402   4.532   7.594  0.7339 -0.2589 -0.7000
    6MOL   C259 1869   5.518   4.488   7.689  0.2882 -0.2293 -0.5288
    6MOL   C260 1870   5.654   4.520   7.655 -0.1309  0.2907 -0.2254
    6MOL   C261 1871   5.763   4.475   7.735 -0.4523 -0.4409 -0.2753
    6MOL   C262 1872   5.735   4.421   7.862 -0.0020 -0.3972  0.2451
    6MOL  Cl263 1873   5.864   4.390   7.970 -0.4593 -0.0502  0.3916
    6MOL   C264 1874   5.604   4.397   7.893 -0.5210 -0.0796 -1.0721
    6MOL   C265 1875   5.490   4.429   7.816 -0.8620 -0.1330 -0.2996
    6MOL   C266 1876   5.348   4.407   7.514 -0.2377 -0.0136  0.7375
    6MOL   H267 1877   5.446   4.596   7.518  1.4699 -0.1930 -0.2133
    6MOL   H268 1878   5.673   4.574   7.563 -2.2806  1.8783  0.2073
    6MOL   H269 1879   5.867   4.485   7.706  0.2616 -2.6611  1.3557
    6MOL   H270 1880   5.582   4.355   7.990 -0.3654 -0.2246 -1.0994
    6MOL   H271 1881   5.390   4.409   7.852  0.0080  0.9713  2.8525
    6MOL   H272 1882   5.319   4.329   7.584 -2.5322 -0.2091 -0.3603
    6MOL   H273 1883   5.259   4.440   7.460 -0.3801 -2.3425 -0.5167
    6MOL   C274 1884   5.456   4.331   7.420 -0.5048 -0.2714 -0.0540
    6MOL   C275 1885   5.397   4.204   7.368  0.7819  0.0551 -0.4796
    6MOL   C276 1886   5.348   4.200   7.236  0.3764  0.4843 -0.3677
    6MOL   C277 1887   5.273   4.090   7.197 -0.3727 -0.4955  0.0102
    6MOL   C278 1888   5.261   3.977   7.283  0.2955 -0.2419  0.0664
    6MOL  Cl279 1889   5.167   3.840   7.230  0.0362  0.3494 -0.1104
    6MOL   C280 1890   5.320   3.981   7.411  0.0251  0.6860  0.1197
    6MOL   C281 1891   5.387   4.093   7.454  0.0914  0.2350  0.6049
    6MOL   C282 1892   5.522   4.425   7.314  0.4482  0.6036 -0.2567
    6MOL   H283 1893   5.527   4.290   7.492 -1.4244 -1.6489  0.0896
    6MOL   H284 1894   5.359   4.286   7.172 -1.8954  0.4541 -0.8355
    6MOL   H285 1895   5.227   4.087   7.100  1.5466 -0.5576 -0.9297
    6MOL   H286 1896   5.294   3.902   7.480 -1.7602  1.9078  0.8825
    6MOL   H287 1897   5.427   4.091   7.554 -1.3955  3.6535  1.3202
    6MOL   H288 1898   5.439   4.457   7.252  0.1933 -2.9751 -1.9023
    6MOL   H289 1899   5.572   4.511   7.359  0.5871  0.2980  0.1838
    6MOL   C290 1900   5.628   4.357   7.227 -0.2177 -0.7197  0.2651
    6MOL   C291 1901   5.622   4.404   7.076 -0.0655 -0.6890 -0.3244
    6MOL   C292 1902   5.599   4.310   6.973  0.6411 -0.3044 -0.0084
    6MOL   C293 1903   5.591   4.355   6.843  0.0310  0.0674 -0.2539
    6MOL   C294 1904   5.611   4.493   6.812 -0.2256 -0.7438 -0.4943
    6MOL  Cl295 1905   5.632   4.548   6.646  0.0182  0.0834  0.3300
    6MOL   C296 1906   5.620   4.583   6.912 -0.5558 -0.2757 -0.6883
    6MOL   C297 1907   5.629   4.540   7.043 -0.0476  0.7760  0.0281
    6MOL   C298 1908   5.777   4.376   7.273  0.2652  0.9611 -0.3428
    6MOL   H299 1909   5.613   4.250   7.233 -1.1832 -0.5188  1.6208
    6MOL   H300 1910   5.573   4.210   7.003  1.9258 -0.4362  0.7410
    6MOL   H301 1911   5.560   4.284   6.767 -0.2971 -1.3739  1.1959
    6MOL   H302 1912   5.632   4.688   6.892  0.3176 -0.3029 -0.3350
    6MOL   H303 1913   5.639   4.611   7.123 -0.7229  1.5845 -0.5999
    6MOL   H304 1914   5.811   4.475   7.241 -1.9537  1.6008 -0.8214
    6MOL   H305 1915   5.789   4.383   7.381  3.0105 -0.9218 -0.4957
    6MOL   C306 1916   5.869   4.264   7.212  0.2214  0.8689  0.1326
    6MOL   C307 1917   6.018   4.297   7.215  0.3047 -0.4534 -0.1838
    6MOL   C308 1918   6.097   4.252   7.106 -0.7118 -0.0044  0.1120
    6MOL   C309 1919   6.237   4.271   7.105  0.7179  0.4964 -0.2078
    6MOL   C310 1920   6.298   4.357   7.206 -0.7925 -0.2229 -0.2468
    6MOL  Cl311 1921   6.470   4.383   7.205 -0.2722 -0.0167 -0.5150
    6MOL   C312 1922   6.216   4.416   7.305  0.4661  0.0193 -0.0112
    6MOL   C313 1923   6.080   4.372   7.313 -0.4707 -0.0918 -0.0209
    6MOL   C314 1924   5.858   4.139   7.295 -0.2181  0.0751  0.6524
    6MOL   H315 1925   5.834   4.251   7.110 -1.9693 -1.6083  1.1283
    6MOL   H316 1926   6.056   4.188   7.029  1.2540 -0.1361 -0.8288
    6MOL   H317 1927   6.302   4.228   7.031 -1.6878 -1.1233 -1.4420
    6MOL   H318 1928   6.250   4.481   7.385  0.4803  1.4583 -1.1671
    6MOL   H319 1929   6.029   4.404   7.402 -1.4307 -0.3885 -0.4574
    6MOL   H320 1930   5.921   4.061   7.252 -1.1434  0.5321 -1.5603
    6MOL   H321 1931   5.877   4.155   7.402  0.5260 -1.4127  0.7539
    6MOL   H322 1932   5.757   4.099   7.293 -0.1868  0.0489 -0.2262
    7MOL     C1 1933   0.695   0.224   5.038  0.4178  0.2663  0.1436
    7MOL     C2 1934   0.711   0.292   5.172 -0.1127 -0.8878 -0.0429
    7MOL     C3 1935   0.700   0.215   5.287  0.3061  0.1854 -0.4264
    7MOL     C4 1936   0.680   0.277   5.414 -0.2536  1.1101  0.1956
    7MOL     C5 1937   0.678   0.416   5.431  0.0771 -0.2799  0.0778
    7MOL    Cl6 1938   0.652   0.493   5.579  0.3522 -0.2550 -0.1029
    7MOL     C7 1939   0.695   0.492   5.313  0.0024  0.3550 -0.0913
    7MOL     C8 1940   0.720   0.436   5.185 -0.6630  0.1356 -0.0830
    7MOL     C9 1941   0.582   0.300   4.964  0.2693  0.2914 -0.0410
    7MOL    H10 1942   0.682   0.118   5.056  0.7126  0.2884  0.4756
    7MOL    H11 1943   0.693   0.107   5.288  2.0463  0.0805  2.2080
    7MOL    H12 1944   0.668   0.209   5.496 -0.4519 -2.1227 -2.4227
    7MOL    H13 1945   0.685   0.599   5.316 -1.9358  0.1929  0.1723
    7MOL    H14 1946   0.739   0.500   5.100 -0.3486  1.8289  1.2403
    7MOL    H15 1947   0.509   0.332   5.038 -0.5926  1.4258 -1.3534
    7MOL    H16 1948   0.610   0.389   4.908 -1.4164  1.0990  0.3644
    7MOL    H17 1949   0.793   0.233   4.991  0.0578 -0.2780 -0.7433
    7MOL    C18 1950   0.496   0.210   4.870 -0.2900 -0.0772  0.4919
    7MOL    C19 1951   0.342   0.220   4.889  0.2119  0.0682  0.5924
    7MOL    C20 1952   0.274   0.098   4.879  0.0943 -0.7779  0.0050
    7MOL    C21 1953   0.134   0.108   4.873  0.4017  0.4713 -0.2687
    7MOL    C22 1954   0.063   0.225   4.864  0.2257  0.6977 -0.8167
    7MOL   Cl23 1955   8.344   0.233   4.815 -0.2028 -0.0111 -0.4400
    7MOL    C24 1956   0.136   0.348   4.882 -0.8494  0.1277 -0.3238
    7MOL    C25 1957   0.280   0.347   4.896  0.2700 -0.3889 -0.0148
    7MOL    C26 1958   0.498   0.252   4.718  0.3789  0.7138 -0.6366
    7MOL    H27 1959   0.521   0.104   4.870  0.8442  0.1723  2.3686
    7MOL    H28 1960   0.318   8.442   4.882 -0.7958 -1.1701  0.3704
    7MOL    H29 1961   0.085   0.014   4.854 -0.2672  0.7682 -0.0045
    7MOL    H30 1962   0.089   0.443   4.865  1.1337  1.1295 -0.3229
    7MOL    H31 1963   0.336   0.440   4.897  2.3389 -1.5799 -1.2824
    7MOL    H32 1964   0.414   0.216   4.660 -1.2331 -0.6227  2.4208
    7MOL    H33 1965   0.488   0.360   4.716  0.9864  0.8025  0.3439
    7MOL    C34 1966   0.631   0.207   4.643 -0.2909  0.4187 -0.5154
    7MOL    C35 1967   0.664   0.063   4.660  0.2875 -0.2550 -0.4794
    7MOL    C36 1968   0.795   0.024   4.696  0.0509 -0.2027  0.4240
    7MOL    C37 1969   0.834   8.330   4.680 -0.1362 -0.5477 -0.7089
    7MOL    C38 1970   0.741   8.239   4.630 -0.0445  0.2702  0.3650
    7MOL   Cl39 1971   0.802   8.081   4.588 -0.2315  0.5339 -0.2156
    7MOL    C40 1972   0.605   8.272   4.610 -0.6518  0.0799 -0.6127
    7MOL    C41 1973   0.568   8.411   4.625  0.5449 -0.3549 -0.1599
    7MOL    C42 1974   0.617   0.237   4.498  0.4040 -0.4104  0.3805
    7MOL    H43 1975   0.712   0.262   4.690 -0.3671 -0.1956  0.3345
    7MOL    H44 1976   0.876   0.092   4.713 -0.8115  0.6435  1.2130
    7MOL    H45 1977   0.940   8.311   4.692  0.2376  1.1034 -1.2601
    7MOL    H46 1978   0.539   8.194   4.576  0.6498 -0.9352 -0.8714
    7MOL    H47 1979   0.468   0.004   4.604  1.0614  1.0759 -0.2496
    7MOL    H48 1980   0.702   0.202   4.439  0.0228 -0.2679 -0.2583
    7MOL    H49 1981   0.545   0.167   4.457 -0.0664  1.3474 -1.8855
    7MOL    C50 1982   0.603   0.390   4.472 -0.7475 -0.5838  0.0717
    7MOL    C51 1983   0.706   0.476   4.546  0.2010  0.0732  0.7366
    7MOL    C52 1984   0.675   0.566   4.652  0.2086 -0.1497  0.0278
    7MOL    C53 1985   0.779   0.638   4.721  0.9900  0.3564  0.3217
    7MOL    C54 1986   0.915   0.636   4.670 -0.4261  0.6688 -0.2380
    7MOL   Cl55 1987   1.028   0.742   4.727 -0.7140 -0.5322  0.0240
    7MOL    C56 1988   0.952   0.536   4.571  0.0443  0.2920 -0.4721
    7MOL    C57 1989   0.842   0.463   4.512 -0.1203  0.4405 -0.2447
    7MOL    C58 1990   0.583   0.429   4.322 -0.0925 -0.4759 -0.3776
    7MOL    H59 1991   0.514   0.431   4.519 -0.0839  0.6299  0.2874
    7MOL    H60 1992   0.577   0.567   4.698  0.1221 -0.7606 -0.1442
    7MOL    H61 1993   0.746   0.700   4.803  1.7398  0.8385  0.2679
    7MOL    H62 1994   1.053   0.526   4.534  0.5689  1.4361  0.6067
    7MOL    H63 1995   0.870   0.390   4.437  1.7982  0.0734  0.7956
    7MOL    H64 1996   0.585   0.536   4.302  1.4464 -0.6081 -1.0586
    7MOL    H65 1997   0.667   0.390   4.264 -0.0343  1.3335 -1.5442
    7MOL    C66 1998   0.460   0.356   4.268 -0.4852 -0.2022  0.4163
    7MOL    C67 1999   0.341   0.409   4.343 -0.3456  0.6407 -0.1408
    7MOL    C68 2000   0.289   0.542   4.328 -0.0203 -0.0077  0.3884
    7MOL    C69 2001   0.182   0.587   4.411  0.8091  0.4068 -0.3185
    7MOL    C70 2002   0.115   0.486   4.488  0.7780 -1.1112 -0.3452
    7MOL   Cl71 2003   8.425   0.545   4.585  0.2260 -0.0963 -0.0728
    7MOL    C72 2004   0.158   0.357   4.498 -0.0341  0.6274 -0.1774
    7MOL    C73 2005   0.270   0.319   4.430  0.5647  1.1661  0.2584
    7MOL    C74 2006   0.452   0.370   4.113 -0.5813  0.1226 -0.2661
    7MOL    H75 2007   0.477   0.250   4.283  0.2682 -0.0752  0.4844
    7MOL    H76 2008   0.337   0.620   4.271 -0.5869 -0.0433 -0.1458
    7MOL    H77 2009   0.142   0.685   4.392  0.2327  0.1984 -0.2041
    7MOL    H78 2010   0.107   0.290   4.566  2.3898  0.4928  1.5520
    7MOL    H79 2011   0.306   0.219   4.449  1.0683  1.3721  0.3809
    7MOL    H80 2012   0.462   0.474   4.080  0.7361  0.1407  0.1360
    7MOL    H81 2013   0.544   0.327   4.072 -0.1264  3.7090 -3.3924
    7MOL    C82 2014   0.339   0.297   4.042  0.6350 -0.1675 -0.2912
    7MOL    C83 2015   0.203   0.379   4.035 -0.2804  0.1806 -0.0484
    7MOL    C84 2016   0.197   0.501   3.965 -0.0867  0.2163 -0.2353
    7MOL    C85 2017   0.079   0.574   3.966  0.1340 -0.2949 -0.3693
    7MOL    C86 2018   8.410   0.532   4.039 -0.0498  0.1791 -0.0384
    7MOL   Cl87 2019   8.256   0.617   4.029 -0.1121 -0.1736  0.3730
    7MOL    C88 2020   8.417   0.417   4.120  0.5951  0.1877 -0.2662
    7MOL    C89 2021   0.092   0.335   4.105  0.7121  0.1238 -0.4533
    7MOL    C90 2022   0.374   0.245   3.894 -0.2785  0.1431 -0.3540
    7MOL    H91 2023   0.326   0.198   4.085 -1.8427  0.8342  1.3891
    7MOL    H92 2024   0.284   0.533   3.909  1.6671 -0.5785  1.9470
    7MOL    H93 2025   0.079   0.667   3.911 -2.0569  0.8843  1.4836
    7MOL    H94 2026   8.336   0.384   4.183  0.2402 -0.9126 -1.2821
    7MOL    H95 2027   0.093   0.255   4.176 -0.9222  1.5866  1.2582
    7MOL    H96 2028   0.287   0.268   3.833 -0.8103 -0.7036  0.0796
    7MOL    H97 2029   0.465   0.291   3.855  1.2265 -2.3493  0.1243
    7MOL    C98 2030   0.401   0.099   3.880 -0.1042 -0.1590  0.7147
    7MOL    C99 2031   0.510   0.042   3.964 -0.1479 -0.2443  0.0747
    7MOL   C100 2032   0.479   8.433   4.096  0.1711 -0.1851  0.6777
    7MOL   C101 2033   0.588   8.404   4.184  0.3919  0.3347 -0.1901
    7MOL   C102 2034   0.721   8.410   4.145  0.3171 -0.2205 -0.1969
    7MOL  Cl103 2035   0.856   8.378   4.253 -0.2090 -0.0316  0.1629
    7MOL   C104 2036   0.748   0.008   4.010 -0.1489  0.2933 -0.2244
    7MOL   C105 2037   0.645   0.040   3.918  0.0242  0.0064 -0.5613
    7MOL   C106 2038   0.273   0.021   3.892 -0.3087 -0.7815 -0.2921
    7MOL   H107 2039   0.434   0.082   3.777 -2.4380 -2.4206  0.2621
    7MOL   H108 2040   0.381   8.414   4.137 -0.3940  1.7437  0.2620
    7MOL   H109 2041   0.571   8.367   4.285 -0.5566 -0.4798 -0.6397
    7MOL   H110 2042   0.854   0.028   3.995  0.1266 -1.5964 -0.9527
    7MOL   H111 2043   0.670   0.073   3.818 -1.1541 -0.5446 -1.0533
    7MOL   H112 2044   0.290   8.357   3.903 -0.4421 -0.9296 -1.4256
    7MOL   H113 2045   0.226   0.040   3.988 -0.8892 -1.6186 -0.4071
    7MOL   C114 2046   0.153   0.033   3.790  0.0318  0.0309  0.1618
    7MOL   C115 2047   0.201   0.049   3.646 -0.2757 -0.2617 -0.2971
    7MOL   C116 2048   0.277   8.396   3.576  0.5116 -0.4866 -0.0059
    7MOL   C117 2049   0.312   8.407   3.438 -0.0687  0.8010 -0.4407
    7MOL   C118 2050   0.267   0.084   3.369 -0.9064 -0.1242 -0.3380
    7MOL  Cl119 2051   0.319   0.108   3.209 -0.1870 -0.3739 -0.1794
    7MOL   C120 2052   0.195   0.184   3.437 -0.7660 -0.1630  0.4966
    7MOL   C121 2053   0.165   0.169   3.576 -0.6138 -0.0950  0.1374
    7MOL   C122 2054   0.039   8.376   3.802 -0.3154  1.0857 -0.3754
    7MOL   H123 2055   0.098   0.126   3.804 -0.4133 -0.5250  2.3621
    7MOL   H124 2056   0.302   8.306   3.628 -1.3177  0.3489  2.3958
    7MOL   H125 2057   0.360   8.323   3.390 -0.3572 -0.5032  1.4918
    7MOL   H126 2058   0.158   0.266   3.377  1.0446  1.6173  1.7711
    7MOL   H127 2059   0.101   0.249   3.611  0.6241  1.8859 -2.0336
    7MOL   H128 2060   8.427   8.397   3.711 -1.1989  1.6531  0.2818
    7MOL   H129 2061   0.076   8.274   3.797 -0.9157  0.8256  0.3155
    7MOL   C130 2062   8.381   8.394   3.921  0.4949  0.5045 -0.3451
    7MOL   C131 2063   8.251   8.321   3.895  0.6830  0.7151  0.6244
    7MOL   C132 2064   8.243   8.182   3.878 -0.4307 -0.1824 -0.0209
    7MOL   C133 2065   8.123   8.116   3.883 -0.7819 -0.2458 -0.1126
    7MOL   C134 2066   8.003   8.185   3.902 -0.3895  0.1040 -0.0860
    7MOL  Cl135 2067   7.855   8.106   3.913  0.1214  0.0384 -0.1723
    7MOL   C136 2068   8.003   8.325   3.909 -0.0372 -0.1199 -0.1281
    7MOL   C137 2069   8.125   8.392   3.901 -0.3986 -0.6995 -0.0321
    7MOL   C138 2070   8.433   8.359   4.064  0.4288  0.3348  0.2799
    7MOL   H139 2071   8.359   0.057   3.929 -0.8361  0.2416 -0.4373
    7MOL   H140 2072   8.332   8.122   3.873 -0.0854  0.2535  0.7910
    7MOL   H141 2073   8.133   8.009   3.890 -0.0600 -0.0555  2.0940
    7MOL   H142 2074   7.905   8.368   3.919  0.7652  1.1913  2.3874
    7MOL   H143 2075   8.119   0.056   3.898 -1.0537 -0.7546 -0.7298
    7MOL   H144 2076   0.027   8.257   4.057 -3.1050 -1.0541  0.8796
    7MOL   H145 2077   0.073   8.422   4.098  1.6667 -1.6858  1.1116
    7MOL   C146 2078   8.330   8.358   4.179  0.8212  0.5960 -0.8720
    7MOL   C147 2079   8.401   8.302   4.304 -0.0136 -0.1544  0.1853
    7MOL   C148 2080   8.432   8.168   4.318  0.9060  0.7244 -0.2354
    7MOL   C149 2081   0.085   8.122   4.407  0.1286  0.8187 -0.0331
    7MOL   C150 2082   0.162   8.216   4.476 -0.4397  0.3919 -0.3054
    7MOL  Cl151 2083   0.271   8.169   4.597 -0.3685  0.1095  0.0715
    7MOL   C152 2084   0.135   8.353   4.468  0.0892 -0.4094 -0.9849
    7MOL   C153 2085   0.034   8.392   4.380  0.3783  0.7792  0.3710
    7MOL   C154 2086   8.257   0.052   4.197  0.0983 -0.3726  0.0738
    7MOL   H155 2087   8.253   8.287   4.147  0.6422 -0.1919  1.2196
    7MOL   H156 2088   8.380   8.099   4.254  0.9406  0.9683 -0.5269
    7MOL   H157 2089   0.103   8.016   4.418  2.6521  1.1195 -0.8287
    7MOL   H158 2090   0.190   8.420   4.532 -0.8761 -0.9954  0.4996
    7MOL   H159 2091   0.025   0.056   4.367 -0.3836  0.5408 -1.2893
    7MOL   H160 2092   8.320   0.135   4.228  0.6122 -0.8696  0.3792
    7MOL   H161 2093   8.209   0.081   4.104 -3.3407  0.8367  2.1636
    7MOL   C162 2094   8.145   0.039   4.308 -0.0874 -0.3518 -0.9104
    7MOL   C163 2095   8.114   0.180   4.351  0.3055 -0.0760  0.2379
    7MOL   C164 2096   8.068   0.266   4.250 -0.5865  0.1151  0.1809
    7MOL   C165 2097   8.057   0.404   4.269  0.1612  0.1653  0.2888
    7MOL   C166 2098   8.108   0.462   4.390 -0.0831 -0.0240 -0.3638
    7MOL  Cl167 2099   8.127   0.634   4.391  0.1185  0.1265 -0.4292
    7MOL   C168 2100   8.140   0.379   4.500  0.1070  0.5107  0.0057
    7MOL   C169 2101   8.137   0.238   4.481  0.0779 -0.2446  0.4952
    7MOL   C170 2102   8.023   8.390   4.277  0.3081  0.6894 -0.6267
    7MOL   H171 2103   8.191   8.433   4.394  1.8350 -0.3217 -1.8949
    7MOL   H172 2104   8.053   0.221   4.153  2.4502 -2.4180  0.7969
    7MOL   H173 2105   8.028   0.468   4.187  1.9320  0.6307  0.0047
    7MOL   H174 2106   8.155   0.426   4.596  0.0561 -0.5809  0.5565
    7MOL   H175 2107   8.175   0.182   4.564 -1.2702 -1.5065  0.2761
    7MOL   H176 2108   7.963   8.423   4.193 -3.0467  0.4926  1.5834
    7MOL   H177 2109   8.060   8.289   4.260 -3.4482 -1.1305  1.2560
    7MOL   C178 2110   7.918   8.375   4.393  0.3940 -0.3537  0.0816
    7MOL   C179 2111   7.820   0.044   4.387  0.1236  0.2742  0.6027
    7MOL   C180 2112   7.796   0.127   4.501  1.2253 -0.0957  0.0585
    7MOL   C181 2113   7.687   0.222   4.506  0.4787  0.6041 -0.2828
    7MOL   C182 2114   7.605   0.225   4.389  0.0618 -0.8337 -0.1033
    7MOL  Cl183 2115   7.475   0.338   4.386  0.0909  0.1568 -0.2161
    7MOL   C184 2116   7.627   0.139   4.278  0.5458 -0.7233 -1.0364
    7MOL   C185 2117   7.733   0.048   4.281 -0.1860 -0.5802  0.2221
    7MOL   C186 2118   7.848   8.235   4.402 -0.0222  0.0999 -0.3950
    7MOL   H187 2119   7.981   8.377   4.482 -0.8623 -0.2911  0.9781
    7MOL   H188 2120   7.867   0.127   4.582 -1.1934 -2.4895  2.2756
    7MOL   H189 2121   7.671   0.287   4.590 -1.2062  2.0684 -1.7060
    7MOL   H190 2122   7.560   0.134   4.193 -0.3314  0.1812 -0.4175
    7MOL   H191 2123   7.737   8.424   4.196  2.2504 -2.4580  1.7445
    7MOL   H192 2124   7.774   8.249   4.481 -1.5491 -0.3168 -1.7170
    7MOL   H193 2125   7.797   8.211   4.309 -0.9727  2.0693 -0.4054
    7MOL   C194 2126   7.936   8.126   4.450 -0.1590  0.0577 -0.2999
    7MOL   C195 2127   8.012   8.150   4.582  0.5895  0.8152  0.4015
    7MOL   C196 2128   7.948   8.161   4.707 -1.2202 -0.3932  0.2578
    7MOL   C197 2129   8.023   8.165   4.826 -0.1357  0.5472 -0.4206
    7MOL   C198 2130   8.166   8.151   4.817 -0.4357  0.4296 -1.5316
    7MOL  Cl199 2131   8.264   8.157   4.962 -0.0303  0.0557 -0.2314
    7MOL   C200 2132   8.231   8.154   4.693  0.5220 -1.0636 -0.0983
    7MOL   C201 2133   8.156   8.155   4.573  0.9499 -0.0983 -0.1061
    7MOL   C202 2134   7.849   7.998   4.457 -0.8405 -0.1701 -0.0427
    7MOL   H203 2135   8.000   8.109   4.363 -0.6208  0.4152 -0.7135
    7MOL   H204 2136   7.842   8.142   4.719 -0.6648 -4.5320 -0.6995
    7MOL   H205 2137   7.978   8.176   4.923 -1.5354  0.7017 -1.0756
    7MOL   H206 2138   8.339   8.158   4.695  0.4869  3.0702 -2.0144
    7MOL   H207 2139   8.208   8.156   4.478  2.7094 -0.4393  0.8250
    7MOL   H208 2140   7.762   8.010   4.521 -0.3544 -1.8606  0.9859
    7MOL   H209 2141   7.790   7.986   4.366 -1.6466 -0.8341  0.5538
    7MOL   C210 2142   7.924   7.866   4.504  1.0936 -0.5064  0.3691
    7MOL   C211 2143   7.920   7.839   4.658 -0.1566  0.4920 -0.5798
    7MOL   C212 2144   8.039   7.838   4.736 -0.5217  0.7163 -0.0944
    7MOL   C213 2145   8.038   7.821   4.875  0.2959  0.4852 -0.3153
    7MOL   C214 2146   7.916   7.811   4.941  0.1691  0.2441 -0.2878
    7MOL  Cl215 2147   7.909   7.785   5.106 -0.3024 -0.0226  0.5268
    7MOL   C216 2148   7.795   7.823   4.870  0.2247  0.0766  0.2200
    7MOL   C217 2149   7.798   7.826   4.729 -0.3402  0.4470  0.0960
    7MOL   C218 2150   7.866   7.739   4.437 -0.3122 -0.3422  0.6909
    7MOL   H219 2151   8.027   7.874   4.471  0.9497  1.6239  0.3966
    7MOL   H220 2152   8.134   7.833   4.685 -0.2358  0.1595  0.4772
    7MOL   H221 2153   8.132   7.795   4.923 -1.6747 -3.3631  1.6261
    7MOL   H222 2154   7.698   7.821   4.917  0.0997  0.8483  0.0073
    7MOL   H223 2155   7.706   7.837   4.674  0.5129  0.4312 -1.3799
    7MOL   H224 2156   7.907   7.649   4.483  2.1221  1.5587  2.3678
    7MOL   H225 2157   7.760   7.723   4.456 -0.1998 -3.6551 -1.0874
    7MOL   C226 2158   7.898   7.727   4.284 -0.2023  0.8229 -0.3506
    7MOL   C227 2159   8.048   7.745   4.248 -0.0088 -0.3078  0.1391
    7MOL   C228 2160   8.146   7.654   4.292 -0.0450  0.4465 -0.2684
    7MOL   C229 2161   8.282   7.666   4.263 -0.1314 -0.4836  0.5395
    7MOL   C230 2162   8.328   7.780   4.195 -0.5912  0.0556  0.6162
    7MOL  Cl231 2163   0.054   7.800   4.176 -0.1407 -0.5823  0.0276
    7MOL   C232 2164   8.231   7.873   4.148  0.5264 -0.4751  0.0414
    7MOL   C233 2165   8.092   7.851   4.164  0.0455  0.5004 -0.2017
    7MOL   C234 2166   7.850   7.593   4.228  0.2917 -0.1499 -0.0857
    7MOL   H235 2167   7.842   7.800   4.224 -2.0657  0.7314  1.2355
    7MOL   H236 2168   8.122   7.568   4.353 -0.9343 -0.1749 -1.4726
    7MOL   H237 2169   8.344   7.585   4.299 -0.2543 -0.6206  0.4406
    7MOL   H238 2170   8.260   7.966   4.102  0.4473 -0.3833  0.1749
    7MOL   H239 2171   8.030   7.927   4.122  1.5787  1.7558 -0.2433
    7MOL   H240 2172   7.908   7.508   4.265 -0.0759  0.3745  1.7757
    7MOL   H241 2173   7.754   7.581   4.278 -0.0936 -1.2683 -1.0645
    7MOL   C242 2174   7.807   7.586   4.077  0.3350 -0.1220  0.3538
    7MOL   C243 2175   7.917   7.607   3.974  0.2731  0.0963  0.7096
    7MOL   C244 2176   8.040   7.542   3.980  0.4807  0.5849  0.2304
    7MOL   C245 2177   8.144   7.600   3.903  0.5212  0.1057  0.2416
    7MOL   C246 2178   8.122   7.694   3.804  0.3764  0.1628 -0.2490
    7MOL  Cl247 2179   8.250   7.746   3.704  0.4416 -0.3672 -0.2925
    7MOL   C248 2180   7.996   7.750   3.793 -0.6904  0.5070  0.5536
    7MOL   C249 2181   7.895   7.704   3.875 -0.2635  0.2674  0.1940
    7MOL   C250 2182   7.733   7.454   4.033 -0.1471  0.1945  0.4527
    7MOL   H251 2183   7.741   7.671   4.058  0.8477  0.7202  2.2574
    7MOL   H252 2184   8.053   7.460   4.048 -0.0119 -0.2635 -0.6814
    7MOL   H253 2185   8.242   7.557   3.919  0.3938 -1.1930 -2.2882
    7MOL   H254 2186   7.965   7.818   3.715  2.0854 -0.7094 -1.6962
    7MOL   H255 2187   7.797   7.749   3.873 -1.2029 -1.7640 -0.6337
    7MOL   H256 2188   7.718   7.452   3.925  0.5464 -0.2203  0.3586
    7MOL   H257 2189   7.796   7.371   4.066 -0.6517  0.5347  2.3163
    7MOL   C258 2190   7.588   7.433   4.095 -0.0554 -0.0383  0.5411
    7MOL   C259 2191   7.478   7.449   3.991  0.5263 -0.0941  0.4905
    7MOL   C260 2192   7.402   7.336   3.947 -0.4781 -0.2302 -0.0131
    7MOL   C261 2193   7.309   7.351   3.838 -0.4498  0.0127 -0.4488
    7MOL   C262 2194   7.308   7.478   3.773 -0.0090  0.1634 -0.0536
    7MOL  Cl263 2195   7.217   7.500   3.629 -0.0033 -0.0702  0.1357
    7MOL   C264 2196   7.383   7.583   3.815 -0.0194  0.4230 -0.1902
    7MOL   C265 2197   7.468   7.569   3.921  0.1082 -0.4442  0.1254
    7MOL   C266 2198   7.577   7.300   4.180 -0.3267  0.0525  0.6621
    7MOL   H267 2199   7.581   7.522   4.157 -2.3163  0.8695 -0.9505
    7MOL   H268 2200   7.410   7.236   3.989 -1.9697 -1.0500 -1.5975
    7MOL   H269 2201   7.260   7.267   3.791 -1.9569 -0.4541  1.8502
    7MOL   H270 2202   7.383   7.672   3.755  0.4074  0.5693  0.0229
    7MOL   H271 2203   7.533   7.652   3.944 -0.5035 -0.1236  0.7177
    7MOL   H272 2204   7.477   7.270   4.213 -0.4837 -1.0722 -0.8024
    7MOL   H273 2205   7.590   7.223   4.104  0.4038 -0.2191  1.0593
    7MOL   C274 2206   7.670   7.293   4.304 -0.5537  0.3752  0.6436
    7MOL   C275 2207   7.624   7.368   4.424  0.1098  0.0716  0.1761
    7MOL   C276 2208   7.725   7.404   4.517 -0.2663  0.0510 -0.5970
    7MOL   C277 2209   7.698   7.490   4.630  0.3198  0.2520  0.2479
    7MOL   C278 2210   7.565   7.532   4.653  0.8312  0.3266 -0.4231
    7MOL  Cl279 2211   7.526   7.623   4.802  0.1265  0.1433 -0.2144
    7MOL   C280 2212   7.464   7.477   4.570 -0.3343 -0.0557 -0.0124
    7MOL   C281 2213   7.491   7.397   4.457  0.4733  0.0537 -0.3328
    7MOL   C282 2214   7.707   7.145   4.339 -0.5940 -0.0362  0.0044
    7MOL   H283 2215   7.771   7.330   4.288 -0.1960 -0.2764  1.3382
    7MOL   H284 2216   7.826   7.371   4.495 -0.7492 -0.6462 -1.7859
    7MOL   H285 2217   7.776   7.528   4.695  0.0206  1.3482 -0.0161
    7MOL   H286 2218   7.364   7.509   4.597 -0.1183 -0.5036  1.3375
    7MOL   H287 2219   7.419   7.353   4.390  0.3622 -0.3108  0.0233
    7MOL   H288 2220   7.732   7.146   4.445 -3.3308 -1.6001  0.7154
    7MOL   H289 2221   7.623   7.076   4.350  0.5954 -2.0091 -2.7888
    7MOL   C290 2222   7.831   7.088   4.261 -0.0086 -0.4593  0.5416
    7MOL   C291 2223   7.954   7.157   4.317  0.3368  0.1238 -0.3123
    7MOL   C292 2224   8.024   7.238   4.230  0.1339 -0.2105  0.4405
    7MOL   C293 2225   8.148   7.284   4.277 -0.2362 -0.0396 -0.0143
    7MOL   C294 2226   8.205   7.256   4.398  0.7907  0.3713 -0.7552
    7MOL  Cl295 2227   8.356   7.322   4.431 -0.1806  0.2763  0.0235
    7MOL   C296 2228   8.134   7.180   4.486  0.0919 -0.4916  0.2317
    7MOL   C297 2229   8.006   7.136   4.450  0.3372 -0.0495 -0.2325
    7MOL   C298 2230   7.838   6.928   4.280 -0.6822  0.4220  0.4690
    7MOL   H299 2231   7.814   7.106   4.155 -3.1666  0.0956  1.0927
    7MOL   H300 2232   7.970   7.254   4.137  1.7302 -0.4847 -0.5635
    7MOL   H301 2233   8.206   7.352   4.216  0.3891 -1.1211 -0.6508
    7MOL   H302 2234   8.186   7.160   4.579  0.0351 -1.4661  0.0521
    7MOL   H303 2235   7.948   7.074   4.516  1.2143  0.0878  0.6700
    7MOL   H304 2236   7.823   6.909   4.386 -0.6980 -2.6258 -0.0143
    7MOL   H305 2237   7.757   6.878   4.226 -0.0091 -0.0960 -0.0860
    7MOL   C306 2238   7.966   6.864   4.221  0.1606 -0.0659 -0.2486
    7MOL   C307 2239   7.954   6.709   4.242 -0.0253 -0.5643 -1.3211
    7MOL   C308 2240   7.995   6.657   4.365  0.2217  0.5457 -0.5556
    7MOL   C309 2241   7.988   6.517   4.385 -0.2151 -0.1047  0.6344
    7MOL   C310 2242   7.928   6.437   4.293 -0.5548  0.0724 -0.1725
    7MOL  Cl311 2243   7.928   6.265   4.314  0.1309  0.2602  0.4414
    7MOL   C312 2244   7.878   6.491   4.173 -0.2780 -0.2186  0.0803
    7MOL   C313 2245   7.895   6.627   4.147  0.4142 -0.6342 -0.0908
    7MOL   C314 2246   7.999   6.912   4.084  0.0286  0.4221 -0.2210
    7MOL   H315 2247   8.046   6.884   4.292 -1.3973 -0.0603  1.5806
    7MOL   H316 2248   8.031   6.719   4.445 -1.2132  1.8712 -0.9263
    7MOL   H317 2249   8.032   6.464   4.469 -1.2806 -1.6106  0.2595
    7MOL   H318 2250   7.815   6.432   4.108  1.6837  0.8878 -2.9342
    7MOL   H319 2251   7.862   6.664   4.051 -0.6928  1.6418  1.1222
    7MOL   H320 2252   8.089   6.861   4.049 -0.3663 -0.4841  0.0630
    7MOL   H321 2253   7.916   6.903   4.013 -0.8252  0.5419  0.7547
    7MOL   H322 2254   8.029   7.016   4.096 -3.0184  1.7667 -3.2786
    8MOL     C1 2255   6.825   2.034   2.877  0.2261  0.3770 -0.0711
    8MOL     C2 2256   6.812   2.010   2.724  0.6171  0.3626  0.8034
    8MOL     C3 2257   6.873   1.897   2.670 -0.3623  0.3181  0.2318
    8MOL     C4 2258   6.879   1.876   2.529 -0.4188 -0.0529  0.2082
    8MOL     C5 2259   6.807   1.959   2.441 -0.5470 -0.4521 -0.2649
    8MOL    Cl6 2260   6.798   1.929   2.269  0.2279 -0.0877 -0.1709
    8MOL     C7 2261   6.743   2.070   2.498  0.1556  0.1381  0.1272
    8MOL     C8 2262   6.748   2.096   2.634  0.2538 -0.1484 -0.2610
    8MOL     C9 2263   6.699   1.997   2.955  0.0219  0.0276  0.0604
    8MOL    H10 2264   6.848   2.141   2.886 -0.4564  0.5354 -0.1851
    8MOL    H11 2265   6.924   1.826   2.734  0.1482  0.3178 -0.1646
    8MOL    H12 2266   6.943   1.796   2.494  0.2962  0.9155 -0.7092
    8MOL    H13 2267   6.686   2.128   2.427  1.2477  2.4178  1.0468
    8MOL    H14 2268   6.694   2.175   2.685  0.4174 -0.9370  1.1404
    8MOL    H15 2269   6.694   2.046   3.053  0.4281 -1.4046  0.8060
    8MOL    H16 2270   6.616   2.041   2.900 -0.3202  0.7234  1.1110
    8MOL    H17 2271   6.915   1.982   2.909  0.0965 -0.8614 -1.6700
    8MOL    C18 2272   6.673   1.852   2.974  0.2186 -0.0354  0.1030
    8MOL    C19 2273   6.783   1.777   3.041  0.3161  0.6717  0.2352
    8MOL    C20 2274   6.818   1.807   3.176  0.3056  0.0346  0.1492
    8MOL    C21 2275   6.925   1.749   3.242  0.3215  0.8474 -0.4325
    8MOL    C22 2276   7.003   1.661   3.171  0.4831  1.0925  0.0266
    8MOL   Cl23 2277   7.131   1.591   3.255 -0.4585  0.0269  0.4532
    8MOL    C24 2278   6.980   1.625   3.037  0.0995  0.5038 -0.0080
    8MOL    C25 2279   6.865   1.684   2.972 -0.0680  0.2457  0.1228
    8MOL    C26 2280   6.534   1.822   3.040  0.4884  0.2591 -0.5044
    8MOL    H27 2281   6.665   1.810   2.873  0.0605 -0.7862  0.4242
    8MOL    H28 2282   6.756   1.881   3.224 -1.2283 -0.0525 -1.6374
    8MOL    H29 2283   6.959   1.778   3.340 -1.7228 -0.1213  0.5840
    8MOL    H30 2284   7.048   1.563   2.980 -0.9594 -1.0279  0.3519
    8MOL    H31 2285   6.852   1.661   2.867 -1.7803  1.5700  0.0152
    8MOL    H32 2286   6.548   1.833   3.148  2.4608  0.4082 -0.7472
    8MOL    H33 2287   6.471   1.904   3.005  1.5901  0.9164 -0.9936
    8MOL    C34 2288   6.450   1.696   2.996 -0.1302 -0.0247  0.4442
    8MOL    C35 2289   6.526   1.562   3.022  0.1843 -0.4611  0.3994
    8MOL    C36 2290   6.609   1.525   3.128  0.7662  0.4628  0.3589
    8MOL    C37 2291   6.667   1.391   3.126  0.0207 -0.0882  0.1491
    8MOL    C38 2292   6.639   1.298   3.030 -0.0831 -0.6198 -0.3782
    8MOL   Cl39 2293   6.699   1.143   3.044 -0.0552 -0.1098  0.1226
    8MOL    C40 2294   6.554   1.339   2.930 -0.2376  1.3234  1.0633
    8MOL    C41 2295   6.506   1.470   2.920  0.1679 -0.5796 -0.5212
    8MOL    C42 2296   6.313   1.686   3.062 -0.4689 -0.1733  0.6246
    8MOL    H43 2297   6.445   1.695   2.887  0.0272 -0.4863  0.4380
    8MOL    H44 2298   6.637   1.595   3.206  1.6637 -1.3064  1.6749
    8MOL    H45 2299   6.731   1.359   3.206 -0.4780  0.0478  0.6131
    8MOL    H46 2300   6.535   1.261   2.858  1.7998 -0.4838  2.4071
    8MOL    H47 2301   6.436   1.492   2.841 -1.5114  0.6694  1.2467
    8MOL    H48 2302   6.288   1.580   3.054 -0.3368 -0.0460 -1.8228
    8MOL    H49 2303   6.327   1.711   3.167 -1.5721 -2.2278  1.2979
    8MOL    C50 2304   6.205   1.780   3.009  0.1882 -0.4486  0.2059
    8MOL    C51 2305   6.135   1.720   2.882  0.6460  0.1239  0.0907
    8MOL    C52 2306   6.076   1.593   2.894 -0.2418 -0.2175 -0.2885
    8MOL    C53 2307   6.038   1.521   2.779  0.5754 -0.0855  0.5340
    8MOL    C54 2308   6.040   1.582   2.650 -0.2159  0.3962  0.4107
    8MOL   Cl55 2309   5.962   1.503   2.508 -0.0382  0.4715 -0.0841
    8MOL    C56 2310   6.080   1.717   2.646  0.4330 -0.4615 -0.3362
    8MOL    C57 2311   6.127   1.784   2.758 -0.6360 -0.2137 -0.0485
    8MOL    C58 2312   6.106   1.828   3.117  0.2521  0.8454  0.0782
    8MOL    H59 2313   6.256   1.871   2.981 -0.1769 -0.7897 -1.6329
    8MOL    H60 2314   6.075   1.538   2.987  0.3782 -0.5558 -0.4804
    8MOL    H61 2315   6.004   1.418   2.779  1.2771 -0.3241 -0.9073
    8MOL    H62 2316   6.082   1.771   2.552 -2.7213  1.3255  0.5191
    8MOL    H63 2317   6.162   1.886   2.749 -1.5324  0.0720 -0.2979
    8MOL    H64 2318   6.010   1.858   3.075 -0.4774  2.8345  3.0721
    8MOL    H65 2319   6.068   1.749   3.182 -1.5167 -0.6435 -2.6207
    8MOL    C66 2320   6.153   1.953   3.199 -0.6201  0.1363  0.3570
    8MOL    C67 2321   6.155   2.082   3.112 -1.2173 -0.7527 -0.1745
    8MOL    C68 2322   6.227   2.193   3.164  0.4199  0.2186 -0.3135
    8MOL    C69 2323   6.232   2.315   3.099  1.1254  0.4326 -0.1188
    8MOL    C70 2324   6.181   2.332   2.969 -0.8566  0.2393 -0.2113
    8MOL   Cl71 2325   6.194   2.485   2.882  0.1086 -0.2003 -0.1483
    8MOL    C72 2326   6.131   2.215   2.908  0.9677 -0.1779 -0.2227
    8MOL    C73 2327   6.114   2.098   2.980  0.4942 -0.1582 -0.6014
    8MOL    C74 2328   6.078   1.966   3.336 -0.3989  0.0995  0.4656
    8MOL    H75 2329   6.256   1.945   3.233 -0.6794 -0.4738  0.3964
    8MOL    H76 2330   6.273   2.185   3.261 -1.0800 -0.6680  0.3497
    8MOL    H77 2331   6.276   2.401   3.148  0.2782  1.0833 -0.4740
    8MOL    H78 2332   6.092   2.218   2.808  2.8402  0.7713 -0.9429
    8MOL    H79 2333   6.068   2.014   2.929 -1.0568 -0.0093  0.5123
    8MOL    H80 2334   6.088   2.064   3.384  1.3278 -1.0939  2.6504
    8MOL    H81 2335   5.975   1.944   3.307 -0.5899 -2.4881  2.9325
    8MOL    C82 2336   6.135   1.861   3.440 -0.5550 -0.5744 -0.1845
    8MOL    C83 2337   6.278   1.881   3.468 -0.2737  0.4137 -0.1797
    8MOL    C84 2338   6.330   2.000   3.524 -0.4162  0.5086  0.2469
    8MOL    C85 2339   6.471   2.007   3.557 -0.7624  0.4521  0.2803
    8MOL    C86 2340   6.554   1.900   3.523 -0.1011 -0.2415 -0.0853
    8MOL   Cl87 2341   6.722   1.917   3.524  0.0329  0.0057 -0.1565
    8MOL    C88 2342   6.501   1.782   3.469  0.0992  0.7605  0.0324
    8MOL    C89 2343   6.358   1.771   3.447  0.1360  0.0637 -0.7465
    8MOL    C90 2344   6.042   1.861   3.568  0.0927  0.6541  0.5338
    8MOL    H91 2345   6.108   1.762   3.403 -0.4131 -0.1742 -1.3702
    8MOL    H92 2346   6.266   2.083   3.552 -1.1366  0.5334 -1.3942
    8MOL    H93 2347   6.521   2.098   3.588  0.9385 -1.6099  3.9594
    8MOL    H94 2348   6.564   1.698   3.445 -0.4607  1.0240 -2.4324
    8MOL    H95 2349   6.305   1.679   3.428  0.1381 -0.3445  1.1319
    8MOL    H96 2350   6.098   1.820   3.652 -0.2997  3.3069  2.1670
    8MOL    H97 2351   6.015   1.965   3.587  1.0213  1.2487 -1.2832
    8MOL    C98 2352   5.912   1.768   3.549 -0.3196 -0.4149 -0.9740
    8MOL    C99 2353   5.939   1.618   3.536  0.6254  0.0705 -0.2178
    8MOL   C100 2354   6.007   1.546   3.636  0.7335 -0.1825 -0.6238
    8MOL   C101 2355   6.035   1.404   3.620  0.0636 -0.3684 -0.0977
    8MOL   C102 2356   5.993   1.339   3.502 -0.4601  0.3789  0.3071
    8MOL  Cl103 2357   6.015   1.172   3.465  0.1789  0.0356 -0.2287
    8MOL   C104 2358   5.932   1.414   3.403  0.8071  0.9513 -0.7164
    8MOL   C105 2359   5.898   1.551   3.420 -0.1054 -0.5171 -0.0709
    8MOL   C106 2360   5.802   1.783   3.659  0.1575  0.4788  0.2390
    8MOL   H107 2361   5.873   1.815   3.459 -2.0653  0.5982  0.2793
    8MOL   H108 2362   6.037   1.588   3.730  0.7532  1.8628 -1.5189
    8MOL   H109 2363   6.096   1.358   3.695  0.7560 -0.4181 -0.6926
    8MOL   H110 2364   5.902   1.376   3.306  0.3518 -0.5649  0.0051
    8MOL   H111 2365   5.855   1.607   3.338  0.6384  0.4650  0.2163
    8MOL   H112 2366   5.724   1.707   3.648  0.6579  0.1685 -1.3839
    8MOL   H113 2367   5.856   1.759   3.751  4.0132  0.0145 -2.0038
    8MOL   C114 2368   5.742   1.928   3.688  0.3965  0.3257 -0.0441
    8MOL   C115 2369   5.667   1.980   3.567  0.8584  0.1037  0.1656
    8MOL   C116 2370   5.708   2.089   3.490 -0.0463 -1.1381 -0.2639
    8MOL   C117 2371   5.621   2.138   3.391  0.7219  0.4765  0.8695
    8MOL   C118 2372   5.498   2.074   3.363 -0.9106  0.1688  0.4188
    8MOL  Cl119 2373   5.387   2.150   3.253  0.1316 -0.4781  0.1095
    8MOL   C120 2374   5.472   1.951   3.419  0.6816  0.3165 -0.3116
    8MOL   C121 2375   5.560   1.900   3.522 -0.3732 -0.6840 -0.2725
    8MOL   C122 2376   5.655   1.937   3.807  0.0621 -0.7008  0.2251
    8MOL   H123 2377   5.827   1.994   3.702 -1.1495  2.4342 -0.2977
    8MOL   H124 2378   5.800   2.142   3.507 -0.7265 -0.2307  0.6245
    8MOL   H125 2379   5.653   2.225   3.335 -1.0574 -0.3556 -1.5039
    8MOL   H126 2380   5.388   1.888   3.392  1.6622 -0.9105 -0.5254
    8MOL   H127 2381   5.530   1.815   3.583  0.4512 -0.1871  0.8337
    8MOL   H128 2382   5.616   2.037   3.819 -0.7921 -1.2128  1.9122
    8MOL   H129 2383   5.572   1.869   3.791 -2.1441  2.2932 -1.4476
    8MOL   C130 2384   5.735   1.917   3.938  0.7711  0.1290  0.1880
    8MOL   C131 2385   5.876   1.984   3.940 -0.1417  0.4140  0.2142
    8MOL   C132 2386   5.987   1.899   3.938  0.0003  0.0145  0.1058
    8MOL   C133 2387   6.115   1.953   3.909 -0.6030 -0.8490 -0.7842
    8MOL   C134 2388   6.126   2.090   3.878  0.0048  0.5659  0.0592
    8MOL  Cl135 2389   6.278   2.151   3.827 -0.1387 -0.0275  0.2631
    8MOL   C136 2390   6.017   2.178   3.894 -0.0762  0.5811  1.7488
    8MOL   C137 2391   5.896   2.124   3.930 -0.7493 -0.7455 -0.8025
    8MOL   C138 2392   5.648   1.978   4.056  0.0028  0.0978  0.0817
    8MOL   H139 2393   5.740   1.811   3.960  1.4536  0.0393 -0.4020
    8MOL   H140 2394   5.968   1.793   3.954 -0.8839  0.2159  0.4165
    8MOL   H141 2395   6.199   1.887   3.900  1.6049  1.7313  0.1499
    8MOL   H142 2396   6.024   2.280   3.857  0.6830 -0.7265 -1.9364
    8MOL   H143 2397   5.808   2.186   3.941 -1.5483 -1.8199 -1.0190
    8MOL   H144 2398   5.720   1.987   4.137  0.3969  0.3935 -0.3027
    8MOL   H145 2399   5.624   2.084   4.042 -0.6414 -0.0651 -0.0755
    8MOL   C146 2400   5.517   1.901   4.104 -0.4455  0.1456  0.4935
    8MOL   C147 2401   5.533   1.815   4.222  0.0707  0.6435 -0.2848
    8MOL   C148 2402   5.520   1.673   4.208  0.1652  0.3920  0.5424
    8MOL   C149 2403   5.527   1.592   4.325  0.3405  0.2666 -0.3854
    8MOL   C150 2404   5.552   1.648   4.449  1.2235  0.0907 -0.3297
    8MOL  Cl151 2405   5.565   1.554   4.594 -0.1230  0.4608 -0.3420
    8MOL   C152 2406   5.572   1.784   4.465  0.5405  0.7062 -0.7161
    8MOL   C153 2407   5.553   1.869   4.352  0.2437  0.4067 -0.1144
    8MOL   C154 2408   5.393   1.998   4.116  0.1572  0.5872  0.0223
    8MOL   H155 2409   5.487   1.837   4.021  0.8431 -0.4047  0.4407
    8MOL   H156 2410   5.509   1.625   4.111  1.6415  0.6508  0.2323
    8MOL   H157 2411   5.525   1.484   4.326 -2.2999  0.2860  0.8352
    8MOL   H158 2412   5.577   1.825   4.565 -1.1146  2.1394 -1.1897
    8MOL   H159 2413   5.547   1.977   4.357 -0.0038  0.6591 -3.9962
    8MOL   H160 2414   5.329   1.947   4.188  2.2030 -1.6714  0.2823
    8MOL   H161 2415   5.423   2.093   4.161 -0.5650  1.2029 -0.7660
    8MOL   C162 2416   5.322   2.037   3.986  0.4209  0.3492  0.6037
    8MOL   C163 2417   5.245   1.922   3.921  0.2375 -0.0706 -0.5504
    8MOL   C164 2418   5.134   1.872   3.995  0.0513 -0.1931 -0.3191
    8MOL   C165 2419   5.048   1.777   3.941  0.2144 -0.1841 -0.3091
    8MOL   C166 2420   5.063   1.743   3.806  0.1394 -0.8262 -0.2368
    8MOL  Cl167 2421   4.952   1.627   3.741  0.1526  0.0193  0.1094
    8MOL   C168 2422   5.175   1.791   3.729 -0.0655 -0.6653 -0.0557
    8MOL   C169 2423   5.262   1.879   3.789 -0.4081 -0.0860  0.8148
    8MOL   C170 2424   5.218   2.156   4.003  0.1650 -0.0488  0.0355
    8MOL   H171 2425   5.396   2.064   3.911 -1.8506 -0.4604 -2.0031
    8MOL   H172 2426   5.115   1.912   4.094  2.4464 -1.9694  0.9028
    8MOL   H173 2427   4.971   1.747   4.010  0.3611  1.9895  0.8415
    8MOL   H174 2428   5.184   1.770   3.623  0.9353  1.3979 -0.3966
    8MOL   H175 2429   5.347   1.923   3.738 -1.3973 -0.5870 -1.3389
    8MOL   H176 2430   5.164   2.165   3.908  0.8993 -0.0132 -0.3850
    8MOL   H177 2431   5.139   2.141   4.077  0.6278  0.0740  0.5531
    8MOL   C178 2432   5.284   2.291   4.032  0.0458 -0.1860  0.0375
    8MOL   C179 2433   5.398   2.322   3.931 -0.0602 -0.3105  0.3020
    8MOL   C180 2434   5.521   2.357   3.986  0.2800 -0.6290  0.0761
    8MOL   C181 2435   5.632   2.375   3.899  0.1824  0.2396 -0.0397
    8MOL   C182 2436   5.624   2.356   3.758  0.1190 -0.2645 -0.1141
    8MOL  Cl183 2437   5.766   2.395   3.664 -0.3590  0.5930  0.0069
    8MOL   C184 2438   5.498   2.322   3.705  0.1416 -0.4694  0.5489
    8MOL   C185 2439   5.391   2.311   3.789 -0.3772  0.4017 -0.0788
    8MOL   C186 2440   5.182   2.416   4.050 -0.1050 -0.5205 -0.1674
    8MOL   H187 2441   5.322   2.272   4.132 -1.6284  1.7161  1.0683
    8MOL   H188 2442   5.542   2.359   4.092  1.2799  1.9672 -0.1368
    8MOL   H189 2443   5.728   2.404   3.940  0.9064 -1.7759 -0.2359
    8MOL   H190 2444   5.495   2.313   3.598  0.2275  1.1435  0.3955
    8MOL   H191 2445   5.291   2.291   3.753 -1.4338 -0.5660  3.2217
    8MOL   H192 2446   5.237   2.509   4.061  0.0677 -0.7637  1.0349
    8MOL   H193 2447   5.130   2.433   3.956 -0.0620  1.0858  0.0852
    8MOL   C194 2448   5.072   2.402   4.163  0.8909 -0.3427 -0.0057
    8MOL   C195 2449   5.128   2.390   4.308  0.6235  0.1145  0.2100
    8MOL   C196 2450   5.103   2.275   4.383  0.2051  0.5864 -0.1182
    8MOL   C197 2451   5.155   2.274   4.514 -0.0890 -0.1336  0.6680
    8MOL   C198 2452   5.228   2.375   4.568 -0.5246 -0.4299 -0.1993
    8MOL  Cl199 2453   5.301   2.348   4.722 -0.0515  0.2865 -0.4617
    8MOL   C200 2454   5.265   2.485   4.487  0.3728 -0.1898  0.0459
    8MOL   C201 2455   5.213   2.492   4.358 -0.0365 -0.0106 -0.0568
    8MOL   C202 2456   4.965   2.510   4.142  0.3394  0.0907  0.0369
    8MOL   H203 2457   5.022   2.308   4.139  0.0775  0.7737 -2.8227
    8MOL   H204 2458   5.043   2.196   4.340 -0.3209  1.7945 -1.6774
    8MOL   H205 2459   5.133   2.191   4.579 -1.7297 -0.0420  0.2614
    8MOL   H206 2460   5.341   2.556   4.516 -0.4043 -0.7546  3.6638
    8MOL   H207 2461   5.249   2.577   4.303  2.4504 -0.9895  0.0218
    8MOL   H208 2462   4.992   2.600   4.198 -0.9995 -0.2035  1.1803
    8MOL   H209 2463   4.969   2.546   4.039 -1.3833 -1.2021 -0.5055
    8MOL   C210 2464   4.813   2.466   4.151  0.2739 -0.4967 -0.2358
    8MOL   C211 2465   4.767   2.384   4.036  0.8238  0.2903 -0.0701
    8MOL   C212 2466   4.730   2.439   3.906 -0.1649  0.1637  0.0116
    8MOL   C213 2467   4.702   2.357   3.796 -0.2985  0.1879  0.9079
    8MOL   C214 2468   4.730   2.216   3.804 -0.2818  0.0495  0.4526
    8MOL  Cl215 2469   4.724   2.127   3.658  0.0850  0.4120 -0.3825
    8MOL   C216 2470   4.758   2.155   3.927 -0.0195  0.5508  0.6342
    8MOL   C217 2471   4.775   2.243   4.039  0.4671  0.1081 -0.3008
    8MOL   C218 2472   4.764   2.423   4.291 -0.8223 -0.4040  0.5372
    8MOL   H219 2473   4.763   2.562   4.138  0.8425 -0.2332 -0.4434
    8MOL   H220 2474   4.715   2.543   3.878  1.6756  0.9288  1.7572
    8MOL   H221 2475   4.688   2.395   3.696  1.8057  0.0374  0.5459
    8MOL   H222 2476   4.781   2.050   3.926  1.0648  0.7830  0.2733
    8MOL   H223 2477   4.810   2.199   4.131 -0.0982  0.5289  0.1227
    8MOL   H224 2478   4.819   2.333   4.321 -0.9708 -0.9895 -0.9189
    8MOL   H225 2479   4.806   2.497   4.359  2.1060 -0.4333 -1.1625
    8MOL   C226 2480   4.616   2.391   4.308  0.1941  0.2411  0.5220
    8MOL   C227 2481   4.593   2.322   4.445  0.4968  0.0199  0.9017
    8MOL   C228 2482   4.590   2.393   4.563  0.6327  0.0617  0.5056
    8MOL   C229 2483   4.544   2.327   4.680 -0.0715 -0.2796 -0.3576
    8MOL   C230 2484   4.524   2.190   4.681  0.5563 -0.4935  0.1562
    8MOL  Cl231 2485   4.459   2.120   4.829 -0.0730 -0.1586  0.1028
    8MOL   C232 2486   4.538   2.119   4.565  0.6055  0.8716 -0.3034
    8MOL   C233 2487   4.577   2.184   4.448 -0.1174  0.1850  0.5154
    8MOL   C234 2488   4.528   2.515   4.292 -1.3592  0.5504  0.0015
    8MOL   H235 2489   4.594   2.317   4.232  0.4383 -0.4570  1.1204
    8MOL   H236 2490   4.613   2.499   4.565 -4.0886  1.2483 -0.7378
    8MOL   H237 2491   4.537   2.377   4.776 -1.6290  0.7970 -1.0134
    8MOL   H238 2492   4.514   2.014   4.572  3.4848  0.1902  0.1446
    8MOL   H239 2493   4.576   2.122   4.360 -0.7926 -0.0578  0.6890
    8MOL   H240 2494   4.564   2.588   4.364 -1.3891  1.5050 -0.9491
    8MOL   H241 2495   4.551   2.561   4.196 -0.7209  0.4861  0.1208
    8MOL   C242 2496   4.373   2.490   4.315  0.5672 -0.0928  0.2092
    8MOL   C243 2497   4.297   2.624   4.340 -0.0272  0.0909 -0.5223
    8MOL   C244 2498   4.257   2.653   4.473 -0.1319  0.0625  0.9331
    8MOL   C245 2499   4.201   2.777   4.498 -0.2711 -0.7027 -0.4256
    8MOL   C246 2500   4.167   2.868   4.398 -0.3301  0.0163 -0.0386
    8MOL  Cl247 2501   4.064   3.006   4.433 -0.4935  0.2803 -0.0869
    8MOL   C248 2502   4.198   2.837   4.260 -0.5410  0.3151  0.6698
    8MOL   C249 2503   4.266   2.718   4.235  0.2711 -0.8171 -0.0582
    8MOL   C250 2504   4.315   2.404   4.202 -0.8121  0.2860  0.4988
    8MOL   H251 2505   4.356   2.433   4.406  0.7438  0.4546  0.5927
    8MOL   H252 2506   4.292   2.598   4.559 -0.2688 -3.2575 -1.0180
    8MOL   H253 2507   4.179   2.802   4.601 -0.0396 -0.8890 -0.3309
    8MOL   H254 2508   4.162   2.896   4.177 -2.1071 -3.3472 -1.3483
    8MOL   H255 2509   4.303   2.698   4.136  1.5892  1.0909  0.0049
    8MOL   H256 2510   4.277   2.465   4.120 -4.1051 -0.2272  1.5613
    8MOL   H257 2511   4.396   2.342   4.165  2.6735  2.3295  4.2543
    8MOL   C258 2512   4.209   2.293   4.252 -0.4370  0.1816  0.2923
    8MOL   C259 2513   4.066   2.325   4.206  0.1579 -0.8522 -0.2211
    8MOL   C260 2514   3.977   2.384   4.297  0.3458  0.3013 -0.2569
    8MOL   C261 2515   3.849   2.431   4.255  0.2714 -0.0387  0.5720
    8MOL   C262 2516   3.811   2.419   4.117  0.2405 -0.3297  0.2017
    8MOL  Cl263 2517   3.666   2.490   4.055 -0.3200 -0.0716 -0.1055
    8MOL   C264 2518   3.903   2.357   4.028  0.6295 -0.1918 -0.4780
    8MOL   C265 2519   4.028   2.311   4.069 -0.1840  0.2951  0.0067
    8MOL   C266 2520   4.249   2.151   4.214 -0.4758  0.4208 -0.1109
    8MOL   H267 2521   4.210   2.307   4.360 -1.0014 -0.3731  0.3758
    8MOL   H268 2522   4.011   2.399   4.398  0.7746  0.9633 -0.4981
    8MOL   H269 2523   3.797   2.502   4.318 -0.6035 -0.1189 -0.0586
    8MOL   H270 2524   3.882   2.357   3.922  0.0495  0.8082 -0.3738
    8MOL   H271 2525   4.095   2.270   3.995  0.5262  0.6622  0.4426
    8MOL   H272 2526   4.247   2.138   4.106 -1.2260  0.0817 -0.0591
    8MOL   H273 2527   4.351   2.132   4.247 -0.7939 -0.6787  0.2425
    8MOL   C274 2528   4.148   2.040   4.253 -0.2819  0.7119  0.1685
    8MOL   C275 2529   4.202   1.904   4.214 -0.3569  0.5514 -0.9911
    8MOL   C276 2530   4.141   1.828   4.112  0.2846  0.2760 -0.1363
    8MOL   C277 2531   4.199   1.705   4.076 -0.9469 -0.3392 -0.0373
    8MOL   C278 2532   4.317   1.650   4.132  0.3006  0.1431 -0.4730
    8MOL  Cl279 2533   4.399   1.511   4.059  0.0074 -0.3215  0.0577
    8MOL   C280 2534   4.374   1.727   4.240 -0.7551 -0.6750  0.2885
    8MOL   C281 2535   4.319   1.850   4.276  0.2160  0.1718 -0.8887
    8MOL   C282 2536   4.101   2.041   4.401  0.6007 -0.6101 -0.4240
    8MOL   H283 2537   4.061   2.045   4.188 -1.0661 -2.2947  0.9100
    8MOL   H284 2538   4.053   1.863   4.062  0.8455  0.4865 -0.9722
    8MOL   H285 2539   4.165   1.647   3.991 -0.0403  0.4619 -0.9769
    8MOL   H286 2540   4.465   1.691   4.287 -0.4817 -2.4525 -1.5004
    8MOL   H287 2541   4.368   1.909   4.352  0.7511  1.6927 -2.3750
    8MOL   H288 2542   4.184   1.998   4.458  2.1176  0.2613 -1.9466
    8MOL   H289 2543   4.101   2.135   4.457  1.8153 -1.4200  1.0021
    8MOL   C290 2544   3.969   1.952   4.427  0.5162 -1.1265  0.3767
    8MOL   C291 2545   3.962   1.876   4.558 -0.0332  0.0088 -0.6175
    8MOL   C292 2546   3.909   1.746   4.563  0.4827 -0.6159 -0.5548
    8MOL   C293 2547   3.916   1.665   4.678  0.0262 -0.4237  0.8915
    8MOL   C294 2548   3.957   1.727   4.797 -0.0991 -0.3684  0.3462
    8MOL  Cl295 2549   3.949   1.642   4.943  0.2663 -0.1573 -0.4273
    8MOL   C296 2550   4.009   1.856   4.795  0.1564 -0.3438  0.1025
    8MOL   C297 2551   4.013   1.929   4.677  0.7078  0.3366  0.3183
    8MOL   C298 2552   3.842   2.030   4.410 -0.5327 -0.6410 -0.4984
    8MOL   H299 2553   3.970   1.874   4.350  1.1603 -1.2755  0.5260
    8MOL   H300 2554   3.870   1.699   4.473  0.5566  0.0365 -0.9310
    8MOL   H301 2555   3.892   1.561   4.690  0.5713 -0.7661 -0.8745
    8MOL   H302 2556   4.037   1.900   4.890  0.0709 -0.7980  0.3411
    8MOL   H303 2557   4.050   2.030   4.670  1.0328  0.1576 -0.5545
    8MOL   H304 2558   3.843   2.104   4.490  2.2326 -1.4304  0.2614
    8MOL   H305 2559   3.847   2.083   4.316  0.9897 -1.0324 -0.6645
    8MOL   C306 2560   3.718   1.941   4.404  0.1004  0.7385 -0.4369
    8MOL   C307 2561   3.589   2.017   4.415 -0.1163 -0.1257 -0.2829
    8MOL   C308 2562   3.565   2.134   4.351 -0.2959 -0.5110  0.7773
    8MOL   C309 2563   3.449   2.213   4.369 -0.3587 -0.2152 -0.6656
    8MOL   C310 2564   3.353   2.163   4.459 -0.4935 -0.1340 -0.1693
    8MOL  Cl311 2565   3.226   2.262   4.525 -0.3490  0.0495 -0.0195
    8MOL   C312 2566   3.370   2.038   4.519  0.1576  0.5275 -0.1644
    8MOL   C313 2567   3.484   1.963   4.494 -0.0830 -0.0719  0.4022
    8MOL   C314 2568   3.707   1.863   4.277  0.5181 -0.7339 -0.4246
    8MOL   H315 2569   3.700   1.869   4.484 -3.3313 -0.0066 -1.7534
    8MOL   H316 2570   3.641   2.172   4.285 -0.7300 -2.8585 -1.1465
    8MOL   H317 2571   3.437   2.311   4.326 -2.5003 -0.3480 -0.3922
    8MOL   H318 2572   3.297   2.017   4.596  0.5428 -0.2154  0.0043
    8MOL   H319 2573   3.488   1.869   4.548  1.3876 -0.5395 -0.4968
    8MOL   H320 2574   3.605   1.823   4.271  0.1004  0.2356  0.0500
    8MOL   H321 2575   3.723   1.929   4.192 -0.1533  0.7213  0.5633
    8MOL   H322 2576   3.774   1.778   4.284  1.9884  0.4064 -0.4928
    9MOL     C1 2577   7.666   1.410   1.625 -0.5667 -0.2649 -0.2790
    9MOL     C2 2578   7.789   1.400   1.532 -0.1714 -0.3498 -0.3584
    9MOL     C3 2579   7.785   1.464   1.405  0.5194  0.0937 -0.9637
    9MOL     C4 2580   7.889   1.446   1.320 -0.4403  0.1921 -0.4769
    9MOL     C5 2581   7.992   1.357   1.349  0.0184  1.0802  0.5616
    9MOL    Cl6 2582   8.097   1.309   1.227  0.0665  0.2850 -0.0998
    9MOL     C7 2583   7.994   1.294   1.479  0.7543  0.5080 -0.1425
    9MOL     C8 2584   7.893   1.314   1.574 -0.6872 -0.2423 -0.0879
    9MOL     C9 2585   7.619   1.553   1.639  0.6662  1.0078  0.2146
    9MOL    H10 2586   7.705   1.367   1.717 -0.0675  0.6986 -0.0269
    9MOL    H11 2587   7.695   1.519   1.382  0.7941  1.5704  1.3296
    9MOL    H12 2588   7.879   1.481   1.218 -1.8639 -2.1875 -1.2015
    9MOL    H13 2589   8.067   1.218   1.499  1.0347  0.8475  0.1265
    9MOL    H14 2590   7.903   1.258   1.666 -0.2286 -1.1968 -0.7089
    9MOL    H15 2591   7.701   1.614   1.679  0.7558  2.5920 -2.2817
    9MOL    H16 2592   7.583   1.590   1.543 -3.0553 -0.2443  1.0595
    9MOL    H17 2593   7.594   1.337   1.589 -0.1502 -0.5998 -0.4226
    9MOL    C18 2594   7.505   1.569   1.744  0.4766 -0.2117  0.3471
    9MOL    C19 2595   7.561   1.602   1.883 -0.1783 -0.4584  0.0895
    9MOL    C20 2596   7.568   1.501   1.979  0.7930 -0.0554 -0.5018
    9MOL    C21 2597   7.605   1.536   2.112  0.0995 -0.0366  0.2388
    9MOL    C22 2598   7.657   1.667   2.138 -0.4628 -0.3072  0.3656
    9MOL   Cl23 2599   7.704   1.710   2.295  0.1708  0.0951  0.2549
    9MOL    C24 2600   7.662   1.768   2.034  1.0437  0.1726 -0.1439
    9MOL    C25 2601   7.612   1.735   1.913  0.4685 -0.1513 -0.7574
    9MOL    C26 2602   7.386   1.673   1.701 -0.1155 -0.1312 -0.2211
    9MOL    H27 2603   7.467   1.466   1.742  0.5247 -0.2342  0.6556
    9MOL    H28 2604   7.543   1.400   1.951 -1.5617  0.4660 -0.3683
    9MOL    H29 2605   7.612   1.474   2.200  0.3791  0.1029  0.3171
    9MOL    H30 2606   7.718   1.860   2.043  0.4605  0.6967 -1.7340
    9MOL    H31 2607   7.617   1.810   1.834 -0.5083 -0.1750 -0.8458
    9MOL    H32 2608   7.425   1.773   1.720  1.0080 -0.6017 -0.0391
    9MOL    H33 2609   7.362   1.674   1.595  0.9472  0.5984 -0.4622
    9MOL    C34 2610   7.251   1.652   1.766 -0.2513  0.1025 -0.4007
    9MOL    C35 2611   7.147   1.762   1.727  0.4037  0.6293  0.0288
    9MOL    C36 2612   7.071   1.821   1.828 -0.1848 -0.2362 -0.0444
    9MOL    C37 2613   6.989   1.934   1.810 -0.4471  0.1045 -0.0061
    9MOL    C38 2614   6.964   1.975   1.682 -0.0469 -0.0510  0.6579
    9MOL   Cl39 2615   6.841   2.088   1.668  0.3210  0.0519 -0.1712
    9MOL    C40 2616   7.031   1.916   1.574 -0.3039  0.2877 -0.3661
    9MOL    C41 2617   7.123   1.812   1.597  0.8926  0.2259 -0.1462
    9MOL    C42 2618   7.192   1.506   1.735 -0.0448 -0.2697  0.3493
    9MOL    H43 2619   7.277   1.659   1.872  0.2541 -0.5181 -0.4832
    9MOL    H44 2620   7.079   1.779   1.927  1.4409 -0.6051 -0.3321
    9MOL    H45 2621   6.936   1.974   1.896  1.5192  2.6544  0.0621
    9MOL    H46 2622   7.010   1.951   1.474  0.2577 -2.2057 -1.4037
    9MOL    H47 2623   7.174   1.768   1.512  1.5265  0.5106  0.0797
    9MOL    H48 2624   7.092   1.511   1.691  0.2611 -1.9022 -0.5747
    9MOL    H49 2625   7.245   1.462   1.650  1.5987  2.2351  0.0194
    9MOL    C50 2626   7.201   1.406   1.850  0.2311  0.7515 -0.7984
    9MOL    C51 2627   7.112   1.442   1.973 -0.7198  0.9259 -0.3943
    9MOL    C52 2628   7.170   1.413   2.104  0.1790  0.3131  0.2895
    9MOL    C53 2629   7.104   1.449   2.224 -0.2189 -0.0311  0.4508
    9MOL    C54 2630   6.979   1.510   2.211  0.7090 -0.5599  0.6200
    9MOL   Cl55 2631   6.886   1.536   2.349 -0.3463  0.3799 -0.1721
    9MOL    C56 2632   6.925   1.541   2.086  0.2860 -0.1410  0.1609
    9MOL    C57 2633   6.990   1.512   1.971  0.3487  0.0567 -0.1545
    9MOL    C58 2634   7.199   1.252   1.806 -0.2169  0.2189  0.4409
    9MOL    H59 2635   7.301   1.414   1.891 -0.0635  0.4587 -0.0051
    9MOL    H60 2636   7.269   1.371   2.117  1.1294  2.6056  0.6370
    9MOL    H61 2637   7.141   1.419   2.321 -0.2776  0.1063  0.5156
    9MOL    H62 2638   6.842   1.610   2.080 -0.3648 -0.8293  1.1542
    9MOL    H63 2639   6.956   1.549   1.875  0.3070  0.1811 -0.0915
    9MOL    H64 2640   7.265   1.242   1.719 -2.9295  0.4726 -1.7404
    9MOL    H65 2641   7.240   1.193   1.888 -4.1395 -0.3251  2.1386
    9MOL    C66 2642   7.058   1.196   1.771  0.0440  0.1664 -0.1475
    9MOL    C67 2643   7.027   1.215   1.624 -0.8580 -0.4011 -0.2687
    9MOL    C68 2644   7.095   1.138   1.529  0.2223 -0.3777 -0.6778
    9MOL    C69 2645   7.081   1.167   1.392  0.1465  0.1591  0.4798
    9MOL    C70 2646   6.985   1.266   1.352  0.9181  0.7044  0.4033
    9MOL   Cl71 2647   6.966   1.303   1.186 -0.2929 -0.0076 -0.1614
    9MOL    C72 2648   6.913   1.344   1.447  0.1872  0.1499 -0.4262
    9MOL    C73 2649   6.943   1.320   1.582  0.3902 -0.0101  0.6231
    9MOL    C74 2650   7.037   1.045   1.803 -0.1480  0.3373 -0.2687
    9MOL    H75 2651   6.972   1.237   1.824  0.2182 -0.5127  0.6665
    9MOL    H76 2652   7.158   1.056   1.559 -2.1661 -1.9460  0.2233
    9MOL    H77 2653   7.132   1.112   1.314 -1.6232  0.4790 -0.9495
    9MOL    H78 2654   6.835   1.415   1.424  0.8214  1.4652  1.3886
    9MOL    H79 2655   6.899   1.379   1.662  0.0340 -1.2721  1.3680
    9MOL    H80 2656   6.949   1.007   1.752  0.4741 -1.0880 -0.3112
    9MOL    H81 2657   7.127   1.000   1.761 -0.0500  0.3921 -0.1178
    9MOL    C82 2658   7.023   1.000   1.953 -0.5590  0.1646 -0.2562
    9MOL    C83 2659   6.880   1.011   1.992 -0.2155  0.5540 -0.0664
    9MOL    C84 2660   6.783   0.906   1.982  0.3885 -0.2476 -0.1188
    9MOL    C85 2661   6.657   0.912   2.042 -0.1701  0.4136 -0.4672
    9MOL    C86 2662   6.633   1.033   2.107  0.2895 -0.2062  0.0010
    9MOL   Cl87 2663   6.477   1.064   2.176  0.0698 -0.3545 -0.1914
    9MOL    C88 2664   6.721   1.142   2.118 -0.6838  0.1691 -0.2607
    9MOL    C89 2665   6.852   1.135   2.061  0.9111 -0.0618 -0.0760
    9MOL    C90 2666   7.073   0.853   1.968 -0.1578  0.2306  0.0522
    9MOL    H91 2667   7.085   1.056   2.022 -1.0098 -0.5259  0.7218
    9MOL    H92 2668   6.813   0.816   1.929 -1.6543 -0.9701 -0.0706
    9MOL    H93 2669   6.585   0.831   2.047 -1.0734  1.2272 -0.0051
    9MOL    H94 2670   6.692   1.232   2.172  2.3744  1.3995 -0.5756
    9MOL    H95 2671   6.922   1.216   2.071  1.1119 -0.1368 -0.8308
    9MOL    H96 2672   7.034   0.816   2.063 -0.1131  1.9766  0.7755
    9MOL    H97 2673   7.020   0.803   1.887  1.4457  0.9649 -1.5008
    9MOL    C98 2674   7.219   0.818   1.935 -0.4008  0.5456 -0.1443
    9MOL    C99 2675   7.323   0.907   2.007 -0.4624 -0.2400  0.0868
    9MOL   C100 2676   7.312   0.932   2.146  0.4860  0.6624  0.2224
    9MOL   C101 2677   7.395   1.031   2.206 -0.2627  0.2087 -0.2684
    9MOL   C102 2678   7.500   1.089   2.131 -0.7248 -0.1147 -0.0375
    9MOL  Cl103 2679   7.612   1.203   2.192 -0.2332  0.2943 -0.5361
    9MOL   C104 2680   7.515   1.051   1.996 -0.2020 -0.5112 -0.2527
    9MOL   C105 2681   7.428   0.963   1.940 -0.3208  0.0553  0.0551
    9MOL   C106 2682   7.254   0.668   1.959  0.0644  0.2878 -0.1587
    9MOL   H107 2683   7.226   0.832   1.827  1.4421 -1.0403 -0.2741
    9MOL   H108 2684   7.238   0.881   2.206  0.4976  0.8075  0.3583
    9MOL   H109 2685   7.364   1.066   2.303  3.3362  0.7061  0.7795
    9MOL   H110 2686   7.597   1.094   1.940 -1.1415  1.0102 -0.4791
    9MOL   H111 2687   7.438   0.932   1.837  3.0499 -1.4439  0.7555
    9MOL   H112 2688   7.358   0.656   1.927 -0.1685  0.5659 -1.0228
    9MOL   H113 2689   7.259   0.641   2.065  1.1362  0.0793 -0.2581
    9MOL   C114 2690   7.153   0.560   1.886  0.1531  0.1643 -0.0589
    9MOL   C115 2691   7.154   0.582   1.728  0.5212 -0.5537 -0.1106
    9MOL   C116 2692   7.033   0.583   1.655  0.4907  0.2119 -0.1461
    9MOL   C117 2693   7.036   0.598   1.518  0.0875 -0.7139  0.3361
    9MOL   C118 2694   7.162   0.604   1.456 -0.3637  0.0077 -0.6204
    9MOL  Cl119 2695   7.177   0.609   1.287 -0.2407  0.0104 -0.4965
    9MOL   C120 2696   7.284   0.615   1.524 -0.3741  0.2454  0.1442
    9MOL   C121 2697   7.277   0.603   1.665 -0.1781 -0.1797  0.0287
    9MOL   C122 2698   7.185   0.413   1.935  0.1667 -0.2026  0.5744
    9MOL   H123 2699   7.060   0.590   1.934 -0.0467 -0.9653  0.2832
    9MOL   H124 2700   6.938   0.568   1.703 -0.6779  0.9581 -2.2045
    9MOL   H125 2701   6.949   0.586   1.456 -0.2598  1.9682  0.2645
    9MOL   H126 2702   7.370   0.640   1.465  2.5251 -0.5742  3.8593
    9MOL   H127 2703   7.370   0.623   1.717 -0.2456 -2.6420  1.1872
    9MOL   H128 2704   7.151   0.343   1.859  2.1820 -0.8736  0.2665
    9MOL   H129 2705   7.294   0.400   1.937  0.2317  0.4032  1.7582
    9MOL   C130 2706   7.107   0.373   2.070 -0.4564  0.0879  0.1508
    9MOL   C131 2707   6.958   0.394   2.045 -0.3098 -0.0921  0.1849
    9MOL   C132 2708   6.877   0.494   2.111  0.1710 -0.1752  0.6629
    9MOL   C133 2709   6.741   0.513   2.083  0.0294  0.1268 -0.3526
    9MOL   C134 2710   6.668   0.416   2.003  0.2255  0.3981  0.5131
    9MOL  Cl135 2711   6.492   0.421   1.994  0.0473 -0.4374 -0.0381
    9MOL   C136 2712   6.747   0.314   1.935 -0.2301 -0.0720 -0.2028
    9MOL   C137 2713   6.886   0.309   1.955 -0.2541 -0.0553 -0.6358
    9MOL   C138 2714   7.150   0.230   2.116  0.1281  0.5846  0.6956
    9MOL   H139 2715   7.129   0.435   2.157  0.4426  1.5026 -1.0626
    9MOL   H140 2716   6.927   0.554   2.186  0.8781 -2.3049  1.9459
    9MOL   H141 2717   6.690   0.583   2.147 -0.1860 -1.8623  1.7126
    9MOL   H142 2718   6.687   0.248   1.874 -0.3583  1.8432 -2.2248
    9MOL   H143 2719   6.947   0.236   1.904 -0.8722 -2.9450  2.5049
    9MOL   H144 2720   7.057   0.190   2.156  0.2284 -1.0122 -0.6140
    9MOL   H145 2721   7.186   0.169   2.034  3.1964 -1.6463  3.5414
    9MOL   C146 2722   7.240   0.226   2.246  0.3297 -0.3175  0.9453
    9MOL   C147 2723   7.377   0.287   2.241  0.6530  0.3278 -0.5059
    9MOL   C148 2724   7.397   0.427   2.264  0.2391 -0.3797  0.6963
    9MOL   C149 2725   7.525   0.484   2.246 -0.2189 -0.4878 -0.1960
    9MOL   C150 2726   7.632   0.400   2.193  0.9970  0.3449  0.0058
    9MOL  Cl151 2727   7.787   0.472   2.164 -0.0536 -0.0059 -0.1114
    9MOL   C152 2728   7.610   0.261   2.174 -0.0856 -0.3082 -0.0657
    9MOL   C153 2729   7.484   0.202   2.206  0.1060  0.1656 -0.3110
    9MOL   C154 2730   7.163   0.242   2.381  0.0162  0.6316  0.0290
    9MOL   H155 2731   7.268   0.121   2.248  0.7562 -0.1991  1.1573
    9MOL   H156 2732   7.324   0.503   2.288  2.3057  1.5860  0.8552
    9MOL   H157 2733   7.545   0.584   2.284  1.0501 -0.3940 -1.0735
    9MOL   H158 2734   7.694   0.203   2.140  0.1497 -0.5320  0.8714
    9MOL   H159 2735   7.457   0.099   2.185  0.4693  0.0447 -0.1933
    9MOL   H160 2736   7.133   0.346   2.385 -1.4679  0.1983  0.6438
    9MOL   H161 2737   7.073   0.181   2.386  0.9547 -0.6791  1.8740
    9MOL   C162 2738   7.244   0.185   2.500  0.1478  0.8194 -0.5300
    9MOL   C163 2739   7.304   0.299   2.584 -0.8796  0.1135 -0.5630
    9MOL   C164 2740   7.225   0.390   2.662 -0.2400 -0.4417 -0.1469
    9MOL   C165 2741   7.284   0.507   2.715 -0.1904 -0.3513  0.6677
    9MOL   C166 2742   7.422   0.522   2.704 -0.8604  0.2186  0.1746
    9MOL  Cl167 2743   7.483   0.668   2.770  0.0612  0.0939 -0.0800
    9MOL   C168 2744   7.503   0.432   2.628 -0.0078  0.2382  0.3706
    9MOL   C169 2745   7.445   0.319   2.576 -0.1782 -0.1958  0.2755
    9MOL   C170 2746   7.172   0.084   2.598 -0.3021  0.3022  0.5413
    9MOL   H171 2747   7.327   0.125   2.462  0.5715  0.4402  0.9581
    9MOL   H172 2748   7.117   0.380   2.665 -0.0514 -2.2125  1.2954
    9MOL   H173 2749   7.231   0.580   2.774 -0.3564  2.3897 -2.7621
    9MOL   H174 2750   7.607   0.440   2.602  0.0715  0.5663  0.7721
    9MOL   H175 2751   7.502   0.244   2.523  2.5641  2.8272 -1.1944
    9MOL   H176 2752   7.243   0.068   2.679 -0.5722  3.4209  1.4468
    9MOL   H177 2753   7.089   0.137   2.645  0.3733  0.6627  1.3425
    9MOL   C178 2754   7.136   8.385   2.536  0.4191  0.0468 -0.6192
    9MOL   C179 2755   7.263   8.329   2.471 -0.4428  0.7142  0.0381
    9MOL   C180 2756   7.380   8.295   2.546  0.0904 -0.3086 -0.3089
    9MOL   C181 2757   7.495   8.251   2.478 -0.4841  0.3770 -0.2423
    9MOL   C182 2758   7.492   8.232   2.338 -0.4586  0.4671  0.1294
    9MOL  Cl183 2759   7.623   8.152   2.259 -0.6627 -0.1100  0.2763
    9MOL   C184 2760   7.381   8.260   2.264  0.0986 -0.4831 -0.8428
    9MOL   C185 2761   7.267   8.310   2.332 -0.1650 -0.3354  0.8599
    9MOL   C186 2762   7.074   8.290   2.640  0.3524 -0.5390  0.2665
    9MOL   H187 2763   7.060   8.413   2.463 -0.3471 -0.3216  0.0206
    9MOL   H188 2764   7.378   8.294   2.654  1.0111  0.4747 -0.2721
    9MOL   H189 2765   7.584   8.228   2.534  0.1180 -0.7366 -1.6486
    9MOL   H190 2766   7.371   8.239   2.159 -0.0776 -1.7670 -0.5779
    9MOL   H191 2767   7.178   8.336   2.277  0.1214  1.2295  1.1270
    9MOL   H192 2768   7.122   8.298   2.737 -0.5304  0.1615  0.6500
    9MOL   H193 2769   6.972   8.324   2.656 -0.7745 -4.1876  1.3018
    9MOL   C194 2770   7.080   8.134   2.603 -0.0668  1.1571  0.9147
    9MOL   C195 2771   7.041   8.046   2.716 -0.7372  0.1398  0.0061
    9MOL   C196 2772   6.903   8.040   2.762 -0.1486 -0.0680  0.5967
    9MOL   C197 2773   6.871   7.941   2.855 -0.3368 -0.2714  1.1372
    9MOL   C198 2774   6.972   7.864   2.918  0.9004  0.0475 -0.2006
    9MOL  Cl199 2775   6.936   7.742   3.032 -0.4523  0.2932 -0.0229
    9MOL   C200 2776   7.102   7.869   2.871  0.6952 -0.1822  0.1094
    9MOL   C201 2777   7.139   7.953   2.766 -0.0971  0.5683  0.4040
    9MOL   C202 2778   6.996   8.102   2.477 -0.3059 -0.4386  0.3660
    9MOL   H203 2779   7.185   8.114   2.579 -1.3908 -1.3740 -3.4018
    9MOL   H204 2780   6.824   8.099   2.717 -0.1133 -0.6698 -0.2658
    9MOL   H205 2781   6.768   7.928   2.884 -0.1437 -1.1705  1.4237
    9MOL   H206 2782   7.172   7.801   2.917  0.1073 -0.0158  1.2851
    9MOL   H207 2783   7.240   7.956   2.727  1.2949  0.1109  3.7562
    9MOL   H208 2784   6.891   8.128   2.490  0.5940  5.0788 -1.8731
    9MOL   H209 2785   7.021   8.168   2.394 -1.9400  1.7617  1.5849
    9MOL   C210 2786   7.014   7.949   2.429 -0.0426  0.1171 -0.4703
    9MOL   C211 2787   6.903   7.911   2.328 -0.1646 -0.6727  0.0728
    9MOL   C212 2788   6.803   7.812   2.366  0.5940 -0.0228 -0.0393
    9MOL   C213 2789   6.699   7.777   2.280 -0.1561 -0.2719  0.1700
    9MOL   C214 2790   6.692   7.841   2.151 -0.3033 -0.5112  0.0736
    9MOL  Cl215 2791   6.566   7.781   2.047  0.0038  0.1686  0.0231
    9MOL   C216 2792   6.784   7.942   2.117  0.0447 -0.1021  0.2182
    9MOL   C217 2793   6.889   7.978   2.207 -0.2069 -0.2535 -0.9823
    9MOL   C218 2794   7.163   7.945   2.372  0.4936 -0.1592  0.5090
    9MOL   H219 2795   7.002   7.879   2.512  3.4970  1.2415  1.0645
    9MOL   H220 2796   6.811   7.773   2.466 -2.9518 -3.1418 -0.8742
    9MOL   H221 2797   6.625   7.705   2.310  0.9042 -0.3212  2.8025
    9MOL   H222 2798   6.772   7.983   2.018 -2.1091  2.2764  1.3846
    9MOL   H223 2799   6.972   8.041   2.175 -0.6991 -0.3461 -2.4991
    9MOL   H224 2800   7.194   8.042   2.334 -4.4710  1.2505 -0.1889
    9MOL   H225 2801   7.221   7.931   2.464  1.6548  2.8720  0.2917
    9MOL   C226 2802   7.204   7.833   2.270  0.4664  0.8491  0.3226
    9MOL   C227 2803   7.159   7.854   2.125  0.3223 -0.3293  0.2981
    9MOL   C228 2804   7.198   7.970   2.057 -0.6399 -0.7642  1.0508
    9MOL   C229 2805   7.162   8.006   1.924 -0.1490 -0.4992 -0.3842
    9MOL   C230 2806   7.078   7.912   1.863  0.6428 -0.8494 -0.2617
    9MOL  Cl231 2807   7.042   7.927   1.697 -0.4415  0.3660  0.3021
    9MOL   C232 2808   7.032   7.799   1.919  0.4369  0.1977 -0.5970
    9MOL   C233 2809   7.066   7.767   2.058  0.4899  0.2141  0.6797
    9MOL   C234 2810   7.352   7.803   2.284 -1.3189 -0.2002  0.7689
    9MOL   H235 2811   7.160   7.741   2.309  1.7540  1.2599  2.9091
    9MOL   H236 2812   7.250   8.043   2.117 -1.9437  1.1135 -0.0441
    9MOL   H237 2813   7.208   8.089   1.874 -1.0100 -0.4988 -1.1712
    9MOL   H238 2814   6.970   7.737   1.857 -0.2551  0.3755 -0.0865
    9MOL   H239 2815   7.043   7.668   2.095  1.8493 -0.5832 -0.5175
    9MOL   H240 2816   7.394   7.903   2.275  2.4562 -1.7049  0.7678
    9MOL   H241 2817   7.384   7.761   2.379 -0.1534  2.2136  1.4882
    9MOL   C242 2818   7.416   7.726   2.169 -0.0756 -0.4496 -0.4098
    9MOL   C243 2819   7.567   7.744   2.180 -0.0546 -0.0564  1.0242
    9MOL   C244 2820   7.640   7.829   2.090 -0.1459  0.3395  0.9731
    9MOL   C245 2821   7.778   7.831   2.101 -0.5636 -0.0043 -0.5061
    9MOL   C246 2822   7.846   7.777   2.212 -0.4878  0.6448 -0.9168
    9MOL  Cl247 2823   8.017   7.779   2.197 -0.0025 -0.0099 -0.0231
    9MOL   C248 2824   7.767   7.707   2.305  0.2498  0.5286  0.0069
    9MOL   C249 2825   7.632   7.688   2.291  0.4541  0.1381  0.0939
    9MOL   C250 2826   7.368   7.575   2.164 -0.1402  0.4791 -0.9130
    9MOL   H251 2827   7.384   7.755   2.069 -0.2820  1.8354  0.2821
    9MOL   H252 2828   7.598   7.881   2.005  2.9487  1.1320 -0.1215
    9MOL   H253 2829   7.848   7.877   2.033  0.7824  0.4395  1.1348
    9MOL   H254 2830   7.811   7.660   2.392 -0.1456 -0.3864 -0.2791
    9MOL   H255 2831   7.582   7.628   2.365 -1.1919 -0.7928 -1.7414
    9MOL   H256 2832   7.397   7.516   2.251  1.6301  3.7770  0.8379
    9MOL   H257 2833   7.260   7.584   2.166 -0.0499  1.7450 -1.2986
    9MOL   C258 2834   7.423   7.499   2.044 -0.0945 -0.3099 -0.1144
    9MOL   C259 2835   7.399   7.349   2.064 -0.6341  0.4369 -0.0109
    9MOL   C260 2836   7.507   7.257   2.048  0.2510  0.8839  0.2071
    9MOL   C261 2837   7.485   7.121   2.077 -0.1141  0.9015  0.0928
    9MOL   C262 2838   7.358   7.077   2.119  0.0909 -0.1643  0.5262
    9MOL  Cl263 2839   7.333   6.914   2.159  0.0495  0.1273 -0.4602
    9MOL   C264 2840   7.254   7.167   2.128 -0.1415  0.2469 -0.2630
    9MOL   C265 2841   7.275   7.301   2.102 -0.2869  0.2128 -0.6936
    9MOL   C266 2842   7.356   7.538   1.910 -0.4095 -0.1389  0.4914
    9MOL   H267 2843   7.529   7.520   2.037 -0.0520 -0.8114 -1.1672
    9MOL   H268 2844   7.605   7.297   2.028  0.6516  0.2423  0.8544
    9MOL   H269 2845   7.572   7.060   2.057  0.6285  2.1089 -0.4765
    9MOL   H270 2846   7.156   7.135   2.161  0.4266 -1.0082  0.2472
    9MOL   H271 2847   7.187   7.363   2.115 -1.3952 -1.1187 -1.6221
    9MOL   H272 2848   7.255   7.499   1.898 -0.3162 -0.5633  1.0840
    9MOL   H273 2849   7.345   7.646   1.896 -0.3278 -0.3461 -1.3687
    9MOL   C274 2850   7.426   7.486   1.781  0.4138 -0.5090  0.4837
    9MOL   C275 2851   7.343   7.507   1.651 -0.2455 -0.2428 -0.5345
    9MOL   C276 2852   7.256   7.623   1.633  0.2585 -1.0169  0.3890
    9MOL   C277 2853   7.208   7.656   1.504  0.2359 -0.5216 -0.0831
    9MOL   C278 2854   7.242   7.574   1.396 -0.2527 -0.2790  0.0472
    9MOL  Cl279 2855   7.214   7.631   1.235 -0.0399  0.1647  0.0112
    9MOL   C280 2856   7.322   7.456   1.410  0.8186 -0.0155 -0.1438
    9MOL   C281 2857   7.367   7.421   1.542  0.5661  0.0282  0.9096
    9MOL   C282 2858   7.571   7.552   1.764  0.2377 -0.2534  0.1988
    9MOL   H283 2859   7.439   7.378   1.792  1.4706 -0.3054  1.2845
    9MOL   H284 2860   7.224   7.684   1.715  0.9395  0.1510 -0.2035
    9MOL   H285 2861   7.145   7.743   1.488  1.1009  0.1731  0.2203
    9MOL   H286 2862   7.333   7.394   1.322  1.4080  1.8562 -1.4431
    9MOL   H287 2863   7.424   7.331   1.557 -1.6793 -1.6718 -0.5024
    9MOL   H288 2864   7.573   7.621   1.680 -2.5716 -0.4041 -0.0366
    9MOL   H289 2865   7.584   7.626   1.844 -0.2100 -0.4802  0.4828
    9MOL   C290 2866   7.689   7.454   1.760  0.0736 -0.9303 -0.7235
    9MOL   C291 2867   7.689   7.362   1.644  0.0816  0.0860  0.3381
    9MOL   C292 2868   7.683   7.223   1.662 -0.1803  0.5949 -0.4043
    9MOL   C293 2869   7.697   7.133   1.555 -0.0087 -0.4915  0.1873
    9MOL   C294 2870   7.708   7.187   1.424 -0.3206  0.0315 -0.1784
    9MOL  Cl295 2871   7.712   7.075   1.290 -0.3553  0.2381 -0.1549
    9MOL   C296 2872   7.723   7.324   1.411 -0.7009 -0.1511  0.5428
    9MOL   C297 2873   7.720   7.412   1.518 -0.2175  0.0616 -0.4215
    9MOL   C298 2874   7.818   7.537   1.787 -0.1946  0.2637 -0.2597
    9MOL   H299 2875   7.678   7.395   1.851  1.1911 -0.1676 -0.0768
    9MOL   H300 2876   7.663   7.176   1.757 -0.0766  2.1131  0.3815
    9MOL   H301 2877   7.680   7.027   1.565 -1.1956 -0.2493  0.8721
    9MOL   H302 2878   7.743   7.365   1.313 -1.8942  1.4231  0.9431
    9MOL   H303 2879   7.737   7.518   1.507  4.0534 -0.3913  0.6693
    9MOL   H304 2880   7.826   7.604   1.702  1.3012  0.7744  0.2817
    9MOL   H305 2881   7.827   7.601   1.875  3.2571 -0.8570  0.2845
    9MOL   C306 2882   7.945   7.438   1.795 -0.2659 -0.1294 -0.3379
    9MOL   C307 2883   8.075   7.508   1.759 -0.0836  0.3372  1.0749
    9MOL   C308 2884   8.137   7.465   1.638  0.0509 -0.6083  0.1638
    9MOL   C309 2885   8.264   7.521   1.612  0.0305  0.0447 -0.5329
    9MOL   C310 2886   8.322   7.618   1.685  0.5188 -0.0773  0.2969
    9MOL  Cl311 2887   0.033   7.681   1.637 -0.0309  0.0507  0.1106
    9MOL   C312 2888   8.261   7.662   1.806 -0.2130  0.1015  0.2769
    9MOL   C313 2889   8.135   7.604   1.842 -0.2186 -0.6023  0.5050
    9MOL   C314 2890   7.956   7.372   1.935  0.1712 -0.4818  0.1354
    9MOL   H315 2891   7.931   7.357   1.723 -1.7361 -0.2934  0.1279
    9MOL   H316 2892   8.085   7.387   1.583  2.1410 -1.9621  0.0485
    9MOL   H317 2893   8.320   7.492   1.524 -0.7274 -1.9013 -0.4026
    9MOL   H318 2894   8.305   7.744   1.861 -0.9008  2.0894 -2.0433
    9MOL   H319 2895   8.081   7.646   1.926  0.9737  0.3280  0.8158
    9MOL   H320 2896   7.971   7.438   2.020 -1.5082 -1.9615  1.5984
    9MOL   H321 2897   7.869   7.314   1.964 -1.7439  1.9368 -0.6647
    9MOL   H322 2898   8.044   7.307   1.934 -0.2841 -1.1133  1.0539
   10MOL     C1 2899   5.200   5.982   5.838 -0.3352  0.4902 -0.9594
   10MOL     C2 2900   5.338   5.943   5.791 -0.4671 -0.6941 -0.2533
   10MOL     C3 2901   5.448   5.964   5.874  0.0929 -0.6943  0.0713
   10MOL     C4 2902   5.581   5.937   5.821 -0.8074  0.0181 -0.4121
   10MOL     C5 2903   5.595   5.897   5.685  0.8054 -0.3387 -0.3583
   10MOL    Cl6 2904   5.756   5.848   5.631  0.0745 -0.1246  0.0856
   10MOL     C7 2905   5.481   5.883   5.602  0.4210 -0.2152  0.2704
   10MOL     C8 2906   5.355   5.910   5.655 -0.3222 -0.0928  0.3731
   10MOL     C9 2907   5.167   5.916   5.977 -0.5923 -0.1557 -0.8350
   10MOL    H10 2908   5.125   5.946   5.768 -0.7448  1.0451 -0.8058
   10MOL    H11 2909   5.429   5.982   5.978  0.8298 -0.5243  0.1818
   10MOL    H12 2910   5.672   5.929   5.879 -0.1738 -0.3978 -1.4638
   10MOL    H13 2911   5.495   5.845   5.502 -1.0911  0.2741 -0.1398
   10MOL    H14 2912   5.275   5.894   5.584  0.8168 -2.3299 -0.4388
   10MOL    H15 2913   5.063   5.886   5.970 -0.2229 -1.6771  0.0290
   10MOL    H16 2914   5.228   5.828   5.998 -0.7823  0.1266  0.9975
   10MOL    H17 2915   5.210   6.090   5.846  3.2534  0.0186  2.5666
   10MOL    C18 2916   5.177   6.003   6.107 -0.7092  0.4667 -0.2907
   10MOL    C19 2917   5.089   6.123   6.101 -0.0676  0.2444 -0.6664
   10MOL    C20 2918   5.148   6.253   6.104  0.1956 -0.3016  0.1827
   10MOL    C21 2919   5.068   6.368   6.077  1.2138 -0.6261  0.4616
   10MOL    C22 2920   4.933   6.356   6.041  0.5215  0.3823 -0.1937
   10MOL   Cl23 2921   4.858   6.502   6.008  0.0771  0.2144 -0.1311
   10MOL    C24 2922   4.873   6.227   6.051  0.2769 -0.0357 -0.0234
   10MOL    C25 2923   4.949   6.116   6.086 -0.2605  0.1323  0.5936
   10MOL    C26 2924   5.137   5.919   6.234  0.8090 -0.3737 -0.8126
   10MOL    H27 2925   5.280   6.038   6.109 -0.9392  1.3193 -2.0267
   10MOL    H28 2926   5.255   6.264   6.111  0.2221 -1.4136  1.8355
   10MOL    H29 2927   5.121   6.462   6.083 -0.2607  0.2057  0.7485
   10MOL    H30 2928   4.769   6.211   6.024  0.1219 -1.5454  1.3756
   10MOL    H31 2929   4.900   6.020   6.078  0.0371  0.0921 -1.1241
   10MOL    H32 2930   5.101   5.985   6.312  1.5580 -3.6721  2.4608
   10MOL    H33 2931   5.049   5.859   6.210  1.3933 -1.4711 -0.2641
   10MOL    C34 2932   5.239   5.821   6.296 -0.1644 -0.3638  0.1470
   10MOL    C35 2933   5.383   5.855   6.260 -0.3980 -1.1610 -0.6284
   10MOL    C36 2934   5.459   5.749   6.208 -0.5454  0.4886  0.3265
   10MOL    C37 2935   5.595   5.772   6.175  0.4028  0.7832  0.5028
   10MOL    C38 2936   5.658   5.896   6.211  0.2434  0.2219 -0.3762
   10MOL   Cl39 2937   5.819   5.930   6.156  0.2347  0.2663 -0.0010
   10MOL    C40 2938   5.587   6.002   6.278 -0.0586 -0.3613 -0.4269
   10MOL    C41 2939   5.447   5.982   6.290 -0.2269 -0.3399 -0.7991
   10MOL    C42 2940   5.208   5.829   6.451  0.0036 -0.1629  0.2144
   10MOL    H43 2941   5.222   5.719   6.262 -1.9138 -0.6758  1.8740
   10MOL    H44 2942   5.411   5.654   6.188 -1.4239  1.3136 -1.5371
   10MOL    H45 2943   5.649   5.700   6.116  0.0128  1.9819 -1.3678
   10MOL    H46 2944   5.628   6.099   6.305  2.1415 -1.3666 -0.0884
   10MOL    H47 2945   5.383   6.052   6.342 -0.7660 -0.2930 -1.5164
   10MOL    H48 2946   5.234   5.929   6.486  0.1591  0.0474 -0.4818
   10MOL    H49 2947   5.103   5.818   6.480 -0.0930  1.7763  0.6655
   10MOL    C50 2948   5.280   5.733   6.551 -0.7185  0.1178  0.5938
   10MOL    C51 2949   5.267   5.584   6.513  0.0955 -0.0740  0.2223
   10MOL    C52 2950   5.361   5.518   6.432  0.0243 -0.2191 -0.0410
   10MOL    C53 2951   5.348   5.381   6.408  0.0750  0.5039  0.2968
   10MOL    C54 2952   5.233   5.311   6.462  0.0529  0.0823  0.5983
   10MOL   Cl55 2953   5.207   5.138   6.439 -0.7428 -0.1451  0.1550
   10MOL    C56 2954   5.138   5.371   6.547 -0.0344 -0.4654 -0.0861
   10MOL    C57 2955   5.160   5.507   6.567 -0.7959 -0.0990 -0.0015
   10MOL    C58 2956   5.413   5.793   6.605  0.3050  0.1895  0.1592
   10MOL    H59 2957   5.219   5.738   6.641  0.0511  2.0017  1.0321
   10MOL    H60 2958   5.455   5.552   6.390  0.5355 -1.3537  0.1545
   10MOL    H61 2959   5.418   5.322   6.350 -0.8879  0.2462 -0.6137
   10MOL    H62 2960   5.053   5.318   6.589 -1.7545  1.5572 -0.9204
   10MOL    H63 2961   5.094   5.556   6.637 -1.0613  0.1358 -0.4208
   10MOL    H64 2962   5.478   5.820   6.523  0.3917  2.7756  1.0325
   10MOL    H65 2963   5.395   5.886   6.658  0.1792  0.3206 -0.1189
   10MOL    C66 2964   5.510   5.698   6.686  0.6142 -0.1075 -0.4654
   10MOL    C67 2965   5.654   5.749   6.682 -0.1201  0.3072  0.2263
   10MOL    C68 2966   5.710   5.833   6.787 -0.3379  0.3556  0.5161
   10MOL    C69 2967   5.838   5.891   6.767  0.7333 -0.3038 -0.2158
   10MOL    C70 2968   5.910   5.853   6.654 -0.3581 -0.0348 -0.2227
   10MOL   Cl71 2969   6.073   5.926   6.628  0.2045  0.1899  0.0199
   10MOL    C72 2970   5.853   5.771   6.553  0.4597 -0.4526 -0.1480
   10MOL    C73 2971   5.728   5.719   6.564 -0.1152  0.1161 -0.5068
   10MOL    C74 2972   5.453   5.666   6.828 -0.1324 -0.1015 -0.3727
   10MOL    H75 2973   5.519   5.602   6.635 -0.2193 -1.2581  1.5028
   10MOL    H76 2974   5.660   5.852   6.881  0.5488  1.2057  0.8104
   10MOL    H77 2975   5.874   5.961   6.841 -3.2334  1.6770  0.0285
   10MOL    H78 2976   5.909   5.744   6.465  0.4228 -4.0758  0.8577
   10MOL    H79 2977   5.684   5.658   6.487 -0.9624  3.1496 -2.5057
   10MOL    H80 2978   5.456   5.760   6.883 -0.6083  0.1218 -0.7243
   10MOL    H81 2979   5.344   5.667   6.825 -0.1300 -0.0957 -0.4497
   10MOL    C82 2980   5.522   5.555   6.912  0.6321 -0.0575 -0.4615
   10MOL    C83 2981   5.457   5.553   7.051  0.1072  0.4450 -0.1221
   10MOL    C84 2982   5.532   5.559   7.169 -0.0175  0.0327 -0.2296
   10MOL    C85 2983   5.473   5.570   7.295 -0.3978 -0.6597  0.9031
   10MOL    C86 2984   5.339   5.575   7.311  0.1019 -0.0917  1.2662
   10MOL   Cl87 2985   5.271   5.583   7.461 -0.0985  0.4100  0.2043
   10MOL    C88 2986   5.255   5.557   7.197  0.4440 -0.6069 -0.6269
   10MOL    C89 2987   5.316   5.551   7.072 -0.2633  0.4099  0.4418
   10MOL    C90 2988   5.508   5.413   6.843 -0.0153  0.2801  0.6839
   10MOL    H91 2989   5.622   5.595   6.929  0.3907  0.5834 -0.5323
   10MOL    H92 2990   5.639   5.553   7.161 -0.0095  0.3232 -0.3415
   10MOL    H93 2991   5.540   5.579   7.380  1.6299  1.1184 -0.8225
   10MOL    H94 2992   5.149   5.547   7.216  0.8507 -0.4608  1.9899
   10MOL    H95 2993   5.250   5.557   6.987  0.9372 -3.6414 -0.8646
   10MOL    H96 2994   5.422   5.361   6.885  0.6943  1.6860  4.0617
   10MOL    H97 2995   5.487   5.421   6.736  0.8322  0.6928  0.5391
   10MOL    C98 2996   5.642   5.328   6.846 -0.3192 -0.2021  0.1668
   10MOL    C99 2997   5.641   5.207   6.751 -0.7948 -0.6655 -0.2842
   10MOL   C100 2998   5.640   5.071   6.800  0.8078  0.1457  0.5771
   10MOL   C101 2999   5.610   4.960   6.722  0.2980 -0.0356 -0.6232
   10MOL   C102 3000   5.594   4.982   6.582 -0.6553 -0.1640 -0.3175
   10MOL  Cl103 3001   5.586   4.847   6.478 -0.8119  0.1468  0.3898
   10MOL   C104 3002   5.601   5.116   6.529 -0.7967 -0.0721  0.3695
   10MOL   C105 3003   5.627   5.224   6.611  0.6710 -0.1433 -0.2602
   10MOL   C106 3004   5.771   5.407   6.817  0.1339 -0.7739  0.1199
   10MOL   H107 3005   5.650   5.289   6.947 -0.6996 -0.8856 -0.0617
   10MOL   H108 3006   5.664   5.055   6.904  0.8045 -0.9029  0.4224
   10MOL   H109 3007   5.604   4.860   6.763 -4.8023  0.7173  0.8182
   10MOL   H110 3008   5.572   5.138   6.427  1.8446  2.3699  0.0822
   10MOL   H111 3009   5.631   5.315   6.553  1.4272 -0.2263 -0.3476
   10MOL   H112 3010   5.760   5.444   6.715  2.9541  1.1402  0.4626
   10MOL   H113 3011   5.792   5.488   6.887  0.7522 -0.5161 -0.3560
   10MOL   C114 3012   5.903   5.320   6.813  0.7639 -1.0177  0.0423
   10MOL   C115 3013   6.021   5.405   6.753  0.1331  0.0657  0.0334
   10MOL   C116 3014   6.044   5.414   6.616 -0.3378  0.3533  0.2377
   10MOL   C117 3015   6.138   5.496   6.551 -0.6282 -0.0338  0.4828
   10MOL   C118 3016   6.228   5.573   6.639  0.7033 -0.0787  0.6592
   10MOL  Cl119 3017   6.364   5.657   6.577 -0.2660  0.2478  0.1991
   10MOL   C120 3018   6.212   5.565   6.777 -0.2947  0.2580 -0.0322
   10MOL   C121 3019   6.107   5.487   6.834 -0.1023  0.1719  0.1983
   10MOL   C122 3020   5.936   5.255   6.948 -0.0942 -0.1789 -0.6466
   10MOL   H123 3021   5.885   5.240   6.742  0.2638 -0.1757 -0.8054
   10MOL   H124 3022   5.976   5.352   6.559  1.0798  0.7968 -1.9691
   10MOL   H125 3023   6.166   5.492   6.447  1.4272  2.3494  0.8981
   10MOL   H126 3024   6.280   5.603   6.851 -1.5138  0.7487  0.8610
   10MOL   H127 3025   6.096   5.479   6.941 -1.0367 -0.9687  0.0171
   10MOL   H128 3026   5.938   5.326   7.031  1.0336 -1.0824  0.0960
   10MOL   H129 3027   5.846   5.198   6.971 -0.1408  0.5796  1.1462
   10MOL   C130 3028   6.055   5.166   6.959 -0.6202  0.1832 -0.1032
   10MOL   C131 3029   6.092   5.151   7.107 -0.8780  0.1873  0.5746
   10MOL   C132 3030   6.226   5.158   7.143 -1.0006 -0.2918  0.6939
   10MOL   C133 3031   6.268   5.147   7.273  0.6131  0.3329  0.6055
   10MOL   C134 3032   6.175   5.110   7.372 -0.6759 -0.0016  0.0976
   10MOL  Cl135 3033   6.241   5.087   7.529  0.0934  0.2059  0.0532
   10MOL   C136 3034   6.043   5.084   7.335  0.5368 -0.1487 -0.0737
   10MOL   C137 3035   6.003   5.105   7.199  0.0919  0.4467  0.0926
   10MOL   C138 3036   6.032   5.022   6.894 -0.5413  0.4103  0.4302
   10MOL   H139 3037   6.136   5.215   6.904 -1.8952  2.4392 -0.0273
   10MOL   H140 3038   6.298   5.168   7.064 -1.1457 -1.3991  0.4109
   10MOL   H141 3039   6.370   5.149   7.309  1.0098 -0.3507 -0.4494
   10MOL   H142 3040   5.965   5.065   7.407 -0.7824  0.2292 -1.3795
   10MOL   H143 3041   5.902   5.084   7.169  0.1280 -0.8322  0.8114
   10MOL   H144 3042   6.023   4.949   6.975 -1.2333  0.7722  0.6814
   10MOL   H145 3043   5.933   5.022   6.848  0.2110 -0.9941 -1.2484
   10MOL   C146 3044   6.130   4.966   6.781  0.1213 -0.3596 -0.6987
   10MOL   C147 3045   6.279   4.971   6.826 -0.8076  0.5537  0.5136
   10MOL   C148 3046   6.363   5.069   6.774 -0.0031  0.6785  0.5519
   10MOL   C149 3047   6.496   5.078   6.824  0.4147 -1.1782  0.2702
   10MOL   C150 3048   6.537   4.994   6.932 -0.1842 -0.9418 -0.4206
   10MOL  Cl151 3049   6.693   5.015   7.002 -0.0749  0.4275 -0.1244
   10MOL   C152 3050   6.438   4.903   6.984  0.0703 -0.2198 -0.5578
   10MOL   C153 3051   6.314   4.892   6.932 -0.9098 -0.2939  0.0352
   10MOL   C154 3052   6.074   4.825   6.752 -0.3397 -0.2599  0.1527
   10MOL   H155 3053   6.122   5.030   6.693 -1.5130  1.7899  0.9640
   10MOL   H156 3054   6.332   5.132   6.692  1.1989  1.7906  0.9288
   10MOL   H157 3055   6.576   5.142   6.791  0.0183 -1.4972 -1.3710
   10MOL   H158 3056   6.477   4.844   7.066  0.7126  1.8873  0.6701
   10MOL   H159 3057   6.247   4.824   6.983 -2.7179  0.7058 -0.9760
   10MOL   H160 3058   6.078   4.770   6.845 -0.0633  0.1176  0.3644
   10MOL   H161 3059   5.968   4.821   6.725 -0.6107 -1.1381  1.3560
   10MOL   C162 3060   6.154   4.739   6.652  0.6423 -0.4375 -0.6542
   10MOL   C163 3061   6.113   4.595   6.672 -0.0368 -0.4329 -0.2919
   10MOL   C164 3062   6.218   4.501   6.674 -1.0695  0.1899  0.5896
   10MOL   C165 3063   6.192   4.360   6.702 -0.0666 -0.2250 -1.2547
   10MOL   C166 3064   6.056   4.318   6.721 -0.8476 -0.0322  0.0898
   10MOL  Cl167 3065   6.017   4.153   6.760  0.0040  0.0585  0.2005
   10MOL   C168 3066   5.949   4.408   6.708 -0.1810 -0.1428 -0.2756
   10MOL   C169 3067   5.981   4.546   6.687  0.6196  0.0355 -0.7364
   10MOL   C170 3068   6.149   4.796   6.503 -0.4060  0.0813 -0.0796
   10MOL   H171 3069   6.259   4.743   6.678 -0.4128  1.7256  3.6372
   10MOL   H172 3070   6.319   4.539   6.662 -0.7293 -1.7397 -3.1809
   10MOL   H173 3071   6.272   4.288   6.692 -0.2739 -0.9128  1.6874
   10MOL   H174 3072   5.847   4.375   6.718  0.2136 -1.7720 -1.5682
   10MOL   H175 3073   5.894   4.609   6.678 -0.2739 -1.1454 -0.5412
   10MOL   H176 3074   6.105   4.717   6.441  3.2418 -1.5178 -0.7406
   10MOL   H177 3075   6.077   4.877   6.497  1.0651  1.4535  0.7067
   10MOL   C178 3076   6.285   4.857   6.452 -0.2408 -1.7400 -0.3637
   10MOL   C179 3077   6.393   4.753   6.452 -0.0717 -0.3779  0.0841
   10MOL   C180 3078   6.513   4.776   6.522 -0.2281  0.2765 -0.2693
   10MOL   C181 3079   6.609   4.675   6.529  0.5853 -0.0714 -0.2580
   10MOL   C182 3080   6.583   4.549   6.472  0.2079 -0.6319 -0.4231
   10MOL  Cl183 3081   6.689   4.424   6.484  0.0786 -0.2968 -0.1253
   10MOL   C184 3082   6.461   4.527   6.407  0.2912  0.2714 -0.1104
   10MOL   C185 3083   6.368   4.632   6.382  0.1177  0.6351 -1.1488
   10MOL   C186 3084   6.283   4.923   6.308  0.7205 -0.6320  0.3957
   10MOL   H187 3085   6.306   4.939   6.521  0.1246 -1.3469 -0.9354
   10MOL   H188 3086   6.529   4.868   6.577 -2.6982 -0.0624  1.1100
   10MOL   H189 3087   6.703   4.700   6.576  0.8686 -1.8321  0.1316
   10MOL   H190 3088   6.433   4.437   6.354 -0.9203 -0.0254  0.9946
   10MOL   H191 3089   6.277   4.621   6.325 -2.2315 -1.3225  2.7265
   10MOL   H192 3090   6.270   4.845   6.233  1.1458  1.4097 -1.8767
   10MOL   H193 3091   6.195   4.986   6.298 -0.1436 -1.5409  2.1437
   10MOL   C194 3092   6.403   5.005   6.257  0.6273  0.5641 -0.0384
   10MOL   C195 3093   6.379   5.031   6.108  0.9268  0.6907  0.3671
   10MOL   C196 3094   6.447   4.942   6.012  0.4503 -0.9342 -0.0841
   10MOL   C197 3095   6.405   4.962   5.874  0.2493  0.1830  0.0253
   10MOL   C198 3096   6.326   5.069   5.835  0.3344 -0.0766  0.3980
   10MOL  Cl199 3097   6.278   5.077   5.670 -0.1765 -0.2353 -0.0344
   10MOL   C200 3098   6.269   5.155   5.932 -0.1300 -0.6715 -0.0686
   10MOL   C201 3099   6.296   5.137   6.066 -0.5558 -0.0827  0.2991
   10MOL   C202 3100   6.442   5.134   6.332  0.1354 -0.5784 -0.7192
   10MOL   H203 3101   6.493   4.944   6.270  1.6849  2.2932  0.9505
   10MOL   H204 3102   6.522   4.869   6.038  1.2005  0.8762  3.0705
   10MOL   H205 3103   6.431   4.903   5.787  0.1568 -0.7672  0.6344
   10MOL   H206 3104   6.204   5.234   5.898  0.0947 -0.4303  0.0611
   10MOL   H207 3105   6.270   5.210   6.141  1.5611 -0.0080  0.9947
   10MOL   H208 3106   6.358   5.202   6.348  0.5852 -0.2341  0.2844
   10MOL   H209 3107   6.460   5.096   6.433  2.8205  0.3955 -0.7917
   10MOL   C210 3108   6.570   5.209   6.270  0.0400  0.2152 -0.1244
   10MOL   C211 3109   6.536   5.346   6.216  0.3015  0.1438 -0.0463
   10MOL   C212 3110   6.531   5.360   6.076 -0.0570  0.7634  0.1009
   10MOL   C213 3111   6.512   5.489   6.017 -0.0872  0.8489  0.2985
   10MOL   C214 3112   6.504   5.600   6.105  0.3812 -0.7612  0.0899
   10MOL  Cl215 3113   6.499   5.753   6.037  0.2029 -0.2015  0.2132
   10MOL   C216 3114   6.499   5.588   6.245  0.6414  0.0423  0.2181
   10MOL   C217 3115   6.501   5.459   6.299 -0.3675 -0.3717  0.9280
   10MOL   C218 3116   6.692   5.206   6.376  0.4534  0.5050 -0.8531
   10MOL   H219 3117   6.601   5.151   6.182 -0.0299 -1.1640  0.7378
   10MOL   H220 3118   6.539   5.277   6.007  1.8167  0.5977  0.4987
   10MOL   H221 3119   6.525   5.501   5.911  0.8688  1.4269  0.4780
   10MOL   H222 3120   6.480   5.680   6.298 -2.1515 -0.3928  0.0586
   10MOL   H223 3121   6.497   5.445   6.406 -1.8818  0.3376  0.9696
   10MOL   H224 3122   6.683   5.282   6.453 -0.4491 -1.0981  0.6547
   10MOL   H225 3123   6.681   5.111   6.429  0.5857  0.7243 -0.4335
   10MOL   C226 3124   6.836   5.202   6.308  0.1268  0.4178  0.4844
   10MOL   C227 3125   6.856   5.105   6.195  1.0967 -0.0450 -0.4556
   10MOL   C228 3126   6.842   5.149   6.064  0.1558  0.1394 -0.7534
   10MOL   C229 3127   6.850   5.056   5.955  0.3772 -0.6682  0.1671
   10MOL   C230 3128   6.874   4.924   5.991  0.2538 -0.4347 -0.4355
   10MOL  Cl231 3129   6.871   4.805   5.861 -0.0791 -0.1894  0.0678
   10MOL   C232 3130   6.888   4.879   6.121 -0.6564  0.5280 -0.0467
   10MOL   C233 3131   6.889   4.973   6.228  0.1343 -0.7254  0.0403
   10MOL   C234 3132   6.892   5.347   6.292  1.0576  0.0071  0.4547
   10MOL   H235 3133   6.911   5.163   6.376  0.9595  0.2873 -0.5048
   10MOL   H236 3134   6.806   5.250   6.044  0.7851  0.2328 -1.4609
   10MOL   H237 3135   6.828   5.093   5.856  0.6044  0.5073  0.5506
   10MOL   H238 3136   6.913   4.774   6.134  4.1418  1.5002 -0.3598
   10MOL   H239 3137   6.891   4.934   6.329 -0.3393  1.4138  0.9002
   10MOL   H240 3138   6.985   5.331   6.237 -0.3753  0.6688 -2.2238
   10MOL   H241 3139   6.825   5.403   6.228  1.2708  2.7106  2.5222
   10MOL   C242 3140   6.919   5.434   6.425 -0.0974 -0.1039 -0.3890
   10MOL   C243 3141   6.961   5.345   6.542  0.2386 -0.0820 -0.1350
   10MOL   C244 3142   7.081   5.265   6.536  0.1916  0.1228  0.6086
   10MOL   C245 3143   7.117   5.179   6.640  0.5663  0.1450  0.4638
   10MOL   C246 3144   7.035   5.162   6.755  0.0674  0.2757  0.1369
   10MOL  Cl247 3145   7.085   5.049   6.879 -0.2446 -0.1318  0.1012
   10MOL   C248 3146   6.915   5.239   6.765 -0.3039  0.0592  0.7101
   10MOL   C249 3147   6.883   5.328   6.662 -0.1206  0.1550  0.6985
   10MOL   C250 3148   7.020   5.539   6.402 -0.3112  0.2399 -0.1071
   10MOL   H251 3149   6.828   5.490   6.448 -1.0167 -1.6420 -0.2745
   10MOL   H252 3150   7.143   5.271   6.448  0.6851  2.8940  1.0972
   10MOL   H253 3151   7.215   5.135   6.630  0.7828  0.6479  0.3261
   10MOL   H254 3152   6.836   5.227   6.838  0.2540  2.6187  1.7738
   10MOL   H255 3153   6.799   5.396   6.662 -1.0003 -0.9078  1.5755
   10MOL   H256 3154   7.063   5.577   6.495 -1.3192  1.8539 -0.2906
   10MOL   H257 3155   7.104   5.486   6.356  0.8118 -0.0218  2.1392
   10MOL   C258 3156   6.974   5.664   6.316 -0.4707  0.1560 -0.3842
   10MOL   C259 3157   6.879   5.758   6.383 -0.7406 -0.0835 -1.0714
   10MOL   C260 3158   6.755   5.794   6.328  0.1368 -0.3873 -0.1197
   10MOL   C261 3159   6.654   5.878   6.391 -0.4076 -0.8187  0.3039
   10MOL   C262 3160   6.691   5.919   6.517 -0.6796  0.0373  0.0096
   10MOL  Cl263 3161   6.586   6.025   6.604 -0.0118  0.0000 -0.0345
   10MOL   C264 3162   6.819   5.892   6.570  0.9431 -0.3952 -0.3486
   10MOL   C265 3163   6.908   5.816   6.505  0.6790  0.1114 -0.2500
   10MOL   C266 3164   7.102   5.746   6.278  0.4810 -0.5627 -0.3440
   10MOL   H267 3165   6.936   5.623   6.222 -0.6608  3.7065 -1.9191
   10MOL   H268 3166   6.732   5.754   6.231 -0.2027  1.7066 -0.9261
   10MOL   H269 3167   6.562   5.896   6.336 -0.1649  0.9796  0.4667
   10MOL   H270 3168   6.859   5.922   6.666  0.6508  1.3845 -0.7812
   10MOL   H271 3169   7.005   5.801   6.551  1.0298 -0.1481 -1.0636
   10MOL   H272 3170   7.168   5.772   6.361  0.7626 -0.1340 -0.7101
   10MOL   H273 3171   7.163   5.695   6.204  0.3109 -0.9311 -0.2322
   10MOL   C274 3172   7.075   5.883   6.199 -0.5580 -0.3276  0.2563
   10MOL   C275 3173   7.208   5.967   6.190 -0.8146  0.5822 -0.1233
   10MOL   C276 3174   7.313   5.935   6.103 -0.2603 -0.0266 -0.5581
   10MOL   C277 3175   7.428   6.014   6.093  0.4997  0.0164 -0.0012
   10MOL   C278 3176   7.452   6.124   6.181 -0.5376 -0.5875  0.6207
   10MOL  Cl279 3177   7.597   6.229   6.164 -0.0403 -0.2444 -0.0068
   10MOL   C280 3178   7.344   6.156   6.272  0.4495  0.7070 -0.1954
   10MOL   C281 3179   7.218   6.089   6.264 -0.2806 -0.0591 -0.0981
   10MOL   C282 3180   7.021   5.864   6.057 -0.0857  0.1892 -0.1782
   10MOL   H283 3181   6.989   5.935   6.241  0.6199  0.2434  2.0117
   10MOL   H284 3182   7.301   5.845   6.043  2.5453 -0.8979  0.1003
   10MOL   H285 3183   7.506   5.987   6.024  1.0722  1.9781 -0.1471
   10MOL   H286 3184   7.343   6.251   6.325 -0.3067  0.0258  1.0288
   10MOL   H287 3185   7.138   6.119   6.330 -0.2396 -2.3280  1.0186
   10MOL   H288 3186   7.096   5.808   6.001 -1.1406 -2.6124  1.1208
   10MOL   H289 3187   6.936   5.797   6.057  2.1222 -2.6998  1.1831
   10MOL   C290 3188   6.981   5.994   5.986  0.4057  0.6548 -0.4637
   10MOL   C291 3189   6.982   5.979   5.835  0.4253  0.3700  0.0491
   10MOL   C292 3190   7.085   6.040   5.755  0.5169  0.0763  0.3212
   10MOL   C293 3191   7.092   6.006   5.619 -0.0353 -0.4027 -0.3525
   10MOL   C294 3192   7.010   5.908   5.557  0.8868 -0.5592  0.2309
   10MOL  Cl295 3193   7.035   5.848   5.394 -0.0935  0.4024 -0.1954
   10MOL   C296 3194   6.905   5.848   5.631  0.7673  0.7635 -0.4214
   10MOL   C297 3195   6.891   5.888   5.773  0.6085  0.1970  0.5493
   10MOL   C298 3196   6.844   6.052   6.034 -0.5061 -0.1559 -0.7414
   10MOL   H299 3197   7.060   6.067   6.003  0.1996  0.9428 -0.7199
   10MOL   H300 3198   7.162   6.102   5.797 -0.7553  0.8202  1.5707
   10MOL   H301 3199   7.161   6.047   5.548 -0.2647  1.5068  0.5031
   10MOL   H302 3200   6.831   5.785   5.585 -1.7027  1.5045  2.3404
   10MOL   H303 3201   6.805   5.854   5.828 -0.2203  1.7368  0.2349
   10MOL   H304 3202   6.769   5.973   6.035 -1.4200  0.6857  0.3593
   10MOL   H305 3203   6.846   6.067   6.142 -0.2563 -2.3712 -0.4162
   10MOL   C306 3204   6.781   6.180   5.983  0.7347  0.5243  0.2362
   10MOL   C307 3205   6.652   6.224   6.048  0.2305  0.7322 -0.8115
   10MOL   C308 3206   6.658   6.256   6.184 -0.0394  0.6352 -0.5309
   10MOL   C309 3207   6.546   6.277   6.262 -0.0693 -0.4267  0.6262
   10MOL   C310 3208   6.418   6.259   6.204  0.5776  0.2633  0.6241
   10MOL  Cl311 3209   6.279   6.269   6.296 -0.5151  0.2358 -0.5133
   10MOL   C312 3210   6.405   6.231   6.067 -0.1455 -0.0241 -0.6603
   10MOL   C313 3211   6.524   6.220   5.987  0.3191 -0.2724 -0.1401
   10MOL   C314 3212   6.876   6.303   5.968 -0.4670  0.1488  0.3524
   10MOL   H315 3213   6.744   6.155   5.884  0.9681 -0.4574  0.3920
   10MOL   H316 3214   6.759   6.267   6.222 -1.1788  1.6619  2.3638
   10MOL   H317 3215   6.562   6.315   6.362  0.1009  0.7208  0.1679
   10MOL   H318 3216   6.308   6.225   6.020  0.2577 -3.3693 -1.1992
   10MOL   H319 3217   6.509   6.190   5.884  0.7457  1.2681 -0.6558
   10MOL   H320 3218   6.960   6.274   5.905  0.7123  0.1936  1.8631
   10MOL   H321 3219   6.817   6.374   5.910  0.6116 -1.2742 -2.5623
   10MOL   H322 3220   6.911   6.346   6.063 -1.2318 -0.8027  1.0692
   11MOL     C1 3221   6.040   7.970   0.811 -0.6691 -0.3927  0.0627
   11MOL     C2 3222   6.169   7.894   0.810 -0.3733  0.3239  0.3446
   11MOL     C3 3223   6.232   7.861   0.932 -0.4697  0.0512 -1.0129
   11MOL     C4 3224   6.347   7.779   0.933  0.2284  0.6444 -0.6293
   11MOL     C5 3225   6.405   7.747   0.808 -0.3539 -0.3676 -0.2226
   11MOL    Cl6 3226   6.565   7.677   0.806  0.2396  0.3787 -0.0755
   11MOL     C7 3227   6.350   7.790   0.685 -0.6668 -0.4432 -0.3187
   11MOL     C8 3228   6.229   7.865   0.685 -0.2633  0.3737  0.4563
   11MOL     C9 3229   5.929   7.892   0.742  0.0780  0.5022  0.4415
   11MOL    H10 3230   6.070   8.063   0.762 -1.5919  0.5542  1.2426
   11MOL    H11 3231   6.187   7.891   1.026 -0.8411 -1.4343 -0.6975
   11MOL    H12 3232   6.397   7.751   1.025  1.5305  2.1247 -0.8611
   11MOL    H13 3233   6.409   7.781   0.595 -2.1722  1.8764 -1.6052
   11MOL    H14 3234   6.196   7.906   0.591 -2.9817 -0.6178  0.9498
   11MOL    H15 3235   5.840   7.954   0.725 -0.7111 -0.6751  0.1653
   11MOL    H16 3236   5.952   7.870   0.638 -1.7084 -2.5969  0.6382
   11MOL    H17 3237   6.012   7.997   0.913 -2.8790  1.2704 -0.9605
   11MOL    C18 3238   5.876   7.764   0.803  0.8462 -0.2396  0.3292
   11MOL    C19 3239   5.813   7.799   0.937  0.5525  0.4761 -0.0154
   11MOL    C20 3240   5.685   7.845   0.939 -0.2479  0.8846  0.0477
   11MOL    C21 3241   5.619   7.885   1.055  0.0988  0.1378 -0.5337
   11MOL    C22 3242   5.695   7.888   1.174  0.1976 -0.0435 -0.4420
   11MOL   Cl23 3243   5.628   7.960   1.318 -0.2474  0.1319 -0.3538
   11MOL    C24 3244   5.835   7.852   1.170 -0.2641 -0.1592 -0.0649
   11MOL    C25 3245   5.888   7.795   1.053 -0.6751 -0.1625 -0.2578
   11MOL    C26 3246   5.777   7.689   0.715 -0.4491  0.3132 -0.4001
   11MOL    H27 3247   5.959   7.698   0.829  1.2035 -0.0014 -0.2010
   11MOL    H28 3248   5.633   7.848   0.845 -1.6273 -1.5919  0.7056
   11MOL    H29 3249   5.516   7.916   1.066  0.7326  2.0859  0.1346
   11MOL    H30 3250   5.901   7.871   1.253 -0.6734 -0.0356  0.2296
   11MOL    H31 3251   5.992   7.765   1.053 -0.4918  0.4037  1.3996
   11MOL    H32 3252   5.712   7.613   0.757 -1.6607  2.1614  1.1550
   11MOL    H33 3253   5.708   7.755   0.662 -0.3130  1.0322  0.2991
   11MOL    C34 3254   5.838   7.608   0.598  0.6815 -0.5146  0.1041
   11MOL    C35 3255   5.942   7.509   0.640 -0.3112 -0.2925 -0.6354
   11MOL    C36 3256   5.908   7.400   0.717  0.0339 -0.6187 -0.3128
   11MOL    C37 3257   6.008   7.310   0.758  0.0393  0.0358  0.1857
   11MOL    C38 3258   6.144   7.332   0.737  0.0327 -0.1499 -0.0623
   11MOL   Cl39 3259   6.263   7.216   0.798  0.1069  0.4409  0.0442
   11MOL    C40 3260   6.176   7.443   0.663  0.1389 -0.2198  0.5755
   11MOL    C41 3261   6.079   7.529   0.611  0.3532  0.1703  0.2494
   11MOL    C42 3262   5.724   7.542   0.517 -0.0981 -0.9551  0.0588
   11MOL    H43 3263   5.882   7.687   0.538  1.6477 -0.8246  0.4063
   11MOL    H44 3264   5.807   7.400   0.756 -0.9961  0.2213 -2.8094
   11MOL    H45 3265   5.990   7.225   0.823 -0.1143 -0.7298 -0.8364
   11MOL    H46 3266   6.277   7.459   0.631  0.9018 -1.5934  2.2362
   11MOL    H47 3267   6.104   7.615   0.551  0.2007 -0.2200 -0.3672
   11MOL    H48 3268   5.683   7.467   0.584 -1.4180 -1.2994 -1.1128
   11MOL    H49 3269   5.650   7.621   0.503  0.5324 -0.1726  1.0905
   11MOL    C50 3270   5.770   7.471   0.386  0.0492 -0.7244  0.1137
   11MOL    C51 3271   5.680   7.347   0.350 -0.3435  0.0409  0.5453
   11MOL    C52 3272   5.732   7.218   0.376  0.3256 -0.0674  1.2272
   11MOL    C53 3273   5.664   7.111   0.328 -0.4580 -0.0020 -0.8565
   11MOL    C54 3274   5.542   7.120   0.254  0.4642  0.8821 -1.2813
   11MOL   Cl55 3275   5.446   6.988   0.193  0.3027 -0.0671  0.0408
   11MOL    C56 3276   5.485   7.246   0.238 -0.5198 -0.2282  0.2114
   11MOL    C57 3277   5.557   7.360   0.284  0.1461 -0.3806  0.0427
   11MOL    C58 3278   5.780   7.564   0.264  0.1950 -0.2169  0.5169
   11MOL    H59 3279   5.871   7.433   0.395  0.2509 -0.3321 -0.4851
   11MOL    H60 3280   5.827   7.205   0.427  0.1153  0.7196  1.8302
   11MOL    H61 3281   5.714   7.016   0.342 -1.7007 -0.4631  0.5154
   11MOL    H62 3282   5.386   7.264   0.199 -0.0147 -0.2100 -1.0980
   11MOL    H63 3283   5.511   7.455   0.260 -2.6641 -1.1577  2.1726
   11MOL    H64 3284   5.680   7.588   0.228  0.2124 -0.1669  0.5016
   11MOL    H65 3285   5.812   7.659   0.306 -1.2356 -0.3072  1.8522
   11MOL    C66 3286   5.876   7.518   0.140 -0.6695  0.2188 -0.0334
   11MOL    C67 3287   6.028   7.520   0.182 -1.2656  0.2102  0.2751
   11MOL    C68 3288   6.094   7.649   0.195  0.0856 -0.5204  0.0067
   11MOL    C69 3289   6.222   7.657   0.259 -0.0636  0.7416 -0.3444
   11MOL    C70 3290   6.292   7.544   0.299  0.0695 -0.1646  0.7332
   11MOL   Cl71 3291   6.437   7.568   0.389 -0.1490 -0.0610  0.4710
   11MOL    C72 3292   6.229   7.419   0.282  0.9035 -0.7507  0.1421
   11MOL    C73 3293   6.100   7.411   0.227  0.7510 -0.4249  0.8382
   11MOL    C74 3294   5.835   7.393   0.065  0.0691 -0.0926  0.2455
   11MOL    H75 3295   5.866   7.597   0.065  2.6990  0.6335 -0.1211
   11MOL    H76 3296   6.046   7.744   0.181 -0.6374 -0.6661  1.3538
   11MOL    H77 3297   6.276   7.749   0.274 -0.5319  0.7241  1.6834
   11MOL    H78 3298   6.275   7.330   0.324 -1.2663 -2.6205 -1.3160
   11MOL    H79 3299   6.047   7.317   0.228  1.4697 -0.8764 -0.9795
   11MOL    H80 3300   5.829   7.305   0.128 -0.2346 -0.9008 -0.9005
   11MOL    H81 3301   5.727   7.400   0.050 -0.2345  1.4397  2.8443
   11MOL    C82 3302   5.900   7.354   8.373 -0.4298  0.6693  0.0184
   11MOL    C83 3303   5.983   7.225   8.386  0.5252  0.1056 -0.1871
   11MOL    C84 3304   5.929   7.110   0.012  0.3312  1.5314  0.0989
   11MOL    C85 3305   6.013   6.995   0.027 -0.6323  0.0191 -0.1721
   11MOL    C86 3306   6.143   7.004   8.412  0.0530  1.0915 -0.1589
   11MOL   Cl87 3307   6.233   6.851   8.422 -0.0806  0.4266 -0.1285
   11MOL    C88 3308   6.195   7.119   8.348  0.0962 -0.3364 -0.0907
   11MOL    C89 3309   6.114   7.227   8.335  0.0580 -0.0105 -0.0417
   11MOL    C90 3310   5.802   7.336   8.249  0.7684  0.5238  0.3435
   11MOL    H91 3311   5.966   7.440   8.357  1.2111 -0.5547  0.0716
   11MOL    H92 3312   5.834   7.121   0.061  0.7809  0.7732  1.1602
   11MOL    H93 3313   5.980   6.912   0.088  3.6573  0.4600  3.0012
   11MOL    H94 3314   6.297   7.116   8.313 -0.7538 -1.7676 -2.5896
   11MOL    H95 3315   6.151   7.311   8.277 -0.8769 -1.3128 -2.5898
   11MOL    H96 3316   5.862   7.290   8.170  2.9658  2.9277  0.5385
   11MOL    H97 3317   5.724   7.266   8.280 -1.7276  1.1046 -4.0928
   11MOL    C98 3318   5.743   7.468   8.198  0.6147 -0.1175 -0.3149
   11MOL    C99 3319   5.846   7.562   8.154  0.0826  0.0815 -0.6652
   11MOL   C100 3320   5.863   7.682   8.227 -0.8195  0.3898 -0.0850
   11MOL   C101 3321   5.959   7.781   8.181 -0.0336  0.4588  0.2443
   11MOL   C102 3322   6.036   7.763   8.064 -0.4918 -0.2317  0.2095
   11MOL  Cl103 3323   6.162   7.879   8.011 -0.0779 -0.4680 -0.1965
   11MOL   C104 3324   6.017   7.639   7.996 -0.5591  0.2552 -0.1693
   11MOL   C105 3325   5.921   7.540   8.038  0.5510 -0.1830  0.3103
   11MOL   C106 3326   5.630   7.434   8.094 -0.0898 -0.2625  0.1745
   11MOL   H107 3327   5.696   7.516   8.283 -0.6145  0.3591 -1.2534
   11MOL   H108 3328   5.798   7.702   8.311 -1.7037  1.4427 -1.0070
   11MOL   H109 3329   5.973   7.872   8.236  0.1083  0.6936 -0.1804
   11MOL   H110 3330   6.069   7.614   7.905  2.5318 -1.3013  1.9312
   11MOL   H111 3331   5.917   7.450   7.978 -0.8556 -0.3305  0.6078
   11MOL   H112 3332   5.626   7.513   8.018 -0.0346 -0.4848 -0.0618
   11MOL   H113 3333   5.644   7.341   8.040  0.9760  0.7118 -1.2936
   11MOL   C114 3334   5.488   7.426   8.154 -0.0206 -0.7626 -0.5115
   11MOL   C115 3335   5.450   7.547   8.241  0.1601  0.0688 -0.4750
   11MOL   C116 3336   5.467   7.677   8.193  0.7457 -0.1081  0.0785
   11MOL   C117 3337   5.428   7.789   8.265  0.8777 -0.4459  0.1619
   11MOL   C118 3338   5.382   7.770   8.394 -0.2160  0.1505 -0.6926
   11MOL  Cl119 3339   5.320   7.898   0.044  0.2641  0.2265 -0.1914
   11MOL   C120 3340   5.387   7.642   0.012  1.1167  0.3413 -0.2099
   11MOL   C121 3341   5.405   7.531   8.375  0.1013  0.0058  0.9323
   11MOL   C122 3342   5.384   7.402   8.038 -0.5576 -0.1641 -0.1063
   11MOL   H123 3343   5.480   7.340   8.221 -0.9796 -1.4010 -1.4299
   11MOL   H124 3344   5.490   7.697   8.089  1.9056  0.3770  0.4128
   11MOL   H125 3345   5.436   7.891   8.229  0.8518 -0.4949  0.0198
   11MOL   H126 3346   5.361   7.627   0.116  1.2116 -0.5565 -0.3149
   11MOL   H127 3347   5.405   7.432   8.418 -3.7291 -1.5028 -2.2510
   11MOL   H128 3348   5.310   7.482   8.041  0.1413  0.5238 -0.8338
   11MOL   H129 3349   5.430   7.399   7.939 -0.9759 -0.9506 -0.2833
   11MOL   C130 3350   5.306   7.270   8.051 -0.8975 -0.3745  0.0715
   11MOL   C131 3351   5.229   7.248   8.178  0.5490  0.4991  0.1767
   11MOL   C132 3352   5.262   7.142   8.263 -0.3717  0.3376 -0.0868
   11MOL   C133 3353   5.176   7.104   8.367 -0.0823 -0.3307 -0.7325
   11MOL   C134 3354   5.062   7.179   8.391  0.4058 -0.2098 -0.0885
   11MOL  Cl135 3355   4.944   7.125   0.062  0.0528  0.2615 -0.2657
   11MOL   C136 3356   5.025   7.285   8.309  0.2252 -0.2565 -0.4840
   11MOL   C137 3357   5.108   7.315   8.201  0.5926  0.2619 -0.4014
   11MOL   C138 3358   5.217   7.245   7.927  0.1620  0.1336  0.1592
   11MOL   H139 3359   5.379   7.189   8.051 -0.5963 -0.1058 -1.1592
   11MOL   H140 3360   5.348   7.079   8.246  1.1858  1.6025  2.8403
   11MOL   H141 3361   5.209   7.019   8.424 -1.3226 -0.1360  0.2962
   11MOL   H142 3362   4.929   7.332   8.323  0.9519  1.4756 -1.2186
   11MOL   H143 3363   5.070   7.397   8.141 -0.2694 -0.3543 -0.7063
   11MOL   H144 3364   5.162   7.339   7.923  0.3775  0.2907  0.8317
   11MOL   H145 3365   5.278   7.232   7.838  0.3203  1.8986 -0.0055
   11MOL   C146 3366   5.114   7.129   7.937 -0.4290  0.2902  0.1712
   11MOL   C147 3367   5.012   7.149   7.830  0.6904 -0.6483 -0.1960
   11MOL   C148 3368   5.044   7.150   7.691 -0.0338  0.0245 -0.7857
   11MOL   C149 3369   4.945   7.173   7.595 -0.2624  0.0636 -0.0346
   11MOL   C150 3370   4.813   7.206   7.637 -0.3885  0.4493  0.2887
   11MOL  Cl151 3371   4.703   7.256   7.511 -0.4733 -0.2124  0.0582
   11MOL   C152 3372   4.779   7.210   7.772  0.8443  0.0082  0.2636
   11MOL   C153 3373   4.878   7.181   7.874  0.2456 -0.3259  0.1182
   11MOL   C154 3374   5.195   7.000   7.919 -0.3073  0.4818  0.6040
   11MOL   H155 3375   5.052   7.123   8.026 -0.3756  2.0028  0.3244
   11MOL   H156 3376   5.142   7.118   7.657 -1.0838 -3.0337 -1.0746
   11MOL   H157 3377   4.975   7.162   7.491 -1.1325  4.0920 -0.7669
   11MOL   H158 3378   4.675   7.222   7.798  0.5536 -1.0548 -0.4258
   11MOL   H159 3379   4.851   7.195   7.977 -1.0599  3.1272 -0.6033
   11MOL   H160 3380   5.242   6.994   7.820  0.0338  0.8959  0.7406
   11MOL   H161 3381   5.281   7.007   7.986 -1.6507 -1.2005  2.5566
   11MOL   C162 3382   5.113   6.869   7.940  0.3244  0.3593  0.3882
   11MOL   C163 3383   5.163   6.752   7.862  0.1832  0.8187 -0.3412
   11MOL   C164 3384   5.145   6.764   7.727 -0.0815  0.1589 -0.3606
   11MOL   C165 3385   5.165   6.652   7.646  0.7828  0.0027  0.0129
   11MOL   C166 3386   5.208   6.530   7.705 -0.2983 -0.4434 -0.5816
   11MOL  Cl167 3387   5.214   6.379   7.612  0.1179  0.2685 -0.0038
   11MOL   C168 3388   5.244   6.523   7.834  0.7951 -0.1378  0.7820
   11MOL   C169 3389   5.217   6.632   7.919 -0.4220 -0.2549 -0.5359
   11MOL   C170 3390   5.080   6.838   8.084 -0.6285 -0.2291 -0.7015
   11MOL   H171 3391   5.014   6.890   7.899 -0.4711  0.1661  2.1332
   11MOL   H172 3392   5.100   6.852   7.684  0.0938  0.2785 -0.2983
   11MOL   H173 3393   5.152   6.663   7.539 -1.0955  0.9068  0.3124
   11MOL   H174 3394   5.275   6.432   7.883  2.7745  0.4604  0.6554
   11MOL   H175 3395   5.237   6.618   8.024 -1.0874 -2.9698 -0.7342
   11MOL   H176 3396   5.164   6.790   8.133  1.1756  3.8076  0.3157
   11MOL   H177 3397   5.070   6.931   8.140 -1.6487 -1.2308  0.8125
   11MOL   C178 3398   4.963   6.744   8.115  0.5524  0.0747 -0.5468
   11MOL   C179 3399   4.974   6.682   8.252  0.4045  0.0505  0.2332
   11MOL   C180 3400   4.967   6.760   8.369  0.0622  0.0258  0.8101
   11MOL   C181 3401   4.994   6.706   0.048  0.3163  0.3823 -0.2711
   11MOL   C182 3402   5.030   6.572   0.063  0.4888  0.4265  0.1737
   11MOL  Cl183 3403   5.076   6.507   0.216  0.2787 -0.0806  0.0820
   11MOL   C184 3404   5.049   6.496   8.398 -0.2581 -0.3060 -0.1460
   11MOL   C185 3405   5.020   6.550   8.271 -0.4359 -0.2342 -0.5169
   11MOL   C186 3406   4.826   6.809   8.097  0.9210 -0.0630  0.0781
   11MOL   H187 3407   4.972   6.668   8.037 -1.2599 -0.7034 -0.0236
   11MOL   H188 3408   4.954   6.867   8.363  1.5627  0.1643 -0.4499
   11MOL   H189 3409   4.995   6.784   0.123  0.1664  0.3957 -0.2825
   11MOL   H190 3410   5.085   6.395   8.391 -0.7921 -0.5590  0.6687
   11MOL   H191 3411   5.038   6.481   8.190  1.2896 -2.3241  1.5843
   11MOL   H192 3412   4.793   6.853   8.191 -3.0881 -0.4138 -1.0782
   11MOL   H193 3413   4.844   6.891   8.027 -1.7035 -0.3646 -1.0102
   11MOL   C194 3414   4.719   6.711   8.047 -0.1449  0.4348 -0.5996
   11MOL   C195 3415   4.577   6.773   8.075 -0.6570 -0.5318  0.5443
   11MOL   C196 3416   4.535   6.892   8.016  0.4949  0.0976 -0.5151
   11MOL   C197 3417   4.402   6.934   8.017  0.6429  0.4127 -0.1766
   11MOL   C198 3418   4.309   6.859   8.092 -0.7112  0.2636  0.4697
   11MOL  Cl199 3419   4.153   6.928   8.122  0.1644  0.2745  0.0273
   11MOL   C200 3420   4.350   6.746   8.160 -0.3212  0.2348 -0.0396
   11MOL   C201 3421   4.482   6.698   8.150 -1.0538 -0.2471  0.0184
   11MOL   C202 3422   4.739   6.658   7.896 -0.2069  0.5368  0.1841
   11MOL   H203 3423   4.714   6.625   8.114  1.0769  0.8166 -0.0063
   11MOL   H204 3424   4.598   6.950   7.950  3.0161 -0.0959  1.6299
   11MOL   H205 3425   4.381   7.022   7.958 -0.6353 -1.3672 -2.4513
   11MOL   H206 3426   4.272   6.695   8.214 -1.2068 -1.0213 -2.4412
   11MOL   H207 3427   4.502   6.601   8.194  0.0662 -0.3539 -0.7209
   11MOL   H208 3428   4.684   6.703   7.813  1.1167 -0.1447 -1.0725
   11MOL   H209 3429   4.836   6.680   7.853 -1.1921 -1.4160 -3.1637
   11MOL   C210 3430   4.724   6.508   7.869 -0.0506 -0.8785 -0.2591
   11MOL   C211 3431   4.726   6.482   7.720 -0.4270  0.3203 -0.0880
   11MOL   C212 3432   4.849   6.500   7.649  0.3910 -0.1298 -0.2403
   11MOL   C213 3433   4.854   6.464   7.511 -0.4946 -0.4834  0.6422
   11MOL   C214 3434   4.743   6.419   7.443 -0.0656  0.1772  0.2995
   11MOL  Cl215 3435   4.743   6.367   7.273 -0.1634 -0.2186  0.0296
   11MOL   C216 3436   4.620   6.408   7.509 -0.2088  0.7958  0.0517
   11MOL   C217 3437   4.611   6.435   7.652 -0.0148  0.1999 -0.2950
   11MOL   C218 3438   4.819   6.418   7.953 -0.3669  0.1329 -0.9517
   11MOL   H219 3439   4.624   6.480   7.900 -0.1705 -0.1134  0.0472
   11MOL   H220 3440   4.929   6.534   7.712 -1.4444  0.7939  1.6533
   11MOL   H221 3441   4.948   6.462   7.457 -0.4368  0.9799  0.6534
   11MOL   H222 3442   4.533   6.370   7.456  1.6977 -0.8571 -1.9659
   11MOL   H223 3443   4.515   6.439   7.700 -0.1334 -0.6026 -0.4515
   11MOL   H224 3444   4.911   6.476   7.943 -1.1553  1.6623  0.3932
   11MOL   H225 3445   4.789   6.421   8.058  0.4711 -1.0843 -0.6676
   11MOL   C226 3446   4.858   6.265   7.912  0.3357  0.7274  0.5652
   11MOL   C227 3447   4.963   6.216   8.010 -0.0657  0.7147 -1.0584
   11MOL   C228 3448   5.097   6.223   7.972  0.1637  0.6800 -0.4728
   11MOL   C229 3449   5.189   6.180   8.070  0.4732  0.1318 -0.6636
   11MOL   C230 3450   5.146   6.143   8.204 -0.1313 -0.0664 -0.4875
   11MOL  Cl231 3451   5.269   6.091   8.322 -0.2057  0.6790  0.0623
   11MOL   C232 3452   5.015   6.139   8.242 -0.3912  0.1568 -0.9034
   11MOL   C233 3453   4.918   6.182   8.142  0.2337  0.4103 -0.6149
   11MOL   C234 3454   4.743   6.164   7.885 -0.2934 -0.2646  0.1456
   11MOL   H235 3455   4.907   6.268   7.815 -0.3786 -1.9309  0.0782
   11MOL   H236 3456   5.137   6.243   7.874  1.8816  1.1453  0.2980
   11MOL   H237 3457   5.293   6.176   8.039 -0.0550 -3.2537 -2.2751
   11MOL   H238 3458   4.995   6.103   8.342  0.8323  2.0603  0.0516
   11MOL   H239 3459   4.812   6.171   8.160  0.0908  0.1100 -1.5761
   11MOL   H240 3460   4.683   6.146   7.974  1.1695  1.1563  1.4592
   11MOL   H241 3461   4.680   6.221   7.816  1.9311  1.8824 -0.1957
   11MOL   C242 3462   4.772   6.021   7.827  0.1197  0.0528  0.1259
   11MOL   C243 3463   4.890   5.944   7.890 -0.2466  0.1129  0.1230
   11MOL   C244 3464   4.871   5.875   8.014  0.3319  0.3490  1.0550
   11MOL   C245 3465   4.974   5.799   8.075 -0.8710 -0.0278 -0.3366
   11MOL   C246 3466   5.103   5.805   8.027  0.0370  0.4498  0.0103
   11MOL  Cl247 3467   5.239   5.757   8.121 -0.2420  0.1494  0.3097
   11MOL   C248 3468   5.127   5.880   7.909 -0.4068  0.1069 -0.3738
   11MOL   C249 3469   5.020   5.940   7.834  0.1989 -0.1268  0.5375
   11MOL   C250 3470   4.643   5.933   7.823  0.3710 -0.0514  1.0197
   11MOL   H251 3471   4.788   6.030   7.720  1.2043  2.0528  0.4302
   11MOL   H252 3472   4.773   5.869   8.058  0.5517  2.2999  1.8401
   11MOL   H253 3473   4.957   5.751   8.170  0.5130  0.5128  0.1991
   11MOL   H254 3474   5.228   5.904   7.882 -0.1086  1.3171  1.7060
   11MOL   H255 3475   5.046   5.992   7.743 -0.1704 -1.1212 -0.1487
   11MOL   H256 3476   4.688   5.836   7.805 -0.0437 -0.3721  1.7065
   11MOL   H257 3477   4.608   5.925   7.926  1.2074 -0.7283  1.2528
   11MOL   C258 3478   4.535   5.957   7.718 -1.1261 -0.0830 -0.9156
   11MOL   C259 3479   4.579   5.942   7.573 -0.2249  0.0638  0.1269
   11MOL   C260 3480   4.569   6.046   7.484 -0.0016 -0.7846  0.9031
   11MOL   C261 3481   4.610   6.028   7.352  0.6410  0.0908 -0.0358
   11MOL   C262 3482   4.674   5.908   7.313  0.0139  0.8205  0.8134
   11MOL  Cl263 3483   4.745   5.884   7.155  0.3973 -0.4034 -0.1337
   11MOL   C264 3484   4.680   5.800   7.402 -0.6289  0.5905  0.8755
   11MOL   C265 3485   4.637   5.820   7.531 -0.0260  0.0818 -0.2013
   11MOL   C266 3486   4.411   5.872   7.737  0.5942  0.0806  0.1732
   11MOL   H267 3487   4.509   6.062   7.734 -0.0077  0.1048 -0.2963
   11MOL   H268 3488   4.519   6.138   7.511 -0.6414 -1.1961  1.1401
   11MOL   H269 3489   4.603   6.108   7.280 -0.1334 -0.6182 -0.7740
   11MOL   H270 3490   4.721   5.704   7.376  0.3941  1.5204 -1.0537
   11MOL   H271 3491   4.645   5.737   7.599  0.3122  0.0520 -0.2764
   11MOL   H272 3492   4.348   5.882   7.649  0.9111 -1.5417 -0.2483
   11MOL   H273 3493   4.442   5.768   7.747  1.1106  0.4787  3.3333
   11MOL   C274 3494   4.319   5.905   7.859 -0.1739 -0.5039  0.3108
   11MOL   C275 3495   4.302   6.057   7.883 -0.3005  0.3447  0.6694
   11MOL   C276 3496   4.222   6.136   7.795  0.8989 -0.1523 -0.1710
   11MOL   C277 3497   4.232   6.279   7.812  0.2001 -0.0380  0.3095
   11MOL   C278 3498   4.309   6.333   7.916 -0.1725 -0.4336 -0.9290
   11MOL  Cl279 3499   4.322   6.505   7.929 -0.3282  0.0964  0.5379
   11MOL   C280 3500   4.380   6.255   8.009 -0.8385 -0.0312  0.0969
   11MOL   C281 3501   4.372   6.116   7.988 -1.1070  0.0579  0.0860
   11MOL   C282 3502   4.187   5.835   7.851 -0.4547  0.0819  0.0226
   11MOL   H283 3503   4.367   5.865   7.948  0.0990 -0.5078  0.1650
   11MOL   H284 3504   4.161   6.086   7.722  1.3729 -0.6847 -0.1988
   11MOL   H285 3505   4.178   6.348   7.748 -0.9380 -0.8108  0.4350
   11MOL   H286 3506   4.432   6.310   8.086 -3.0381 -0.0513  1.6404
   11MOL   H287 3507   4.426   6.049   8.053 -0.9747 -0.0913 -0.1747
   11MOL   H288 3508   4.134   5.867   7.941  1.6048  0.4046  1.1314
   11MOL   H289 3509   4.130   5.868   7.764 -1.1424  1.0380  0.8086
   11MOL   C290 3510   4.190   5.682   7.845 -0.3804 -0.3373 -0.0619
   11MOL   C291 3511   4.285   5.616   7.948  0.5209  0.1039 -0.4883
   11MOL   C292 3512   4.398   5.538   7.905  0.2285  0.5966  0.2467
   11MOL   C293 3513   4.490   5.491   7.999 -0.6781 -0.4932  0.3883
   11MOL   C294 3514   4.481   5.525   8.137 -0.3271  0.2686  0.5857
   11MOL  Cl295 3515   4.588   5.461   8.255 -0.3383 -0.0807  0.0195
   11MOL   C296 3516   4.369   5.602   8.179 -0.4827  0.2610 -0.1482
   11MOL   C297 3517   4.264   5.636   8.090  0.0402  0.6617 -0.3974
   11MOL   C298 3518   4.049   5.621   7.855  0.7746  0.8343 -0.4590
   11MOL   H299 3519   4.228   5.652   7.748 -0.0182 -0.7266  0.1976
   11MOL   H300 3520   4.417   5.530   7.799 -1.1695 -0.4421  0.0628
   11MOL   H301 3521   4.571   5.431   7.960 -1.6828 -1.1844 -0.6715
   11MOL   H302 3522   4.365   5.626   8.284 -0.7830 -1.0070  0.1319
   11MOL   H303 3523   4.188   5.692   8.142 -1.5094 -1.8010  0.0716
   11MOL   H304 3524   4.011   5.656   7.951  1.3514  1.3318 -0.4064
   11MOL   H305 3525   3.983   5.670   7.784 -1.6158  0.6392  1.5844
   11MOL   C306 3526   4.048   5.469   7.832 -0.1513 -1.1545 -0.1369
   11MOL   C307 3527   3.955   5.390   7.927  0.2370 -0.8844 -0.8062
   11MOL   C308 3528   3.849   5.300   7.888 -0.1816  0.5833  0.5321
   11MOL   C309 3529   3.769   5.238   7.986  0.9313  0.1174  0.2314
   11MOL   C310 3530   3.778   5.260   8.123 -0.7409 -0.8146 -0.1310
   11MOL  Cl311 3531   3.660   5.197   8.231 -0.3322 -0.0169 -0.0737
   11MOL   C312 3532   3.882   5.348   8.165  0.2489 -0.6726 -0.5207
   11MOL   C313 3533   3.970   5.411   8.068  0.3863  0.3644  0.6600
   11MOL   C314 3534   4.024   5.429   7.686 -0.3715 -0.4252  0.4580
   11MOL   H315 3535   4.144   5.431   7.865 -1.1781  0.2203  4.8710
   11MOL   H316 3536   3.835   5.281   7.782 -1.7153 -1.2613  1.0381
   11MOL   H317 3537   3.696   5.177   7.936  2.9735 -1.1702 -1.2417
   11MOL   H318 3538   3.894   5.375   8.269 -2.6070 -0.6280 -0.1870
   11MOL   H319 3539   4.037   5.485   8.109 -0.0608  0.5119  1.1265
   11MOL   H320 3540   4.097   5.478   7.622 -0.8337 -0.1859  0.1133
   11MOL   H321 3541   4.045   5.323   7.671 -1.0811 -0.4809 -0.2066
   11MOL   H322 3542   3.926   5.445   7.642 -0.3139 -2.4926 -0.4829
   12MOL     C1 3543   8.134   4.139   4.986  0.7101  0.1472  0.3503
   12MOL     C2 3544   8.197   4.045   5.080 -0.3161 -0.0253 -0.8072
   12MOL     C3 3545   8.170   4.047   5.217 -0.1179  0.2300  0.2812
   12MOL     C4 3546   8.244   3.967   5.305 -0.2766  0.4672 -0.6378
   12MOL     C5 3547   8.347   3.883   5.259  0.3894  0.2257 -0.3153
   12MOL    Cl6 3548   8.440   3.792   5.369 -0.0690 -0.1537  0.0445
   12MOL     C7 3549   8.376   3.884   5.119  0.8447  0.6353 -0.0015
   12MOL     C8 3550   8.297   3.966   5.029  0.7498  0.5357 -0.1488
   12MOL     C9 3551   7.991   4.093   4.946 -0.7166  0.4595 -0.0139
   12MOL    H10 3552   8.204   4.155   4.905 -2.2342  0.6350 -2.1983
   12MOL    H11 3553   8.091   4.109   5.256  1.6880  1.5394  1.9219
   12MOL    H12 3554   8.220   3.968   5.411 -0.6951  1.6077 -0.7319
   12MOL    H13 3555   0.017   3.827   5.082  0.0698 -0.8578  0.4834
   12MOL    H14 3556   8.318   3.968   4.923  2.0548  0.1827  0.0959
   12MOL    H15 3557   8.005   4.008   4.879  0.8338  2.2101 -1.9464
   12MOL    H16 3558   7.928   4.056   5.027  0.3789 -0.8918  0.2453
   12MOL    H17 3559   8.135   4.235   5.039  2.8903  0.8478 -0.9163
   12MOL    C18 3560   7.914   4.197   4.864 -0.0242  0.2312  0.4565
   12MOL    C19 3561   7.798   4.124   4.789  0.6484 -0.2868 -0.0706
   12MOL    C20 3562   7.807   4.124   4.654 -0.0930  0.3915  0.3133
   12MOL    C21 3563   7.696   4.085   4.576 -0.1986 -0.1883 -0.4231
   12MOL    C22 3564   7.581   4.039   4.640  0.1421 -0.2682  0.4313
   12MOL   Cl23 3565   7.435   3.999   4.553 -0.1829 -0.1473 -0.3061
   12MOL    C24 3566   7.580   4.023   4.778  0.4867  0.1843  0.0290
   12MOL    C25 3567   7.688   4.067   4.855 -0.0651  0.0152  0.0115
   12MOL    C26 3568   7.859   4.304   4.958 -1.0885  0.3242  0.4276
   12MOL    H27 3569   7.980   4.240   4.789  0.2320  2.0955  1.7263
   12MOL    H28 3570   7.894   4.169   4.609  0.3710  0.7285  1.5358
   12MOL    H29 3571   7.701   4.096   4.469 -0.1865 -2.2446 -0.6630
   12MOL    H30 3572   7.487   3.983   4.815  0.8179 -1.7095 -1.1165
   12MOL    H31 3573   7.682   4.058   4.963  1.2257 -2.0534 -0.0541
   12MOL    H32 3574   7.794   4.257   5.032 -1.2716  1.6180  1.1010
   12MOL    H33 3575   7.941   4.347   5.016 -0.2922  0.0645 -0.4931
   12MOL    C34 3576   7.770   4.413   4.893 -0.5169  0.2222  0.5603
   12MOL    C35 3577   7.720   4.517   4.987  0.2728 -0.6280 -0.5988
   12MOL    C36 3578   7.807   4.624   5.034  1.1135  0.3405  0.5394
   12MOL    C37 3579   7.765   4.718   5.130 -0.1790 -0.7360 -0.2452
   12MOL    C38 3580   7.634   4.715   5.175  0.4132 -0.4405  0.3466
   12MOL   Cl39 3581   7.584   4.832   5.293  0.0922 -0.0025  0.0591
   12MOL    C40 3582   7.548   4.622   5.122 -0.5949  0.1942 -0.1844
   12MOL    C41 3583   7.586   4.524   5.026 -0.2919  0.2856 -0.3162
   12MOL    C42 3584   7.830   4.474   4.768  0.7907 -0.9183  0.6590
   12MOL    H43 3585   7.682   4.368   4.847  0.3019 -0.5877 -0.2295
   12MOL    H44 3586   7.911   4.624   5.002  0.6072 -1.0024 -1.2177
   12MOL    H45 3587   7.829   4.797   5.167 -0.6453  0.0303 -1.0580
   12MOL    H46 3588   7.446   4.607   5.156  0.0632 -0.6167  1.4897
   12MOL    H47 3589   7.514   4.454   4.986 -0.5082  0.1511  0.3047
   12MOL    H48 3590   7.904   4.542   4.808  1.5381  0.0514 -2.2345
   12MOL    H49 3591   7.873   4.405   4.696 -0.1069  1.4681 -2.2876
   12MOL    C50 3592   7.739   4.565   4.692 -0.1322 -0.3250 -0.2781
   12MOL    C51 3593   7.821   4.660   4.611 -0.1471 -0.3033  0.2981
   12MOL    C52 3594   7.893   4.770   4.672  0.9681  0.0957 -0.0214
   12MOL    C53 3595   7.984   4.858   4.598  0.7249  0.6711  0.0099
   12MOL    C54 3596   8.001   4.833   4.458  0.5714 -0.1573 -0.5317
   12MOL   Cl55 3597   8.086   4.937   4.362  0.5100 -0.0457  0.3177
   12MOL    C56 3598   7.924   4.735   4.396 -0.9208  1.0763  0.0640
   12MOL    C57 3599   7.833   4.652   4.468 -0.1127 -0.1717 -0.1878
   12MOL    C58 3600   7.625   4.499   4.619 -0.3543 -0.3284  0.0356
   12MOL    H59 3601   7.693   4.629   4.767  1.1787  0.3883 -0.0623
   12MOL    H60 3602   7.873   4.788   4.776 -1.2084 -1.0162 -0.2040
   12MOL    H61 3603   8.040   4.941   4.637 -0.2225  0.0726  2.8580
   12MOL    H62 3604   7.931   4.733   4.289  1.1327  1.8210  0.1807
   12MOL    H63 3605   7.770   4.586   4.411 -0.3059  0.3346 -0.5713
   12MOL    H64 3606   7.660   4.441   4.533 -1.7261  0.6653 -1.2095
   12MOL    H65 3607   7.587   4.413   4.674  1.1874 -0.7382  0.4856
   12MOL    C66 3608   7.508   4.584   4.569  0.2026 -0.4234  0.0032
   12MOL    C67 3609   7.439   4.523   4.446 -0.1225  0.2115 -0.1157
   12MOL    C68 3610   7.421   4.610   4.341  0.6773 -0.0501  0.7258
   12MOL    C69 3611   7.359   4.563   4.228  0.3483 -0.8852  0.4451
   12MOL    C70 3612   7.337   4.432   4.199  0.6038 -0.1737 -0.3803
   12MOL   Cl71 3613   7.278   4.380   4.047  0.2426 -0.5987 -0.1193
   12MOL    C72 3614   7.354   4.339   4.306 -0.3595 -0.2803 -0.5106
   12MOL    C73 3615   7.402   4.386   4.432  0.0426 -0.3271 -0.0227
   12MOL    C74 3616   7.407   4.599   4.681 -0.4654  0.4304  0.0492
   12MOL    H75 3617   7.553   4.682   4.553  0.9095 -0.7696 -0.1636
   12MOL    H76 3618   7.451   4.714   4.336 -0.0441  0.1202 -0.1460
   12MOL    H77 3619   7.339   4.641   4.156  1.9700 -0.8535  0.0171
   12MOL    H78 3620   7.343   4.232   4.293 -0.5526 -0.9647  4.3082
   12MOL    H79 3621   7.386   4.329   4.523 -3.9400  1.4454  0.4992
   12MOL    H80 3622   7.323   4.531   4.667  0.3029 -0.4411 -0.3922
   12MOL    H81 3623   7.446   4.588   4.782 -1.0671 -1.9039  0.0698
   12MOL    C82 3624   7.345   4.740   4.684 -0.5218 -0.3771  0.2483
   12MOL    C83 3625   7.203   4.733   4.739 -0.2962 -0.5938 -0.9026
   12MOL    C84 3626   7.093   4.727   4.655 -0.0365 -0.5382  0.5986
   12MOL    C85 3627   6.961   4.704   4.700 -0.4531  0.7457 -0.5850
   12MOL    C86 3628   6.928   4.702   4.839 -0.2095 -0.3434 -0.1537
   12MOL   Cl87 3629   6.763   4.683   4.892 -0.1003 -0.1726  0.1349
   12MOL    C88 3630   7.041   4.717   4.923 -0.6356 -0.0213 -0.4110
   12MOL    C89 3631   7.175   4.735   4.876  1.3962  0.0876 -0.4044
   12MOL    C90 3632   7.444   4.843   4.750  0.4644 -0.6662 -0.3712
   12MOL    H91 3633   7.335   4.777   4.582 -1.2084  0.1256  0.4956
   12MOL    H92 3634   7.114   4.731   4.549 -0.0792  0.8619  0.6322
   12MOL    H93 3635   6.882   4.693   4.627 -0.3220 -1.3059 -0.4435
   12MOL    H94 3636   7.017   4.714   5.029  3.5185  3.0858  0.7632
   12MOL    H95 3637   7.250   4.736   4.954  0.2145 -0.3775  0.7651
   12MOL    H96 3638   7.441   4.826   4.858 -2.0383  1.8819  0.0336
   12MOL    H97 3639   7.547   4.838   4.716  0.7008  0.3368  0.1514
   12MOL    C98 3640   7.387   4.990   4.743 -0.1077  0.7059 -0.7040
   12MOL    C99 3641   7.418   5.072   4.863 -1.0612 -0.1989 -0.4696
   12MOL   C100 3642   7.327   5.167   4.921  1.1992 -0.5848 -0.0864
   12MOL   C101 3643   7.363   5.238   5.028  0.4950 -0.0650 -1.0926
   12MOL   C102 3644   7.485   5.214   5.094 -0.1784 -0.2744 -0.6254
   12MOL  Cl103 3645   7.519   5.313   5.236  0.2677  0.3104 -0.0307
   12MOL   C104 3646   7.581   5.126   5.041 -0.3708  0.5362  0.0808
   12MOL   C105 3647   7.550   5.057   4.920 -0.6973 -0.3670 -0.1245
   12MOL   C106 3648   7.424   5.069   4.614 -0.3998 -0.1890 -0.1741
   12MOL   H107 3649   7.280   4.973   4.745  0.1548 -1.0431 -0.9653
   12MOL   H108 3650   7.229   5.175   4.874  0.5876 -1.6511  0.9783
   12MOL   H109 3651   7.295   5.310   5.071 -0.1579 -1.1215 -0.3229
   12MOL   H110 3652   7.680   5.120   5.084 -0.2682  2.0430  0.0968
   12MOL   H111 3653   7.624   4.993   4.873  0.1400 -0.3484  1.1422
   12MOL   H112 3654   7.394   5.172   4.637  1.3177  0.2500  0.1864
   12MOL   H113 3655   7.531   5.080   4.603 -0.0120 -0.7067  2.7155
   12MOL   C114 3656   7.354   5.030   4.481 -0.1799 -0.5658  0.4442
   12MOL   C115 3657   7.207   5.010   4.482  0.2050 -0.1045  0.9091
   12MOL   C116 3658   7.119   5.066   4.573 -0.4016 -0.5246 -0.3044
   12MOL   C117 3659   6.984   5.030   4.570  0.1005  0.1100 -0.2863
   12MOL   C118 3660   6.932   4.957   4.460  0.2944  0.0133 -0.4639
   12MOL  Cl119 3661   6.760   4.916   4.456  0.1668  0.1072 -0.2264
   12MOL   C120 3662   7.022   4.901   4.368 -0.1283  0.0668 -0.4753
   12MOL   C121 3663   7.154   4.931   4.379 -0.5993  0.1864 -0.0225
   12MOL   C122 3664   7.397   5.134   4.369 -0.5779  0.3839 -0.5184
   12MOL   H123 3665   7.402   4.936   4.454  2.7406  0.2428  2.6395
   12MOL   H124 3666   7.163   5.127   4.650 -0.0300  2.7477 -3.0041
   12MOL   H125 3667   6.916   5.067   4.645  0.8067  0.6498  0.0923
   12MOL   H126 3668   6.989   4.838   4.287  0.8081 -1.2114  0.1268
   12MOL   H127 3669   7.228   4.897   4.308  0.2859  1.2212  0.3930
   12MOL   H128 3670   7.318   5.147   4.295 -2.0610 -0.6720  0.8671
   12MOL   H129 3671   7.404   5.230   4.420 -0.6206  0.8900 -1.4583
   12MOL   C130 3672   7.534   5.109   4.305 -0.8771 -0.3537  0.2055
   12MOL   C131 3673   7.535   4.997   4.212 -0.2928 -0.0384  0.5643
   12MOL   C132 3674   7.457   4.983   4.095 -0.0104 -0.1978 -0.3961
   12MOL   C133 3675   7.485   4.881   3.999 -0.0920  0.3476  1.0544
   12MOL   C134 3676   7.592   4.794   4.009 -0.4079 -0.3015  0.1425
   12MOL  Cl135 3677   7.628   4.685   3.879  0.0741 -0.1863 -0.1686
   12MOL   C136 3678   7.663   4.801   4.128 -0.4160 -0.9893 -0.4345
   12MOL   C137 3679   7.637   4.901   4.224  0.3377 -0.9479 -0.4393
   12MOL   C138 3680   7.585   5.234   4.236  0.7374 -0.2328 -0.3880
   12MOL   H139 3681   7.611   5.090   4.380 -0.9332  3.2943  1.2805
   12MOL   H140 3682   7.388   5.061   4.066 -1.3135 -1.1549  0.0825
   12MOL   H141 3683   7.430   4.881   3.906  0.3882 -1.2261  0.7604
   12MOL   H142 3684   7.745   4.733   4.145  0.2728 -0.2899 -0.8769
   12MOL   H143 3685   7.698   4.914   4.312 -1.2814  1.7182  0.3518
   12MOL   H144 3686   7.684   5.209   4.198  1.3397 -1.7741  2.0720
   12MOL   H145 3687   7.524   5.261   4.150  1.0794  1.0992 -0.2259
   12MOL   C146 3688   7.617   5.357   4.336  0.3716  0.9018 -0.4406
   12MOL   C147 3689   7.701   5.319   4.455 -0.2387 -0.1687 -0.0988
   12MOL   C148 3690   7.658   5.348   4.582  0.0712 -0.0590 -0.0318
   12MOL   C149 3691   7.729   5.305   4.694  0.1906  0.2697  0.0389
   12MOL   C150 3692   7.851   5.232   4.677  0.3263 -0.0312 -0.2099
   12MOL  Cl151 3693   7.946   5.183   4.810 -0.3457 -0.2311 -0.2182
   12MOL   C152 3694   7.892   5.203   4.546 -0.2042 -0.1585  0.0850
   12MOL   C153 3695   7.822   5.253   4.432  0.4514  0.4571 -0.0466
   12MOL   C154 3696   7.675   5.492   4.271  0.1453  0.3629 -0.9042
   12MOL   H155 3697   7.522   5.381   4.384 -1.2828 -1.7323 -2.2740
   12MOL   H156 3698   7.559   5.385   4.600 -1.1556 -4.3454  2.8089
   12MOL   H157 3699   7.701   5.346   4.790  2.0911 -4.0207  2.5984
   12MOL   H158 3700   7.980   5.147   4.517 -0.2961  0.3681 -1.2604
   12MOL   H159 3701   7.861   5.223   4.336  2.3275  0.2773  0.7681
   12MOL   H160 3702   7.586   5.552   4.253 -2.6648 -3.0220  1.0979
   12MOL   H161 3703   7.726   5.540   4.354  1.3606 -0.3667 -1.2152
   12MOL   C162 3704   7.774   5.480   4.155 -0.6930  0.3786 -0.8854
   12MOL   C163 3705   7.710   5.440   4.021  0.2266 -0.4251  0.2765
   12MOL   C164 3706   7.776   5.349   3.938  0.3792 -0.3403  0.2450
   12MOL   C165 3707   7.732   5.330   3.805  0.1648 -0.1120  1.1366
   12MOL   C166 3708   7.620   5.400   3.762  0.4358  0.0677 -0.3084
   12MOL  Cl167 3709   7.575   5.379   3.595  0.0463  0.2058 -0.2773
   12MOL   C168 3710   7.553   5.496   3.842 -0.3063 -0.4365  0.6455
   12MOL   C169 3711   7.601   5.520   3.971 -0.1856 -0.3723  0.3191
   12MOL   C170 3712   7.875   5.595   4.152 -0.2579 -0.4180  0.5737
   12MOL   H171 3713   7.838   5.395   4.180 -0.5939  0.6009 -0.3773
   12MOL   H172 3714   7.873   5.306   3.957 -0.4623 -2.3813  0.1331
   12MOL   H173 3715   7.778   5.253   3.745 -0.7447 -0.3733  0.7646
   12MOL   H174 3716   7.470   5.555   3.807  2.0149  1.3341 -2.1019
   12MOL   H175 3717   7.552   5.595   4.031 -1.0529  1.0392 -2.0674
   12MOL   H176 3718   7.933   5.573   4.063  0.3274 -0.8465  1.0596
   12MOL   H177 3719   7.821   5.687   4.130 -1.0932 -1.2306 -0.8679
   12MOL   C178 3720   7.965   5.627   4.269  0.4693 -0.3047 -0.5102
   12MOL   C179 3721   8.046   5.509   4.322  0.1281  0.8433  0.1798
   12MOL   C180 3722   8.100   5.413   4.235  0.2013  0.9777 -0.2763
   12MOL   C181 3723   8.187   5.310   4.288  0.1456 -0.3300  0.4942
   12MOL   C182 3724   8.207   5.302   4.425 -1.1724  0.1036  0.3606
   12MOL  Cl183 3725   8.309   5.185   4.491 -0.1810 -0.2868 -0.3493
   12MOL   C184 3726   8.151   5.398   4.510 -0.3975 -0.3196 -0.9196
   12MOL   C185 3727   8.073   5.500   4.457  0.3524  0.3365  0.1305
   12MOL   C186 3728   8.055   5.739   4.216  0.0894 -0.2602  0.4640
   12MOL   H187 3729   7.893   5.665   4.341 -0.8717  2.0777 -2.9694
   12MOL   H188 3730   8.079   5.416   4.129  0.4536  0.4357 -0.3434
   12MOL   H189 3731   8.228   5.242   4.216  0.8744  1.2297 -0.6008
   12MOL   H190 3732   8.172   5.399   4.616  2.4403 -1.9997 -1.4318
   12MOL   H191 3733   8.026   5.572   4.523  0.3021  0.1546  0.2916
   12MOL   H192 3734   8.124   5.699   4.141 -0.0330 -0.2330  0.3373
   12MOL   H193 3735   7.995   5.809   4.158 -1.0262 -2.1327 -0.6773
   12MOL   C194 3736   8.139   5.811   4.332  0.3020 -0.0502  0.0920
   12MOL   C195 3737   8.247   5.893   4.269 -0.1228 -0.1941  0.7396
   12MOL   C196 3738   8.381   5.836   4.267 -0.4875 -0.0466  0.1570
   12MOL   C197 3739   0.049   5.904   4.218  0.4191  0.9604  0.0754
   12MOL   C198 3740   0.031   6.028   4.153  0.2272  0.7373 -0.4523
   12MOL  Cl199 3741   0.169   6.118   4.104  0.1294  0.2960  0.1964
   12MOL   C200 3742   8.341   6.079   4.130 -0.0530 -0.7478  0.2289
   12MOL   C201 3743   8.230   6.014   4.193 -0.2795  0.2615  0.2405
   12MOL   C202 3744   8.055   5.898   4.424 -0.5014 -0.2582 -0.5342
   12MOL   H203 3745   8.182   5.730   4.391  2.4718  0.7433 -0.3808
   12MOL   H204 3746   8.410   5.751   4.326 -2.2176 -0.1886  0.8272
   12MOL   H205 3747   0.152   5.874   4.224  0.1316 -0.5671 -2.1582
   12MOL   H206 3748   8.329   6.177   4.089 -2.8906 -1.8978 -1.8227
   12MOL   H207 3749   8.132   6.058   4.182 -0.2001  0.4596  0.3142
   12MOL   H208 3750   8.044   5.993   4.372 -0.7647 -0.1628 -0.3079
   12MOL   H209 3751   7.953   5.864   4.445 -0.2901 -0.4487  0.2259
   12MOL   C210 3752   8.106   5.928   4.565  0.2655 -0.5182  0.8920
   12MOL   C211 3753   8.255   5.943   4.574  0.1547 -0.2305 -0.5199
   12MOL   C212 3754   8.334   5.846   4.641 -0.1204 -0.1670  0.1368
   12MOL   C213 3755   0.035   5.857   4.650  0.7790 -0.4589 -0.2071
   12MOL   C214 3756   0.101   5.959   4.572  0.4776  0.4504 -1.1970
   12MOL  Cl215 3757   0.276   5.979   4.570 -0.3284 -0.0504  0.2186
   12MOL   C216 3758   0.025   6.064   4.521  0.2968 -0.4447  0.0928
   12MOL   C217 3759   8.326   6.058   4.526  0.1467  0.5820 -0.0279
   12MOL   C218 3760   8.047   6.047   4.636 -0.0946  0.3202 -0.0629
   12MOL   H219 3761   8.074   5.840   4.621 -1.7152 -0.0504  0.5330
   12MOL   H220 3762   8.282   5.755   4.666  1.1958 -1.3475 -1.3239
   12MOL   H221 3763   0.093   5.786   4.706  0.0817 -0.8099  0.0839
   12MOL   H222 3764   0.073   6.151   4.479 -2.4458  0.2886 -1.6118
   12MOL   H223 3765   8.272   6.139   4.479 -0.3205  0.0904 -0.3537
   12MOL   H224 3766   8.077   6.055   4.740  0.9590  0.4965 -0.3731
   12MOL   H225 3767   8.087   6.135   4.585  0.5182 -0.6100 -1.2168
   12MOL   C226 3768   7.894   6.048   4.620 -0.4788 -0.1832  0.0054
   12MOL   C227 3769   7.825   5.928   4.691  0.2063  0.0458 -0.6099
   12MOL   C228 3770   7.738   5.845   4.624 -0.2861  0.0046 -0.0955
   12MOL   C229 3771   7.675   5.736   4.688  1.2070 -0.4407  0.0041
   12MOL   C230 3772   7.696   5.716   4.826 -0.6632 -0.4179  0.4383
   12MOL  Cl231 3773   7.618   5.587   4.911 -0.0296 -0.3045 -0.1827
   12MOL   C232 3774   7.787   5.792   4.894  0.0264 -0.2137  0.1182
   12MOL   C233 3775   7.845   5.903   4.830 -0.5182 -0.0756  0.6847
   12MOL   C234 3776   7.833   6.185   4.660  0.4725 -0.1997 -0.0110
   12MOL   H235 3777   7.865   6.043   4.515  0.7133  0.8043 -0.3806
   12MOL   H236 3778   7.709   5.868   4.523 -1.1333  1.1745  0.4008
   12MOL   H237 3779   7.613   5.664   4.636 -0.0229 -0.2534  1.1878
   12MOL   H238 3780   7.804   5.774   4.999  0.6383  1.9028  0.3985
   12MOL   H239 3781   7.915   5.964   4.885  0.6123 -1.9571  1.3840
   12MOL   H240 3782   7.870   6.187   4.763 -1.7126 -0.9995  0.8305
   12MOL   H241 3783   7.896   6.262   4.617 -1.1791  1.6964  0.9165
   12MOL   C242 3784   7.675   6.211   4.643 -0.5158  0.2487 -0.2745
   12MOL   C243 3785   7.628   6.312   4.747 -0.1647 -0.3082  0.1149
   12MOL   C244 3786   7.520   6.284   4.828  0.9299 -0.3496  0.2567
   12MOL   C245 3787   7.472   6.374   4.926 -0.3659 -0.2770 -0.5756
   12MOL   C246 3788   7.529   6.509   4.916  0.0206  0.0959 -0.3711
   12MOL  Cl247 3789   7.457   6.627   5.017  0.1803 -0.1357  0.2097
   12MOL   C248 3790   7.630   6.540   4.825  0.4894 -0.4914  0.0699
   12MOL   C249 3791   7.692   6.442   4.746 -0.0029 -0.3428  0.9284
   12MOL   C250 3792   7.637   6.243   4.497  0.2366  0.3781 -0.1092
   12MOL   H251 3793   7.618   6.121   4.671  0.3289  0.4737  2.3634
   12MOL   H252 3794   7.474   6.187   4.833 -1.1647  0.5191 -1.6003
   12MOL   H253 3795   7.399   6.352   5.002 -0.5398 -3.2136 -1.5557
   12MOL   H254 3796   7.660   6.643   4.810 -3.3370  0.9973  1.8483
   12MOL   H255 3797   7.773   6.466   4.678 -0.9354  2.1104  0.6300
   12MOL   H256 3798   7.697   6.331   4.474 -2.8587  2.2122 -1.4490
   12MOL   H257 3799   7.663   6.167   4.424 -0.6075  0.3556 -0.3883
   12MOL   C258 3800   7.482   6.269   4.462  0.2641 -0.4588  0.3974
   12MOL   C259 3801   7.454   6.362   4.339 -0.1596  0.3780 -0.3726
   12MOL   C260 3802   7.426   6.502   4.350  0.1192 -0.3405  0.2952
   12MOL   C261 3803   7.425   6.578   4.228 -0.5099 -0.1822  0.5600
   12MOL   C262 3804   7.445   6.517   4.109 -0.1325 -0.1399  0.6670
   12MOL  Cl263 3805   7.445   6.611   3.965  0.4609  0.1673  0.1115
   12MOL   C264 3806   7.461   6.377   4.097  1.0538 -0.1008  0.2557
   12MOL   C265 3807   7.464   6.302   4.211 -0.3440 -0.7606 -0.1090
   12MOL   C266 3808   7.399   6.141   4.465  0.2863 -0.1275  1.0365
   12MOL   H267 3809   7.454   6.333   4.546  2.0023  0.7654  0.0618
   12MOL   H268 3810   7.398   6.547   4.444 -0.0797  0.9482 -0.3781
   12MOL   H269 3811   7.395   6.682   4.232 -0.0549 -0.0597  0.7951
   12MOL   H270 3812   7.460   6.322   4.004  1.8846 -1.2711  0.9248
   12MOL   H271 3813   7.468   6.196   4.191  0.2654 -0.6208 -0.7554
   12MOL   H272 3814   7.387   6.095   4.367  1.5795  0.6147  0.5081
   12MOL   H273 3815   7.457   6.062   4.514 -0.1435 -1.1163 -0.0373
   12MOL   C274 3816   7.268   6.155   4.540  0.3363 -1.4416 -0.1712
   12MOL   C275 3817   7.176   6.265   4.491 -0.4442 -0.5588  0.0639
   12MOL   C276 3818   7.158   6.297   4.352 -0.0553 -0.0364  0.5486
   12MOL   C277 3819   7.065   6.403   4.313 -0.3672  0.9702  0.4889
   12MOL   C278 3820   6.992   6.471   4.417  0.2954 -0.2864 -0.2840
   12MOL  Cl279 3821   6.865   6.568   4.363 -0.1153  0.1029  0.2733
   12MOL   C280 3822   7.007   6.435   4.545  0.3406 -0.3446  0.7949
   12MOL   C281 3823   7.092   6.330   4.583  0.4765  0.3370 -0.0585
   12MOL   C282 3824   7.194   6.018   4.552 -0.1553 -0.5203 -0.1123
   12MOL   H283 3825   7.301   6.174   4.642  2.1642  2.2596 -1.3409
   12MOL   H284 3826   7.220   6.249   4.278 -0.0499 -0.1234  0.6097
   12MOL   H285 3827   7.056   6.434   4.210  0.6780  0.8918  0.3766
   12MOL   H286 3828   6.949   6.493   4.615  1.1474  0.6585  0.6354
   12MOL   H287 3829   7.105   6.303   4.687  0.8748 -3.2520 -0.9805
   12MOL   H288 3830   7.263   5.945   4.594  1.1540  0.5938 -0.3067
   12MOL   H289 3831   7.116   6.007   4.627  2.0349  0.4096  2.3842
   12MOL   C290 3832   7.116   5.968   4.420  0.1551  0.3618 -0.1784
   12MOL   C291 3833   7.115   5.815   4.403  0.2073 -0.1763  0.5263
   12MOL   C292 3834   7.022   5.737   4.479  0.9757 -0.8910 -0.0687
   12MOL   C293 3835   7.008   5.602   4.451  0.3175 -0.7163  0.7522
   12MOL   C294 3836   7.092   5.546   4.355 -1.4069  0.3711  0.3245
   12MOL  Cl295 3837   7.075   5.379   4.332  0.0009 -0.3211  0.0116
   12MOL   C296 3838   7.186   5.616   4.281 -0.3077 -0.3437  0.9321
   12MOL   C297 3839   7.200   5.756   4.306 -0.0609  0.8047  0.0990
   12MOL   C298 3840   6.970   6.014   4.399  0.1151  0.3062 -0.8520
   12MOL   H299 3841   7.168   6.002   4.330  0.6655  1.3647  0.4826
   12MOL   H300 3842   6.960   5.784   4.554 -0.3477 -0.0378 -1.6624
   12MOL   H301 3843   6.924   5.549   4.494 -0.3858 -0.3789 -0.1930
   12MOL   H302 3844   7.255   5.568   4.213 -0.8752  0.3929 -0.1855
   12MOL   H303 3845   7.273   5.813   4.251  0.1193  1.4817  1.0426
   12MOL   H304 3846   6.904   5.975   4.476  2.1832 -1.4587  0.0951
   12MOL   H305 3847   6.970   6.122   4.410 -2.1465  0.4746 -2.2505
   12MOL   C306 3848   6.899   5.978   4.271  0.8045  1.0219  0.1989
   12MOL   C307 3849   6.753   6.031   4.266 -0.2732  0.5422  0.2899
   12MOL   C308 3850   6.648   5.952   4.212 -1.3247  0.2091  0.2553
   12MOL   C309 3851   6.516   6.002   4.195  0.7128 -0.6035 -0.2273
   12MOL   C310 3852   6.496   6.138   4.228 -0.5944 -0.6805 -0.1421
   12MOL  Cl311 3853   6.349   6.221   4.190  0.4434  0.0077  0.2252
   12MOL   C312 3854   6.603   6.212   4.296  0.1399 -0.3180  0.2115
   12MOL   C313 3855   6.732   6.160   4.315 -0.0147  0.4859  0.1144
   12MOL   C314 3856   6.973   6.033   4.146 -0.5495  0.4002 -0.0292
   12MOL   H315 3857   6.885   5.870   4.277  1.4931  0.9476  0.5403
   12MOL   H316 3858   6.670   5.850   4.186 -1.0550  0.7906 -1.9374
   12MOL   H317 3859   6.432   5.949   4.153 -2.2816  2.4818  1.5562
   12MOL   H318 3860   6.581   6.315   4.321  0.4274  0.2957 -1.9741
   12MOL   H319 3861   6.817   6.222   4.342 -0.3871  1.6545 -1.3547
   12MOL   H320 3862   7.059   5.968   4.133 -2.5675 -1.7800 -2.9600
   12MOL   H321 3863   6.911   6.019   4.058 -0.7935 -0.5073  0.2806
   12MOL   H322 3864   6.988   6.141   4.148 -0.5594  0.4044 -0.2100
   13MOL     C1 3865   4.569   5.273   1.868  0.9914  0.0688  0.8253
   13MOL     C2 3866   4.709   5.217   1.847  0.3038 -0.2553 -0.7016
   13MOL     C3 3867   4.732   5.138   1.731 -0.1440  0.4311 -0.4608
   13MOL     C4 3868   4.859   5.088   1.701 -0.4249 -0.8736  0.0593
   13MOL     C5 3869   4.962   5.106   1.790  0.5671  0.7709  0.0495
   13MOL    Cl6 3870   5.116   5.023   1.761  0.2350 -0.0440  0.3023
   13MOL     C7 3871   4.947   5.193   1.898  0.2105 -0.1811 -0.7958
   13MOL     C8 3872   4.823   5.248   1.933 -0.5627  0.1439 -0.2482
   13MOL     C9 3873   4.556   5.408   1.778 -0.7649 -0.4663  0.4900
   13MOL    H10 3874   4.550   5.294   1.973 -3.0147 -0.9002  0.3572
   13MOL    H11 3875   4.644   5.112   1.675 -0.3336  2.2538 -1.0416
   13MOL    H12 3876   4.877   5.028   1.613 -0.1982  0.8105 -1.0696
   13MOL    H13 3877   5.036   5.218   1.954 -1.2855 -0.6730  1.8904
   13MOL    H14 3878   4.816   5.301   2.026 -3.7785 -1.5345  0.5536
   13MOL    H15 3879   4.620   5.479   1.830 -1.0246  0.1825 -0.0676
   13MOL    H16 3880   4.598   5.390   1.679 -0.3674 -1.2817  0.8094
   13MOL    H17 3881   4.501   5.194   1.838 -0.2577  1.9586 -1.5110
   13MOL    C18 3882   4.408   5.469   1.762 -0.4492  0.7745 -0.4173
   13MOL    C19 3883   4.326   5.465   1.887 -0.1913  0.7067  0.2107
   13MOL    C20 3884   4.211   5.381   1.899 -0.3121 -0.6260  0.0680
   13MOL    C21 3885   4.148   5.367   2.029 -0.2202 -0.0054 -0.1803
   13MOL    C22 3886   4.195   5.435   2.144 -0.0446  0.9610  0.3124
   13MOL   Cl23 3887   4.115   5.429   2.294  0.3882 -0.1545 -0.3283
   13MOL    C24 3888   4.315   5.515   2.128  0.1376  0.4584  0.1117
   13MOL    C25 3889   4.380   5.523   2.002 -0.2302 -0.2464 -0.4847
   13MOL    C26 3890   4.406   5.606   1.685  0.5193 -0.0783  0.0797
   13MOL    H27 3891   4.364   5.395   1.694 -0.1787 -1.7821  2.0930
   13MOL    H28 3892   4.169   5.335   1.811 -0.8494 -1.7677  0.9013
   13MOL    H29 3893   4.061   5.303   2.037 -0.9753  0.9393 -0.8100
   13MOL    H30 3894   4.353   5.566   2.216 -0.9289  0.8191  0.3679
   13MOL    H31 3895   4.474   5.574   1.991 -0.7138  0.7349 -0.2069
   13MOL    H32 3896   4.454   5.680   1.749 -2.1820  1.6546  0.1592
   13MOL    H33 3897   4.464   5.609   1.593  0.4263 -0.2135  0.0155
   13MOL    C34 3898   4.262   5.659   1.651  0.4354  0.3591 -0.8685
   13MOL    C35 3899   4.261   5.814   1.634  0.1237 -0.3814  0.7233
   13MOL    C36 3900   4.295   5.897   1.739  0.0464  0.1333  0.3473
   13MOL    C37 3901   4.308   6.036   1.728 -0.1832  0.6273 -0.1524
   13MOL    C38 3902   4.310   6.090   1.598 -0.2606  0.3086  0.3412
   13MOL   Cl39 3903   4.340   6.264   1.589 -0.0765  0.1761 -0.3711
   13MOL    C40 3904   4.283   6.014   1.485  0.5077 -0.0042 -0.5877
   13MOL    C41 3905   4.259   5.876   1.505  0.6484 -0.2630 -0.2575
   13MOL    C42 3906   4.194   5.584   1.532 -0.0868  0.3054  0.5252
   13MOL    H43 3907   4.204   5.645   1.743  0.0727 -1.0052 -1.2833
   13MOL    H44 3908   4.306   5.845   1.833  1.4848 -0.4093 -0.1181
   13MOL    H45 3909   4.333   6.100   1.810 -1.8932 -0.9670  1.6647
   13MOL    H46 3910   4.289   6.044   1.381  0.9570 -1.7002 -1.0772
   13MOL    H47 3911   4.239   5.821   1.414  2.9188 -1.4700 -0.0778
   13MOL    H48 3912   4.264   5.601   1.449 -1.0138  0.7195 -0.1773
   13MOL    H49 3913   4.205   5.478   1.555 -0.1938 -0.1057 -1.2712
   13MOL    C50 3914   4.052   5.608   1.492 -0.3543 -0.6488  0.7744
   13MOL    C51 3915   4.037   5.520   1.369  0.2063  0.1629 -0.5551
   13MOL    C52 3916   3.999   5.385   1.368 -0.0615  0.1527  0.4503
   13MOL    C53 3917   4.004   5.313   1.253  0.0991  0.1706 -0.0115
   13MOL    C54 3918   4.023   5.380   1.128  0.0231  0.1751  0.3790
   13MOL   Cl55 3919   4.018   5.294   0.976 -0.0588  0.0046 -0.0203
   13MOL    C56 3920   4.046   5.520   1.126 -0.1212 -0.4072 -0.4009
   13MOL    C57 3921   4.062   5.588   1.249 -0.8148  0.3090 -0.2750
   13MOL    C58 3922   3.950   5.567   1.594  0.1786 -0.5670  0.3550
   13MOL    H59 3923   4.019   5.705   1.454  0.0776 -1.7666 -2.6283
   13MOL    H60 3924   3.970   5.332   1.458 -2.4084 -2.0674 -1.5323
   13MOL    H61 3925   3.974   5.209   1.254 -1.9005  0.7118 -0.4360
   13MOL    H62 3926   4.063   5.559   1.027 -0.2309  2.0023  0.5065
   13MOL    H63 3927   4.071   5.695   1.244 -1.0685  0.4571  1.8772
   13MOL    H64 3928   3.856   5.563   1.540 -0.6421 -0.2322  1.7236
   13MOL    H65 3929   3.967   5.463   1.620 -0.1510 -1.7542 -3.8135
   13MOL    C66 3930   3.912   5.655   1.715  0.3500  0.0155 -0.2316
   13MOL    C67 3931   3.847   5.787   1.666  0.3278 -0.0125  0.5792
   13MOL    C68 3932   3.908   5.908   1.687  0.2092  0.4569 -0.0022
   13MOL    C69 3933   3.851   6.030   1.658 -0.5263 -0.1129  0.6375
   13MOL    C70 3934   3.726   6.038   1.604 -0.3773  0.6688 -0.0141
   13MOL   Cl71 3935   3.656   6.187   1.562  0.3631 -0.2257  0.3313
   13MOL    C72 3936   3.652   5.919   1.586 -0.1512  1.3413 -0.1766
   13MOL    C73 3937   3.715   5.790   1.603 -0.6550 -0.5949  0.9433
   13MOL    C74 3938   3.827   5.576   1.814 -0.1599  0.4806 -1.0038
   13MOL    H75 3939   4.006   5.681   1.765 -0.0759 -0.0377  0.6077
   13MOL    H76 3940   4.001   5.911   1.742  0.6037 -2.2572 -0.4643
   13MOL    H77 3941   3.903   6.120   1.687 -0.0372  0.0744 -0.7770
   13MOL    H78 3942   3.554   5.916   1.541  1.5844  0.9009 -4.1103
   13MOL    H79 3943   3.674   5.698   1.565  0.3096 -0.1492 -1.2261
   13MOL    H80 3944   3.735   5.550   1.762 -0.2719  0.6041 -0.8690
   13MOL    H81 3945   3.877   5.481   1.837  2.8207  1.4099 -3.3758
   13MOL    C82 3946   3.787   5.649   1.950 -0.1791  0.4597  0.7202
   13MOL    C83 3947   3.693   5.561   2.034 -0.4767  1.2264 -0.1279
   13MOL    C84 3948   3.738   5.441   2.085 -0.2353  0.7671 -0.1170
   13MOL    C85 3949   3.651   5.347   2.145 -0.0780 -0.1705 -0.3748
   13MOL    C86 3950   3.513   5.378   2.151 -0.1820  0.1747 -0.0119
   13MOL   Cl87 3951   3.401   5.268   2.221 -0.0110  0.0927 -0.1364
   13MOL    C88 3952   3.467   5.499   2.091 -0.3157  0.1816 -0.3377
   13MOL    C89 3953   3.555   5.590   2.034 -0.0071 -0.2062  0.4290
   13MOL    C90 3954   3.908   5.689   2.032 -0.4784  0.7873  0.5333
   13MOL    H91 3955   3.730   5.736   1.918 -1.6323 -0.4299  0.8971
   13MOL    H92 3956   3.840   5.416   2.062 -0.5588  0.1273 -0.8470
   13MOL    H93 3957   3.684   5.255   2.190  1.2870  0.0432 -0.8864
   13MOL    H94 3958   3.363   5.526   2.078  0.0522  1.1784 -1.2790
   13MOL    H95 3959   3.510   5.673   1.982  0.8687 -0.5720 -0.9501
   13MOL    H96 3960   3.952   5.598   2.072 -3.4972 -1.0541 -0.1006
   13MOL    H97 3961   3.975   5.744   1.967  1.1137 -1.2155  0.4151
   13MOL    C98 3962   3.880   5.786   2.160  0.4269 -1.2386 -0.5793
   13MOL    C99 3963   4.000   5.811   2.240 -0.1088 -0.0092 -0.0135
   13MOL   C100 3964   4.005   5.774   2.375  0.3843 -0.4500 -0.0082
   13MOL   C101 3965   4.119   5.809   2.449 -0.6242 -0.2848 -0.9377
   13MOL   C102 3966   4.230   5.874   2.398 -0.0971 -0.0645  0.0133
   13MOL  Cl103 3967   4.374   5.887   2.488  0.3166  0.0830  0.3732
   13MOL   C104 3968   4.227   5.908   2.261  0.2072  0.3468  0.4116
   13MOL   C105 3969   4.116   5.876   2.183  1.0221  0.0798  0.2072
   13MOL   C106 3970   3.802   5.920   2.136 -0.5926 -0.1333 -0.1521
   13MOL   H107 3971   3.815   5.721   2.219 -1.0156 -0.1996 -1.0021
   13MOL   H108 3972   3.917   5.730   2.419 -0.1515  0.8651  0.2576
   13MOL   H109 3973   4.107   5.782   2.553  0.5942 -1.6273 -1.1406
   13MOL   H110 3974   4.307   5.955   2.207  1.0429 -1.4289  0.0996
   13MOL   H111 3975   4.118   5.897   2.078 -1.5501  0.4153  0.2117
   13MOL   H112 3976   3.872   6.001   2.118 -0.1554 -0.4491  0.1103
   13MOL   H113 3977   3.737   5.920   2.049 -1.4511 -1.9156  0.4483
   13MOL   C114 3978   3.714   5.950   2.258 -0.1458 -0.0460  0.4318
   13MOL   C115 3979   3.683   6.096   2.274 -0.2580  0.2083  0.7496
   13MOL   C116 3980   3.567   6.153   2.214 -0.1614 -0.4340  0.7547
   13MOL   C117 3981   3.532   6.284   2.223  0.3482 -0.7653 -0.2834
   13MOL   C118 3982   3.617   6.368   2.302  0.2414  0.1158  0.3952
   13MOL  Cl119 3983   3.580   6.533   2.317  0.0245 -0.1973 -0.1867
   13MOL   C120 3984   3.744   6.317   2.355  0.6078  0.1624  0.2772
   13MOL   C121 3985   3.774   6.179   2.344 -0.5637 -0.4681 -0.1827
   13MOL   C122 3986   3.588   5.866   2.285  0.2907 -0.1586 -0.4726
   13MOL   H123 3987   3.787   5.938   2.339  1.1902  1.1097 -0.5723
   13MOL   H124 3988   3.505   6.097   2.145 -1.4447  0.8066  0.8798
   13MOL   H125 3989   3.442   6.322   2.176  0.2631  2.2915  2.1919
   13MOL   H126 3990   3.812   6.381   2.409  0.1398  0.2964  0.7176
   13MOL   H127 3991   3.864   6.141   2.388 -0.1968  1.4772  0.8212
   13MOL   H128 3992   3.514   5.878   2.206 -1.0267  0.7277  0.8533
   13MOL   H129 3993   3.613   5.763   2.259  1.2661  0.7347 -3.1539
   13MOL   C130 3994   3.515   5.892   2.420  0.5705  0.6554 -0.2884
   13MOL   C131 3995   3.380   5.824   2.399 -0.2033  0.3714 -0.6610
   13MOL   C132 3996   3.375   5.686   2.380 -0.0740 -0.2896  0.7378
   13MOL   C133 3997   3.243   5.631   2.371 -0.1477 -0.3534  0.0312
   13MOL   C134 3998   3.129   5.708   2.377  0.1721  0.5898  0.0439
   13MOL  Cl135 3999   2.973   5.636   2.364  0.1022  0.2218 -0.2676
   13MOL   C136 4000   3.139   5.846   2.394  0.7069  0.2287  0.3774
   13MOL   C137 4001   3.265   5.904   2.411  0.8694 -0.0566  0.1297
   13MOL   C138 4002   3.591   5.836   2.537 -0.3553 -0.1354  0.7293
   13MOL   H139 4003   3.491   5.998   2.430 -2.5043 -0.0163 -0.0958
   13MOL   H140 4004   3.463   5.623   2.376 -1.2800 -1.9631  0.0754
   13MOL   H141 4005   3.227   5.527   2.348 -1.4837  0.1962 -1.6741
   13MOL   H142 4006   3.054   5.912   2.402 -0.1014 -0.7673  0.0427
   13MOL   H143 4007   3.276   6.009   2.430 -0.3532 -0.0350  0.7790
   13MOL   H144 4008   3.581   5.728   2.536 -0.3228 -0.1429  1.1458
   13MOL   H145 4009   3.698   5.852   2.520 -0.5506  2.0039  1.3276
   13MOL   C146 4010   3.556   5.878   2.682  0.4794 -0.8089  0.3146
   13MOL   C147 4011   3.589   6.032   2.700  0.8883 -0.7579 -0.3229
   13MOL   C148 4012   3.497   6.135   2.690  0.1283 -0.4042 -0.4269
   13MOL   C149 4013   3.537   6.270   2.701  0.2307  0.7631 -0.7425
   13MOL   C150 4014   3.667   6.302   2.718 -0.4831 -0.0405  0.1134
   13MOL  Cl151 4015   3.702   6.468   2.727 -0.1414 -0.1132 -0.3668
   13MOL   C152 4016   3.764   6.199   2.717 -0.3216  0.4700  0.6392
   13MOL   C153 4017   3.723   6.065   2.716  0.3296  0.1962 -0.5851
   13MOL   C154 4018   3.414   5.854   2.725  0.7194 -0.2009  0.7283
   13MOL   H155 4019   3.623   5.822   2.749 -0.0066 -2.0124 -0.1911
   13MOL   H156 4020   3.392   6.112   2.677  0.4363 -1.2631 -1.4376
   13MOL   H157 4021   3.458   6.343   2.703 -2.0332 -1.6147  1.7163
   13MOL   H158 4022   3.865   6.224   2.743 -0.1045 -0.2173  0.4572
   13MOL   H159 4023   3.796   5.986   2.713  1.2864  1.1305 -4.2708
   13MOL   H160 4024   3.384   5.913   2.811 -0.7756  1.0327 -0.5959
   13MOL   H161 4025   3.347   5.905   2.655  1.6621 -2.0180 -1.5785
   13MOL   C162 4026   3.368   5.701   2.737  0.0933 -0.0865  0.6104
   13MOL   C163 4027   3.433   5.636   2.856 -0.3830  0.0388  0.7223
   13MOL   C164 4028   3.428   5.492   2.858 -0.2504 -0.1392  0.1405
   13MOL   C165 4029   3.467   5.430   2.978  0.9955  0.5019  0.4610
   13MOL   C166 4030   3.519   5.508   3.085 -0.5932 -0.6309 -0.0774
   13MOL  Cl167 4031   3.575   5.437   3.230 -0.1314 -0.1203 -0.3953
   13MOL   C168 4032   3.534   5.646   3.072 -0.1959  0.3051  0.0228
   13MOL   C169 4033   3.498   5.712   2.957  0.2596  0.1697  0.1786
   13MOL   C170 4034   3.215   5.689   2.749  0.0345  0.3231  0.3590
   13MOL   H171 4035   3.394   5.644   2.648 -0.1195 -0.2810  0.6705
   13MOL   H172 4036   3.403   5.431   2.772 -2.0885 -0.7851  1.1044
   13MOL   H173 4037   3.468   5.323   2.993  0.3204  0.6596  1.6900
   13MOL   H174 4038   3.583   5.698   3.153 -2.0039  0.9548  0.7104
   13MOL   H175 4039   3.522   5.817   2.955 -0.5987  0.3526 -0.8986
   13MOL   H176 4040   3.164   5.739   2.667 -0.5159  0.1260  0.5821
   13MOL   H177 4041   3.196   5.583   2.733  0.7351 -0.1311  2.3713
   13MOL   C178 4042   3.148   5.719   2.894  0.0061 -0.2319  0.3263
   13MOL   C179 4043   3.156   5.869   2.932 -0.6153 -0.5575 -0.2995
   13MOL   C180 4044   3.202   5.898   3.064 -0.1187  0.8578  0.2194
   13MOL   C181 4045   3.212   6.031   3.111  0.8204  0.1365 -0.4585
   13MOL   C182 4046   3.164   6.134   3.024 -0.3396 -0.1482 -0.0499
   13MOL  Cl183 4047   3.195   6.296   3.067  0.0848  0.0090  0.1002
   13MOL   C184 4048   3.106   6.102   2.900  0.4172 -0.4017 -0.7139
   13MOL   C185 4049   3.108   5.973   2.849 -0.2242  0.1763 -1.1490
   13MOL   C186 4050   3.001   5.685   2.885 -0.2657  0.9794  0.1606
   13MOL   H187 4051   3.191   5.665   2.979 -0.7832 -0.6348  0.4805
   13MOL   H188 4052   3.226   5.809   3.120  0.1791  0.7590 -0.0639
   13MOL   H189 4053   3.253   6.044   3.210  0.3589  0.0705 -0.2612
   13MOL   H190 4054   3.096   6.180   2.826 -0.6590 -1.0968 -1.3007
   13MOL   H191 4055   3.060   5.957   2.753 -1.6692  1.7463 -0.7073
   13MOL   H192 4056   2.943   5.764   2.933 -2.4684 -0.3373 -0.2697
   13MOL   H193 4057   2.965   5.678   2.782 -1.9978 -0.2072  0.8198
   13MOL   C194 4058   2.968   5.544   2.952  0.1658 -0.6368 -0.3771
   13MOL   C195 4059   2.979   5.542   3.105  0.7902 -0.0062 -0.1832
   13MOL   C196 4060   3.084   5.478   3.176 -0.9800 -0.4882 -0.5236
   13MOL   C197 4061   3.095   5.509   3.313 -0.2998  0.2778  0.0525
   13MOL   C198 4062   3.004   5.589   3.379 -0.8101  0.3580  0.4685
   13MOL  Cl199 4063   3.004   5.611   3.549 -0.2824 -0.0305  0.1954
   13MOL   C200 4064   2.903   5.645   3.313 -0.0153  0.1982  0.0231
   13MOL   C201 4065   2.897   5.637   3.171  0.0137  0.4473  0.3019
   13MOL   C202 4066   2.836   5.476   2.910 -0.4158  0.6300  0.2717
   13MOL   H203 4067   3.051   5.481   2.919  0.6791  0.4088 -1.1130
   13MOL   H204 4068   3.157   5.422   3.121 -0.9048 -1.5615  0.6699
   13MOL   H205 4069   3.174   5.463   3.370 -1.0919  0.7467  1.5460
   13MOL   H206 4070   2.836   5.702   3.376  0.5345  0.4303  0.4104
   13MOL   H207 4071   2.821   5.698   3.125 -0.9300  0.5951  1.9955
   13MOL   H208 4072   2.820   5.393   2.978 -0.7700  0.0604 -0.4985
   13MOL   H209 4073   2.760   5.551   2.934 -0.4420  0.2029  1.5674
   13MOL   C210 4074   2.819   5.415   2.763 -0.3302 -0.2156  0.4384
   13MOL   C211 4075   2.926   5.308   2.725  1.1842 -0.3340 -0.2422
   13MOL   C212 4076   3.023   5.333   2.630 -0.0204  0.3567 -0.1754
   13MOL   C213 4077   3.111   5.234   2.588 -0.1092 -0.5389 -0.4308
   13MOL   C214 4078   3.100   5.102   2.633 -0.1628 -0.6382  0.1794
   13MOL  Cl215 4079   3.211   4.981   2.574 -0.0226  0.1043  0.0709
   13MOL   C216 4080   3.016   5.076   2.740 -0.1602 -0.3075 -0.0865
   13MOL   C217 4081   2.917   5.177   2.777  0.0183  0.0125 -0.0138
   13MOL   C218 4082   2.675   5.372   2.757  0.0888 -0.2558 -1.1666
   13MOL   H219 4083   2.832   5.497   2.692 -0.0331 -0.5830  0.0629
   13MOL   H220 4084   3.025   5.427   2.577 -0.0942 -0.8588 -2.3621
   13MOL   H221 4085   3.172   5.253   2.501  0.4207  1.6211  0.3850
   13MOL   H222 4086   3.004   4.980   2.787  2.4828 -1.2300 -1.2022
   13MOL   H223 4087   2.839   5.148   2.847 -0.3633 -1.4588 -1.0239
   13MOL   H224 4088   2.640   5.313   2.841  2.8172  0.5812  0.5914
   13MOL   H225 4089   2.624   5.463   2.788  0.8561  0.4185 -1.8732
   13MOL   C226 4090   2.620   5.305   2.628 -0.4158 -0.3826  0.5244
   13MOL   C227 4091   2.482   5.249   2.658 -0.1559  0.3213  0.0079
   13MOL   C228 4092   2.448   5.115   2.660 -0.4219  0.1981 -0.7744
   13MOL   C229 4093   2.319   5.063   2.680  0.2527 -0.7283  0.0391
   13MOL   C230 4094   2.217   5.158   2.703  0.0152 -0.9899  0.3859
   13MOL  Cl231 4095   2.059   5.095   2.744 -0.2216 -0.6355 -0.0228
   13MOL   C232 4096   2.249   5.295   2.694 -0.0181 -0.5091  0.1629
   13MOL   C233 4097   2.378   5.338   2.663 -0.6472 -0.6677  0.0464
   13MOL   C234 4098   2.635   5.393   2.495 -0.2978  0.5042 -0.0054
   13MOL   H235 4099   2.677   5.212   2.619 -1.4096 -0.9867  0.4809
   13MOL   H236 4100   2.532   5.049   2.649 -1.8942 -2.4379  2.7939
   13MOL   H237 4101   2.305   4.957   2.695  0.5409 -0.8143 -0.2993
   13MOL   H238 4102   2.179   5.364   2.738 -0.7665 -0.7785 -0.6002
   13MOL   H239 4103   2.405   5.443   2.664  3.0916 -1.5466 -1.8832
   13MOL   H240 4104   2.555   5.466   2.507 -0.4864  0.1123  1.2422
   13MOL   H241 4105   2.734   5.439   2.498  0.4166 -0.7972 -2.1122
   13MOL   C242 4106   2.623   5.326   2.351 -0.0490  0.3965 -0.4270
   13MOL   C243 4107   2.752   5.259   2.315  0.1573  0.3607 -0.0088
   13MOL   C244 4108   2.773   5.125   2.350  0.1466 -0.3912 -0.2898
   13MOL   C245 4109   2.890   5.061   2.307  0.1073  0.2019 -0.9138
   13MOL   C246 4110   2.996   5.132   2.246  0.0782  0.2413  1.0743
   13MOL  Cl247 4111   3.138   5.047   2.189  0.2992  0.0615 -0.4150
   13MOL   C248 4112   2.978   5.268   2.216  0.0937 -0.6449 -0.0431
   13MOL   C249 4113   2.852   5.330   2.242  0.5353  0.3372 -0.5804
   13MOL   C250 4114   2.495   5.240   2.322  0.1084  0.5399 -0.4927
   13MOL   H251 4115   2.625   5.417   2.290  1.7819 -0.2595 -1.3590
   13MOL   H252 4116   2.691   5.085   2.407 -0.6316  1.7159  0.1492
   13MOL   H253 4117   2.900   4.954   2.316  0.1719  0.2601 -0.3015
   13MOL   H254 4118   3.058   5.317   2.163  0.4922 -1.1589  0.0878
   13MOL   H255 4119   2.839   5.432   2.207  0.6740  1.4221  2.3995
   13MOL   H256 4120   2.511   5.154   2.389  0.8947  1.4072  0.4529
   13MOL   H257 4121   2.417   5.308   2.355  0.1413 -0.3883  1.6296
   13MOL   C258 4122   2.482   5.187   2.175  0.2912 -0.5556 -0.4567
   13MOL   C259 4123   2.504   5.032   2.166  0.4016  0.7661  0.0205
   13MOL   C260 4124   2.596   4.982   2.071  0.2440  0.0961  0.6948
   13MOL   C261 4125   2.604   4.844   2.043  0.3285  0.4548 -0.5898
   13MOL   C262 4126   2.519   4.758   2.114 -0.2415  0.5965 -0.2015
   13MOL  Cl263 4127   2.525   4.593   2.063 -0.4023  0.0935 -0.0798
   13MOL   C264 4128   2.434   4.803   2.217 -0.1226 -0.0989  0.2523
   13MOL   C265 4129   2.423   4.942   2.238 -0.0976 -0.4067  0.1335
   13MOL   C266 4130   2.358   5.227   2.092  0.0514  0.1797  0.0581
   13MOL   H267 4131   2.565   5.233   2.122  2.3078 -2.0839  1.3124
   13MOL   H268 4132   2.651   5.058   2.017 -0.5703 -1.1525 -1.9590
   13MOL   H269 4133   2.676   4.803   1.974  0.3909  0.5103 -0.5578
   13MOL   H270 4134   2.373   4.734   2.273  0.5231  1.4862  2.9775
   13MOL   H271 4135   2.355   4.978   2.314 -0.6055 -0.8138 -0.1245
   13MOL   H272 4136   2.270   5.185   2.140  0.5702 -1.6621 -0.5550
   13MOL   H273 4137   2.336   5.332   2.111 -3.3706 -0.3708 -0.6474
   13MOL   C274 4138   2.347   5.190   1.935 -0.4463  0.3449  0.0474
   13MOL   C275 4139   2.228   5.097   1.886  0.0672 -0.1099  0.4658
   13MOL   C276 4140   2.245   4.962   1.899  0.3250 -0.9183  0.6965
   13MOL   C277 4141   2.138   4.875   1.867 -0.1494 -0.0170 -0.2111
   13MOL   C278 4142   2.021   4.928   1.818 -0.4920  0.6737  0.4397
   13MOL  Cl279 4143   1.899   4.828   1.763  0.0697 -0.3566 -0.2354
   13MOL   C280 4144   2.000   5.065   1.804 -0.6376  0.5148  0.3569
   13MOL   C281 4145   2.105   5.151   1.839  0.0152 -0.3487  0.1253
   13MOL   C282 4146   2.376   5.308   1.843 -0.3837 -0.7472 -0.4545
   13MOL   H283 4147   2.430   5.122   1.918  0.4859  1.3447  0.5071
   13MOL   H284 4148   2.343   4.924   1.926  0.0443 -1.3081  1.1783
   13MOL   H285 4149   2.154   4.769   1.863  0.6078  0.1672 -2.3823
   13MOL   H286 4150   1.905   5.106   1.773 -0.1836 -0.2668 -2.2212
   13MOL   H287 4151   2.089   5.257   1.828  2.9397  0.5740  3.6428
   13MOL   H288 4152   2.364   5.271   1.742  0.0400 -1.4997 -0.2345
   13MOL   H289 4153   2.284   5.367   1.846  0.5101  0.7258 -1.2655
   13MOL   C290 4154   2.512   5.386   1.850  0.0927 -0.3343 -0.7342
   13MOL   C291 4155   2.639   5.299   1.817 -0.7612 -0.1847  0.0494
   13MOL   C292 4156   2.749   5.300   1.904  0.4282 -0.1177  0.7491
   13MOL   C293 4157   2.862   5.219   1.871  0.1675  1.0645 -0.1266
   13MOL   C294 4158   2.856   5.133   1.765 -0.2729  0.2118  0.0997
   13MOL  Cl295 4159   2.996   5.034   1.729 -0.1209 -0.0372  0.2795
   13MOL   C296 4160   2.744   5.122   1.688  0.1470  0.5628 -1.3236
   13MOL   C297 4161   2.630   5.210   1.708 -0.4431 -0.1264 -0.1670
   13MOL   C298 4162   2.510   5.508   1.762  0.0198  0.8001  0.3128
   13MOL   H299 4163   2.523   5.415   1.954 -2.3788 -1.5834 -0.0750
   13MOL   H300 4164   2.749   5.362   1.992 -2.8746  1.6066 -0.3633
   13MOL   H301 4165   2.951   5.219   1.933 -0.2275 -1.1229  0.4844
   13MOL   H302 4166   2.738   5.067   1.595 -1.3528  0.1316 -0.9883
   13MOL   H303 4167   2.549   5.208   1.638 -0.5815  0.2024 -0.0166
   13MOL   H304 4168   2.484   5.478   1.660 -3.5846 -0.7178  1.6168
   13MOL   H305 4169   2.425   5.564   1.799  0.2701 -0.6175  3.1504
   13MOL   C306 4170   2.640   5.589   1.760  0.0485  0.1888  0.0645
   13MOL   C307 4171   2.627   5.709   1.661 -0.3016  0.5445 -0.1585
   13MOL   C308 4172   2.703   5.724   1.545 -0.4062 -0.7953  0.1610
   13MOL   C309 4173   2.687   5.830   1.452  1.0921  0.2310  0.3396
   13MOL   C310 4174   2.595   5.928   1.484 -0.1038  0.2493 -0.8499
   13MOL  Cl311 4175   2.580   6.066   1.392  0.2326  0.3005  0.1328
   13MOL   C312 4176   2.514   5.920   1.602 -0.1725 -0.9485  0.1553
   13MOL   C313 4177   2.531   5.810   1.685 -0.2689  0.0435 -0.0737
   13MOL   C314 4178   2.691   5.636   1.896 -0.0364 -0.0844 -0.2391
   13MOL   H315 4179   2.711   5.521   1.714 -1.1972 -1.2407  0.2328
   13MOL   H316 4180   2.776   5.647   1.527  1.8199  0.9714  1.3410
   13MOL   H317 4181   2.752   5.837   1.366 -0.3430  0.7392 -0.7337
   13MOL   H318 4182   2.444   5.996   1.633 -1.3980 -1.9091 -0.2170
   13MOL   H319 4183   2.479   5.792   1.778  0.1905  0.7916  0.3448
   13MOL   H320 4184   2.611   5.693   1.943  0.9924  0.1428  1.2802
   13MOL   H321 4185   2.736   5.562   1.962 -0.7720  0.6598  1.1059
   13MOL   H322 4186   2.774   5.703   1.879  0.8393 -1.4213 -1.4087
   14MOL     C1 4187   8.186   1.960   0.235  0.2149 -0.0088  0.1865
   14MOL     C2 4188   8.134   2.060   0.130 -0.3289 -0.1239  0.1505
   14MOL     C3 4189   7.995   2.062   0.098 -0.4266  0.4438  0.6586
   14MOL     C4 4190   7.952   2.140   8.428 -0.6324  0.2222 -0.1323
   14MOL     C5 4191   8.049   2.214   8.354 -0.0552  0.2702 -0.9501
   14MOL    Cl6 4192   7.997   2.308   8.216  0.1132  0.4169  0.0609
   14MOL     C7 4193   8.186   2.215   8.393 -0.2001 -0.1049 -0.2324
   14MOL     C8 4194   8.227   2.142   0.062 -0.0262  0.2529  0.4143
   14MOL     C9 4195   8.144   1.991   0.374  0.0202  0.0518 -0.4410
   14MOL    H10 4196   8.290   1.942   0.209 -0.3143 -1.4318 -1.0528
   14MOL    H11 4197   7.917   2.016   0.157  0.6145 -1.5050  0.5868
   14MOL    H12 4198   7.850   2.145   8.393 -1.1041  1.8533  1.3943
   14MOL    H13 4199   8.261   2.262   8.331 -0.2381 -1.3697 -1.2411
   14MOL    H14 4200   8.331   2.134   0.089  0.4046  1.1802 -0.9304
   14MOL    H15 4201   8.190   2.077   0.423  0.6366 -0.2940 -0.4109
   14MOL    H16 4202   8.036   2.009   0.374 -0.0396 -0.3154 -0.0649
   14MOL    H17 4203   8.139   1.870   0.194  1.5656 -1.4994  1.8424
   14MOL    C18 4204   8.165   1.863   0.467 -0.1280  0.0199  0.2723
   14MOL    C19 4205   8.302   1.805   0.450 -0.6533  1.1177  0.3948
   14MOL    C20 4206   8.418   1.876   0.493  0.2207 -0.1149  0.4357
   14MOL    C21 4207   0.101   1.820   0.495 -0.3919  0.1640 -0.1078
   14MOL    C22 4208   0.120   1.689   0.447  0.2755 -0.1906  0.1105
   14MOL   Cl23 4209   0.284   1.627   0.441 -0.0686  0.0094  0.2093
   14MOL    C24 4210   0.014   1.623   0.386 -0.1416  0.2699  0.4548
   14MOL    C25 4211   8.326   1.676   0.398 -0.2097 -0.2004 -0.5024
   14MOL    C26 4212   8.132   1.904   0.618  0.5770  0.0271  0.8975
   14MOL    H27 4213   8.092   1.788   0.437 -0.0901 -0.1563  0.6136
   14MOL    H28 4214   8.394   1.974   0.533 -0.5142  0.5271 -1.4986
   14MOL    H29 4215   0.183   1.866   0.548 -1.4657 -0.6791  2.3839
   14MOL    H30 4216   0.022   1.524   0.342 -0.0463 -0.0487  1.1798
   14MOL    H31 4217   8.239   1.622   0.364 -0.7171 -0.5573  1.3054
   14MOL    H32 4218   8.187   1.995   0.641 -0.5353  1.1591 -0.8326
   14MOL    H33 4219   8.028   1.934   0.623  0.8032  1.1780 -0.8539
   14MOL    C34 4220   8.175   1.803   0.733 -0.4514 -0.6380 -0.2637
   14MOL    C35 4221   8.236   1.887   0.854  0.1870 -0.0635  0.6030
   14MOL    C36 4222   8.149   1.960   0.945 -0.1308 -0.3134  0.8555
   14MOL    C37 4223   8.210   2.032   1.049 -0.5470 -0.2457  0.7636
   14MOL    C38 4224   8.349   2.050   1.058 -0.0650  0.6446  0.1410
   14MOL   Cl39 4225   8.415   2.141   1.189  0.3310 -0.2877  0.0141
   14MOL    C40 4226   8.429   1.986   0.964 -0.1307  0.1073  0.6318
   14MOL    C41 4227   8.379   1.898   0.866  0.1701 -0.4854 -0.4529
   14MOL    C42 4228   8.059   1.720   0.787  0.2744 -0.7189 -0.0660
   14MOL    H43 4229   8.252   1.733   0.702  0.0955 -0.5402  0.8598
   14MOL    H44 4230   8.043   1.965   0.926  0.4723  2.0264 -2.2772
   14MOL    H45 4231   8.155   2.073   1.133  0.7236 -0.5204  1.7549
   14MOL    H46 4232   0.094   1.997   0.967  0.4479 -3.8577 -1.4764
   14MOL    H47 4233   0.006   1.852   0.798  0.6120  0.1724 -0.4337
   14MOL    H48 4234   8.060   1.705   0.895  0.3269  0.9316  0.1755
   14MOL    H49 4235   7.971   1.784   0.784  2.2082  2.1720  1.9481
   14MOL    C50 4236   8.031   1.580   0.709  0.1505 -0.5828 -0.9857
   14MOL    C51 4237   8.139   1.478   0.749  0.6092  0.0211  0.3646
   14MOL    C52 4238   8.250   1.463   0.671 -0.3102  0.1694  0.1148
   14MOL    C53 4239   8.346   1.361   0.693  0.1016  0.0100 -0.0831
   14MOL    C54 4240   8.334   1.284   0.811  0.1664  0.1866  0.0116
   14MOL   Cl55 4241   0.008   1.156   0.835  0.1978 -0.0370 -0.0408
   14MOL    C56 4242   8.221   1.297   0.899 -0.3028  0.8185 -0.0652
   14MOL    C57 4243   8.125   1.394   0.865 -0.2517 -0.3639  0.6931
   14MOL    C58 4244   7.888   1.527   0.733 -0.6214  0.1545  0.0604
   14MOL    H59 4245   8.040   1.591   0.601  1.7290  1.1662 -0.6986
   14MOL    H60 4246   8.253   1.520   0.579  0.4720 -1.5413 -0.9589
   14MOL    H61 4247   8.434   1.341   0.634 -1.3850 -2.2159 -1.6093
   14MOL    H62 4248   8.213   1.231   0.984 -0.0207  0.6126 -0.1985
   14MOL    H63 4249   8.041   1.406   0.932  0.3333 -2.9752  1.9742
   14MOL    H64 4250   7.889   1.426   0.691  1.9356 -0.5573  1.6536
   14MOL    H65 4251   7.872   1.518   0.841 -0.7495 -1.4251 -0.0730
   14MOL    C66 4252   7.781   1.618   0.672 -0.0836 -0.0811  0.3301
   14MOL    C67 4253   7.799   1.652   0.530  0.2602 -0.7846  0.1470
   14MOL    C68 4254   7.804   1.786   0.492 -0.6387 -0.7762 -0.0560
   14MOL    C69 4255   7.807   1.831   0.353  0.3361  0.3852 -0.4017
   14MOL    C70 4256   7.811   1.731   0.256 -0.3598 -0.4699 -0.1696
   14MOL   Cl71 4257   7.795   1.783   0.088  0.1952 -0.1981 -0.1694
   14MOL    C72 4258   7.804   1.594   0.294 -0.4734  0.0730  0.2860
   14MOL    C73 4259   7.805   1.555   0.428 -0.0759  0.6484 -0.2261
   14MOL    C74 4260   7.640   1.551   0.685 -0.6416  0.4735  0.2323
   14MOL    H75 4261   7.782   1.710   0.730  2.2343  2.5262 -3.6358
   14MOL    H76 4262   7.804   1.867   0.563  0.2319 -0.0174 -0.9064
   14MOL    H77 4263   7.805   1.936   0.330 -1.6979  0.8693  1.6951
   14MOL    H78 4264   7.799   1.528   0.208 -5.1292 -2.5643  2.3794
   14MOL    H79 4265   7.800   1.451   0.456 -0.2637 -0.2619 -3.5426
   14MOL    H80 4266   7.572   1.622   0.638  0.1063  0.5495 -0.7549
   14MOL    H81 4267   7.634   1.458   0.629  0.8656  1.2224 -1.2126
   14MOL    C82 4268   7.594   1.532   0.828 -0.4861  0.1708 -0.7629
   14MOL    C83 4269   7.607   1.656   0.917 -0.4326  0.2461 -0.2474
   14MOL    C84 4270   7.664   1.641   1.043 -0.1485 -0.0538 -0.0954
   14MOL    C85 4271   7.668   1.750   1.135  0.2200  0.5169  0.2631
   14MOL    C86 4272   7.602   1.871   1.101 -0.5288  0.2799 -0.0580
   14MOL   Cl87 4273   7.606   2.003   1.212  0.0618 -0.0850  0.1711
   14MOL    C88 4274   7.550   1.889   0.972 -0.2481 -0.2708 -0.0492
   14MOL    C89 4275   7.552   1.779   0.879 -0.3161 -0.0138  0.5525
   14MOL    C90 4276   7.460   1.468   0.846 -0.8304  0.1582 -0.2427
   14MOL    H91 4277   7.659   1.463   0.880  0.1354  0.7080 -0.8180
   14MOL    H92 4278   7.708   1.549   1.075  0.2423 -0.8604 -2.7844
   14MOL    H93 4279   7.730   1.741   1.223 -0.1148 -1.1211  0.3496
   14MOL    H94 4280   7.502   1.982   0.946  2.2131  0.9088 -0.5802
   14MOL    H95 4281   7.503   1.791   0.783 -1.3201 -1.0694  0.9153
   14MOL    H96 4282   7.424   1.489   0.946 -0.8146 -0.5154 -0.0928
   14MOL    H97 4283   7.397   1.505   0.765 -0.5595 -1.9771 -1.4527
   14MOL    C98 4284   7.450   1.318   0.853  0.0217  0.6351  0.3748
   14MOL    C99 4285   7.542   1.248   0.958 -0.2989 -0.2765  0.3693
   14MOL   C100 4286   7.498   1.218   1.088  0.4557 -0.5942 -0.1015
   14MOL   C101 4287   7.583   1.161   1.189  0.9596  0.1096  0.5852
   14MOL   C102 4288   7.716   1.140   1.160 -0.0694 -0.1160 -0.6888
   14MOL  Cl103 4289   7.820   1.066   1.281 -0.0840 -0.5546 -0.1364
   14MOL   C104 4290   7.764   1.162   1.028  0.6290  0.3788  0.2481
   14MOL   C105 4291   7.682   1.215   0.927 -0.3205  0.0467 -0.2074
   14MOL   C106 4292   7.297   1.277   0.848  0.3040  0.8238  0.2912
   14MOL   H107 4293   7.497   1.287   0.759  1.2550 -0.9795  1.4902
   14MOL   H108 4294   7.392   1.229   1.109 -0.2185  0.7363 -3.7808
   14MOL   H109 4295   7.561   1.146   1.294 -0.7351  4.3695  0.9231
   14MOL   H110 4296   7.867   1.135   1.011  0.0130 -1.2155 -1.0807
   14MOL   H111 4297   7.723   1.238   0.830  1.7562  1.3841  0.9494
   14MOL   H112 4298   7.257   1.321   0.940  0.7180 -0.2108  0.9710
   14MOL   H113 4299   7.241   1.330   0.770  0.2376  0.8295  0.3418
   14MOL   C114 4300   7.258   1.129   0.847  0.1543  0.1468 -0.0958
   14MOL   C115 4301   7.108   1.114   0.868 -0.0838  0.4211 -0.5671
   14MOL   C116 4302   7.072   1.038   0.981  0.3050  0.0533 -0.1145
   14MOL   C117 4303   6.938   1.033   1.020  0.2149  0.0151  0.0895
   14MOL   C118 4304   6.834   1.090   0.941  0.2477 -0.2151 -0.2415
   14MOL  Cl119 4305   6.671   1.061   0.980  0.7943  0.0851 -0.3716
   14MOL   C120 4306   6.869   1.147   0.813 -0.7901 -0.4781  0.1739
   14MOL   C121 4307   7.009   1.163   0.778 -0.0651  0.1102 -0.7457
   14MOL   C122 4308   7.302   1.056   0.720 -0.3353  0.2865 -0.0524
   14MOL   H123 4309   7.312   1.084   0.931  2.1046 -0.1210 -1.4736
   14MOL   H124 4310   7.142   0.987   1.045  0.1826 -1.9964 -1.5635
   14MOL   H125 4311   6.911   0.979   1.109 -0.8086 -0.9734 -0.7989
   14MOL   H126 4312   6.794   1.197   0.753  2.2252 -0.1205 -3.4357
   14MOL   H127 4313   7.039   1.204   0.682 -1.1509 -0.6678 -1.4275
   14MOL   H128 4314   7.279   1.111   0.628  0.6932  2.4187  0.9304
   14MOL   H129 4315   7.411   1.055   0.711 -0.4818 -2.2098 -2.1144
   14MOL   C130 4316   7.261   0.899   0.719  0.0051 -0.0735 -0.0722
   14MOL   C131 4317   7.119   0.883   0.654  0.3901  0.1067  0.1980
   14MOL   C132 4318   7.098   0.923   0.516 -0.1699 -0.1849 -0.1183
   14MOL   C133 4319   6.972   0.905   0.460 -0.1114 -0.0734  0.3222
   14MOL   C134 4320   6.874   0.837   0.531  0.6146  0.4023  0.3325
   14MOL  Cl135 4321   6.717   0.828   0.458  0.1809  0.0083  0.1023
   14MOL   C136 4322   6.894   0.786   0.660  0.1177 -0.4094 -0.1226
   14MOL   C137 4323   7.014   0.816   0.725 -0.0003 -1.4572 -0.2548
   14MOL   C138 4324   7.358   0.795   0.648 -0.5185  0.2447 -0.0653
   14MOL   H139 4325   7.255   0.864   0.822  0.5751 -0.7957 -0.2827
   14MOL   H140 4326   7.181   0.964   0.462 -0.3809 -0.1427 -0.4119
   14MOL   H141 4327   6.957   0.945   0.360 -2.0314 -0.6457  0.3608
   14MOL   H142 4328   6.816   0.730   0.709  1.9780 -1.0916  2.1640
   14MOL   H143 4329   7.042   0.778   0.823  2.2717  0.8842  0.0715
   14MOL   H144 4330   7.316   0.697   0.671  0.3556 -0.3031 -0.7571
   14MOL   H145 4331   7.351   0.801   0.539 -1.8040 -3.2287 -0.2489
   14MOL   C146 4332   7.510   0.797   0.697  0.2801 -0.0670  1.1479
   14MOL   C147 4333   7.532   0.753   0.844 -0.5372  0.6631  0.0244
   14MOL   C148 4334   7.637   0.814   0.917 -0.3748  0.5924  0.0024
   14MOL   C149 4335   7.658   0.793   1.052  0.8932 -0.7662  0.0299
   14MOL   C150 4336   7.568   0.716   1.124  0.0042 -0.3507  0.4261
   14MOL  Cl151 4337   7.582   0.711   1.300  0.0881  0.1105 -0.0420
   14MOL   C152 4338   7.463   0.651   1.055  0.5233 -0.8632 -0.2501
   14MOL   C153 4339   7.442   0.676   0.916  0.1400 -0.0329 -0.2727
   14MOL   C154 4340   7.602   0.718   0.605  0.2408 -1.1280 -0.3523
   14MOL   H155 4341   7.533   0.903   0.687  1.0778 -0.4780 -1.8527
   14MOL   H156 4342   7.701   0.886   0.869  2.1214 -1.4219  0.2249
   14MOL   H157 4343   7.731   0.848   1.109  1.6595  0.9457 -2.5001
   14MOL   H158 4344   7.384   0.597   1.105  1.1461 -1.8813 -0.3254
   14MOL   H159 4345   7.356   0.641   0.861  0.1434  0.8828 -0.8565
   14MOL   H160 4346   7.567   0.616   0.617 -1.0336 -0.3610  3.0639
   14MOL   H161 4347   7.583   0.743   0.500  1.9404 -0.5099 -0.5345
   14MOL   C162 4348   7.754   0.726   0.618 -0.5369  0.7445 -0.1307
   14MOL   C163 4349   7.821   0.630   0.518 -0.5777 -0.6983 -0.1883
   14MOL   C164 4350   7.913   0.531   0.564 -0.3705  0.5628  0.4945
   14MOL   C165 4351   7.970   0.441   0.477  0.4595 -0.1888  0.2794
   14MOL   C166 4352   7.953   0.458   0.338 -0.4790 -0.4088 -0.2173
   14MOL  Cl167 4353   8.036   0.358   0.226 -0.2926 -0.4478  0.4270
   14MOL   C168 4354   7.864   0.561   0.293  0.0387  0.2105 -0.1049
   14MOL   C169 4355   7.798   0.643   0.380  0.0912  0.1510  0.1934
   14MOL   C170 4356   7.814   0.867   0.609 -0.6030 -0.0370  0.3114
   14MOL   H171 4357   7.782   0.678   0.712 -1.8112 -2.2862 -1.2604
   14MOL   H172 4358   7.941   0.528   0.668  1.9131 -3.1168 -0.1266
   14MOL   H173 4359   8.025   0.359   0.520  1.2044 -0.0895 -0.4710
   14MOL   H174 4360   7.853   0.576   0.186  1.4774  2.4847  0.0238
   14MOL   H175 4361   7.743   0.723   0.334 -0.8544 -1.2941 -1.2202
   14MOL   H176 4362   7.798   0.903   0.508  0.5470 -0.9096 -0.1956
   14MOL   H177 4363   7.770   0.937   0.680 -1.5841  0.1710 -0.5009
   14MOL   C178 4364   7.969   0.866   0.643  0.1214 -0.1064 -0.0094
   14MOL   C179 4365   8.046   0.978   0.575  0.9376 -0.0799  0.1097
   14MOL   C180 4366   8.146   0.957   0.479 -0.1478 -0.4016 -0.6038
   14MOL   C181 4367   8.204   1.076   0.421  0.2296  0.3619 -0.2669
   14MOL   C182 4368   8.158   1.204   0.449  0.4889 -0.2625 -0.2919
   14MOL  Cl183 4369   8.226   1.339   0.366 -0.3258  0.0799  0.3067
   14MOL   C184 4370   8.055   1.219   0.539 -0.1898  0.0035  0.2175
   14MOL   C185 4371   7.998   1.108   0.598  0.1206 -0.4855 -0.0583
   14MOL   C186 4372   7.995   0.861   0.796  0.3586 -0.2240 -0.4785
   14MOL   H187 4373   8.009   0.774   0.601 -1.2749 -1.4430  1.4956
   14MOL   H188 4374   8.179   0.859   0.449 -0.2559 -0.1132 -1.7003
   14MOL   H189 4375   8.288   1.055   0.356  0.0586  0.3883 -0.4941
   14MOL   H190 4376   8.026   1.320   0.562 -0.6063  0.4823 -2.3345
   14MOL   H191 4377   7.915   1.122   0.666 -0.7335  1.2366 -1.4385
   14MOL   H192 4378   7.977   0.960   0.837 -0.7928 -0.3834 -0.5796
   14MOL   H193 4379   7.929   0.805   0.862  2.0936 -2.1047 -0.2998
   14MOL   C194 4380   8.143   0.825   0.832  0.7516 -0.2028 -0.4034
   14MOL   C195 4381   8.162   0.847   0.984  0.0947  0.3771 -0.0909
   14MOL   C196 4382   8.283   0.900   1.036 -0.6234 -0.1523  1.2357
   14MOL   C197 4383   8.301   0.951   1.164  0.5436  0.6314 -0.1877
   14MOL   C198 4384   8.200   0.920   1.252  0.2676  0.1903  0.5106
   14MOL  Cl199 4385   8.209   0.987   1.411 -0.3902 -0.4203 -0.4334
   14MOL   C200 4386   8.086   0.847   1.220 -0.4785 -0.0965 -0.3127
   14MOL   C201 4387   8.068   0.816   1.080  0.0621  0.1455 -0.0364
   14MOL   C202 4388   8.189   0.686   0.781 -0.0247  0.1076  0.3291
   14MOL   H203 4389   8.209   0.898   0.784  1.8894 -1.2841 -0.4878
   14MOL   H204 4390   8.363   0.921   0.967 -2.0001 -0.4353 -0.4730
   14MOL   H205 4391   8.388   1.003   1.201 -0.3916  0.1432  2.7901
   14MOL   H206 4392   8.022   0.812   1.299 -0.8433  1.5909  0.1702
   14MOL   H207 4393   7.986   0.746   1.067  1.4402 -1.4976 -0.1105
   14MOL   H208 4394   8.208   0.619   0.865 -0.6694 -1.4246 -0.7218
   14MOL   H209 4395   8.109   0.626   0.736 -0.4872  0.1060  1.1420
   14MOL   C210 4396   8.308   0.680   0.684 -0.4682 -0.1235 -0.6832
   14MOL   C211 4397   8.440   0.731   0.757  0.5829 -0.3599  0.0993
   14MOL   C212 4398   0.063   0.844   0.715  0.5975 -0.7699  0.0466
   14MOL   C213 4399   0.177   0.883   0.779 -1.1415  0.7739 -0.4667
   14MOL   C214 4400   0.217   0.828   0.899  0.0550  0.1555  0.8250
   14MOL  Cl215 4401   0.344   0.888   0.995  0.3650 -0.1163 -0.3294
   14MOL   C216 4402   0.141   0.725   0.943 -0.7336 -0.1331  0.8277
   14MOL   C217 4403   0.039   0.663   0.866  0.3083  0.1472 -0.1123
   14MOL   C218 4404   8.324   0.544   0.626  0.4138  0.1871  0.1360
   14MOL   H219 4405   8.287   0.756   0.609 -0.3314  0.4386 -0.1606
   14MOL   H220 4406   0.036   0.905   0.630 -0.9558 -0.4987  0.7257
   14MOL   H221 4407   0.221   0.975   0.744 -1.6017  1.2804  0.2738
   14MOL   H222 4408   0.169   0.676   1.035  1.7819 -0.9694 -0.3216
   14MOL   H223 4409   8.426   0.578   0.902  2.4213  0.0460  3.1735
   14MOL   H224 4410   8.374   0.482   0.700  0.2118 -2.9583 -2.2506
   14MOL   H225 4411   8.228   0.500   0.599  1.5421 -1.6162 -1.0653
   14MOL   C226 4412   8.418   0.542   0.503  0.7125  0.6984 -0.1799
   14MOL   C227 4413   0.052   0.418   0.499 -0.0006  0.9465  0.4639
   14MOL   C228 4414   0.194   0.423   0.513  0.6141 -0.7473  0.6099
   14MOL   C229 4415   0.276   0.305   0.496 -0.0827  0.6781  0.5413
   14MOL   C230 4416   0.210   0.183   0.459 -0.8765 -0.1210 -0.3183
   14MOL  Cl231 4417   0.297   0.038   0.417 -0.1237  0.3534  0.1568
   14MOL   C232 4418   0.070   0.176   0.455 -0.0955  0.4205  0.1460
   14MOL   C233 4419   8.433   0.293   0.477  0.3643 -0.2828 -0.0669
   14MOL   C234 4420   8.339   0.581   0.381 -0.1701  0.1592 -0.4351
   14MOL   H235 4421   0.045   0.625   0.513 -1.2181  2.4024 -0.4565
   14MOL   H236 4422   0.233   0.523   0.525 -1.2345  0.1379 -0.5165
   14MOL   H237 4423   0.384   0.301   0.503 -0.0872 -0.8956  0.0000
   14MOL   H238 4424   0.025   0.080   0.435 -0.1192 -0.1481  2.6652
   14MOL   H239 4425   8.325   0.290   0.484  0.3304  1.3461  0.1884
   14MOL   H240 4426   8.269   0.498   0.370  1.1634 -0.9412 -0.6703
   14MOL   H241 4427   8.279   0.670   0.401 -1.0222 -0.4238 -0.3765
   14MOL   C242 4428   8.419   0.583   0.252  0.8587  0.1977  0.3312
   14MOL   C243 4429   8.332   0.535   0.132  1.1482  0.4291  0.0814
   14MOL   C244 4430   8.220   0.610   0.094 -0.7446  0.4037 -0.0250
   14MOL   C245 4431   8.138   0.562   8.429 -0.1290 -0.7886  0.0360
   14MOL   C246 4432   8.177   0.443   8.367  0.1365  0.3294  0.0867
   14MOL  Cl247 4433   8.093   0.394   8.224  0.4020  0.1055 -0.4219
   14MOL   C248 4434   8.281   0.369   8.410  0.2022  0.5557 -0.4839
   14MOL   C249 4435   8.366   0.413   0.069  0.4379 -1.0965  0.3535
   14MOL   C250 4436   0.048   0.717   0.232 -0.4315 -0.0751  0.0863
   14MOL   H251 4437   0.054   0.508   0.266  0.8607  0.6718  3.1684
   14MOL   H252 4438   8.194   0.704   0.141  1.1206  0.3767  1.1192
   14MOL   H253 4439   8.058   0.619   8.382 -1.6420 -1.1015  2.1380
   14MOL   H254 4440   8.293   0.272   8.362 -0.3538  0.5352 -0.5794
   14MOL   H255 4441   0.002   0.348   0.102  0.8735 -0.4719  0.5547
   14MOL   H256 4442   8.436   0.782   0.165  0.8667  0.8020 -0.1542
   14MOL   H257 4443   0.057   0.776   0.324 -0.2037 -0.3540  0.2419
   14MOL   C258 4444   0.188   0.694   0.177  0.2732  0.0419  0.0293
   14MOL   C259 4445   0.191   0.611   0.052 -0.0933  0.2543 -0.9489
   14MOL   C260 4446   0.263   0.489   0.049 -0.4316  0.6845  0.4599
   14MOL   C261 4447   0.259   0.406   8.375  0.1719 -0.5080 -0.5148
   14MOL   C262 4448   0.191   0.453   8.261 -0.5585 -0.2288  0.3251
   14MOL  Cl263 4449   0.169   0.356   8.127 -0.2129  0.1271  0.1879
   14MOL   C264 4450   0.133   0.581   8.265 -0.0960  0.2470 -0.3752
   14MOL   C265 4451   0.127   0.658   8.387 -0.9130  0.4451 -0.1093
   14MOL   C266 4452   0.278   0.823   0.171  0.3392  0.8251  0.2482
   14MOL   H267 4453   0.229   0.630   0.255 -0.8206 -2.3225 -1.2911
   14MOL   H268 4454   0.318   0.441   0.129  1.6105 -2.2241 -2.5582
   14MOL   H269 4455   0.291   0.303   8.378  0.2655 -0.4612  0.2467
   14MOL   H270 4456   0.084   0.611   8.175 -0.2543  0.3149 -0.2655
   14MOL   H271 4457   0.082   0.756   8.393  0.7716  1.2621 -0.6914
   14MOL   H272 4458   0.354   0.805   0.095 -0.2998  2.3678 -0.7900
   14MOL   H273 4459   0.224   0.906   0.125  0.4437  0.4125 -0.6306
   14MOL   C274 4460   0.349   0.865   0.302  0.2842  0.1974 -0.7423
   14MOL   C275 4461   0.430   0.754   0.369  0.0530 -0.0785  0.2714
   14MOL   C276 4462   0.525   0.676   0.296 -0.3512  0.0107  0.4586
   14MOL   C277 4463   0.614   0.583   0.357  0.5309  0.5287 -0.0386
   14MOL   C278 4464   0.612   0.582   0.504 -0.1397  0.3598 -0.4677
   14MOL  Cl279 4465   0.727   0.485   0.588  0.1823 -0.1581  0.3085
   14MOL   C280 4466   0.513   0.642   0.572 -0.0086 -0.5500 -0.3950
   14MOL   C281 4467   0.424   0.735   0.507 -0.1028 -0.1492 -0.1715
   14MOL   C282 4468   0.442   0.983   0.263  0.2556  0.6866  0.5241
   14MOL   H283 4469   0.275   0.903   0.373  1.6335 -0.9857  1.3529
   14MOL   H284 4470   0.522   0.703   0.192 -3.0253  0.4098  0.5965
   14MOL   H285 4471   0.687   0.530   0.297  1.2156  0.0111  1.2376
   14MOL   H286 4472   0.509   0.639   0.680  0.7730  0.3055 -0.3299
   14MOL   H287 4473   0.366   0.805   0.565  1.2703 -1.3585  2.7550
   14MOL   H288 4474   0.493   0.958   0.170  0.7068  1.5312  0.5457
   14MOL   H289 4475   0.381   1.067   0.231 -2.7184 -0.6620  2.3646
   14MOL   C290 4476   0.539   1.031   0.368 -0.3899 -0.0891 -0.0893
   14MOL   C291 4477   0.664   1.103   0.315 -0.4081  0.0624  0.6749
   14MOL   C292 4478   0.792   1.069   0.362 -0.0036 -0.8207 -1.1297
   14MOL   C293 4479   0.903   1.126   0.301 -0.0017 -0.0195 -0.4866
   14MOL   C294 4480   0.896   1.221   0.198  0.2286 -0.0756  0.3295
   14MOL  Cl295 4481   1.040   1.271   0.119  0.6044 -0.1473  0.4181
   14MOL   C296 4482   0.769   1.256   0.154 -0.2695  0.4391  0.2008
   14MOL   C297 4483   0.656   1.208   0.220 -0.2355 -0.6809 -0.0524
   14MOL   C298 4484   0.474   1.115   0.482 -0.1248  0.0344 -0.2492
   14MOL   H299 4485   0.578   0.934   0.400 -0.7136  0.1494  1.0478
   14MOL   H300 4486   0.798   0.981   0.423  1.3344 -0.3949 -0.6282
   14MOL   H301 4487   1.003   1.088   0.314 -0.4435 -0.2735  2.3370
   14MOL   H302 4488   0.751   1.322   0.071 -2.0526  0.6542  0.7374
   14MOL   H303 4489   0.563   1.243   0.178 -0.7790 -1.7361  0.2618
   14MOL   H304 4490   0.432   1.206   0.438 -3.5525 -2.1686 -1.7415
   14MOL   H305 4491   0.386   1.061   0.516  0.7119 -0.9166  0.4122
   14MOL   C306 4492   0.566   1.149   0.605  0.3296 -0.0593  0.1103
   14MOL   C307 4493   0.566   1.298   0.646  1.0603 -1.1438  0.6362
   14MOL   C308 4494   0.489   1.336   0.759 -0.3541 -0.5664  0.2503
   14MOL   C309 4495   0.496   1.471   0.801  0.1080 -0.2134 -0.0452
   14MOL   C310 4496   0.581   1.565   0.744  0.0143  0.2969  1.0969
   14MOL  Cl311 4497   0.599   1.723   0.811 -0.2873  0.1190  0.2655
   14MOL   C312 4498   0.661   1.527   0.638 -0.4254 -0.1875  0.0222
   14MOL   C313 4499   0.648   1.398   0.578  0.2332  0.0023 -0.3031
   14MOL   C314 4500   0.533   1.051   0.718  0.0527  0.6046  0.1170
   14MOL   H315 4501   0.665   1.122   0.568  0.9903 -0.5037  2.1446
   14MOL   H316 4502   0.420   1.274   0.815  0.5927  0.6541  2.8571
   14MOL   H317 4503   0.444   1.511   0.887  1.6984  0.0433  0.8310
   14MOL   H318 4504   0.724   1.601   0.591 -1.2728  0.1011 -0.6576
   14MOL   H319 4505   0.705   1.366   0.493 -0.4312 -1.6403 -0.1345
   14MOL   H320 4506   0.429   1.055   0.749  0.3239  1.1686  0.9677
   14MOL   H321 4507   0.542   0.945   0.693  2.3908  0.3800  1.7300
   14MOL   H322 4508   0.593   1.064   0.808  1.8876  3.8064 -1.4980
   15MOL     C1 4509   6.456   1.457   2.353 -0.0917 -0.2372 -0.0623
   15MOL     C2 4510   6.552   1.455   2.467 -0.7240  0.2370  1.1408
   15MOL     C3 4511   6.570   1.557   2.562 -0.1620 -0.5252  0.1903
   15MOL     C4 4512   6.667   1.541   2.665 -0.2744  0.0368  0.3062
   15MOL     C5 4513   6.742   1.423   2.671 -0.6990 -0.1970  0.0824
   15MOL    Cl6 4514   6.850   1.409   2.805  0.3055  0.0784  0.2333
   15MOL     C7 4515   6.729   1.322   2.576 -0.2633 -0.0495  0.9533
   15MOL     C8 4516   6.627   1.334   2.477  0.4944 -0.1382  0.4243
   15MOL     C9 4517   6.517   1.515   2.231  0.3486  0.3286 -0.0082
   15MOL    H10 4518   6.371   1.522   2.372  0.0823 -0.6030  2.0412
   15MOL    H11 4519   6.509   1.646   2.570 -2.3653 -2.0187  0.2129
   15MOL    H12 4520   6.683   1.622   2.734 -0.2036  0.6713 -0.4418
   15MOL    H13 4521   6.780   1.227   2.581 -1.4817 -0.8679 -1.2898
   15MOL    H14 4522   6.615   1.263   2.396 -0.9156 -1.3828  1.6607
   15MOL    H15 4523   6.534   1.623   2.234 -0.1480  0.4338 -0.7599
   15MOL    H16 4524   6.620   1.479   2.231  0.2550 -0.0169 -2.1142
   15MOL    H17 4525   6.411   1.363   2.322  0.1660 -0.4780  0.2896
   15MOL    C18 4526   6.453   1.478   2.096 -0.7668  0.5467  0.3587
   15MOL    C19 4527   6.325   1.555   2.063  0.0716 -0.0748  0.3299
   15MOL    C20 4528   6.197   1.501   2.105  0.2326 -0.0877 -0.7539
   15MOL    C21 4529   6.072   1.576   2.093  0.6642  0.4381  1.3048
   15MOL    C22 4530   6.074   1.689   2.007  1.0089  0.3920  0.3809
   15MOL   Cl23 4531   5.921   1.769   1.976 -0.4106  0.1698  0.1439
   15MOL    C24 4532   6.194   1.744   1.951 -0.6856  0.1945  0.1534
   15MOL    C25 4533   6.317   1.677   1.980 -0.0310  0.7243  0.6179
   15MOL    C26 4534   6.565   1.487   1.988 -0.4849 -0.8919 -0.5776
   15MOL    H27 4535   6.429   1.372   2.106 -2.3707  0.8997  0.4715
   15MOL    H28 4536   6.199   1.407   2.157 -1.8577  0.2725  0.0187
   15MOL    H29 4537   5.970   1.548   2.114 -0.9724  3.2989 -2.2649
   15MOL    H30 4538   6.199   1.823   1.878 -0.5943 -0.1917 -0.2642
   15MOL    H31 4539   6.404   1.725   1.939  0.8357 -1.1677  0.1815
   15MOL    H32 4540   6.592   1.593   1.983 -2.5751 -0.3533 -0.7996
   15MOL    H33 4541   6.654   1.435   2.026 -1.1227 -0.5593  1.4601
   15MOL    C34 4542   6.532   1.433   1.846 -0.3570  0.5632 -0.4203
   15MOL    C35 4543   6.589   1.524   1.735 -0.1838 -0.4335  0.3274
   15MOL    C36 4544   6.506   1.584   1.638  0.8835  0.4888  0.5307
   15MOL    C37 4545   6.558   1.680   1.546 -0.2854  0.2049  0.1639
   15MOL    C38 4546   6.691   1.713   1.548  0.2200 -0.4559 -0.6032
   15MOL   Cl39 4547   6.760   1.815   1.426  0.1808  0.0947  0.4074
   15MOL    C40 4548   6.772   1.664   1.647  0.3642  0.0769 -1.0243
   15MOL    C41 4549   6.722   1.569   1.742 -0.1211 -0.1932  0.3969
   15MOL    C42 4550   6.584   1.283   1.827  0.2976 -0.0997  0.2404
   15MOL    H43 4551   6.424   1.438   1.829 -0.2870 -0.4891 -1.2080
   15MOL    H44 4552   6.402   1.557   1.628  1.2782 -0.5650 -0.9613
   15MOL    H45 4553   6.492   1.713   1.467 -0.9265 -0.0653  0.5838
   15MOL    H46 4554   6.871   1.705   1.658  1.1964 -1.8884 -0.9496
   15MOL    H47 4555   6.772   1.545   1.835  2.0881  0.4492 -0.5743
   15MOL    H48 4556   6.692   1.277   1.815  0.5362  4.6819 -1.0626
   15MOL    H49 4557   6.569   1.215   1.910  1.2632 -1.4631 -0.6691
   15MOL    C50 4558   6.509   1.217   1.703 -0.1365 -0.3024  0.2261
   15MOL    C51 4559   6.603   1.140   1.614 -0.3377 -0.4336 -0.1432
   15MOL    C52 4560   6.667   1.024   1.662  0.2904  0.3883  0.5242
   15MOL    C53 4561   6.748   0.939   1.579 -0.7057  0.0751  0.0027
   15MOL    C54 4562   6.764   0.981   1.447 -0.0939  0.9366  0.2989
   15MOL   Cl55 4563   6.870   0.885   1.351 -0.0035 -0.2428  0.3713
   15MOL    C56 4564   6.704   1.095   1.397 -0.4783  0.1931  0.3647
   15MOL    C57 4565   6.632   1.184   1.480 -0.0597  0.2470 -0.7387
   15MOL    C58 4566   6.389   1.139   1.756 -0.0825  0.7898 -0.2640
   15MOL    H59 4567   6.461   1.291   1.639 -1.5321 -0.5368  0.9838
   15MOL    H60 4568   6.658   0.997   1.767 -1.9230 -2.5320 -0.3369
   15MOL    H61 4569   6.793   0.848   1.616 -1.5248  0.6328  2.4833
   15MOL    H62 4570   6.724   1.132   1.298 -1.0141  1.2090  0.6317
   15MOL    H63 4571   6.589   1.278   1.446 -2.2061 -0.5125 -0.1932
   15MOL    H64 4572   6.419   1.046   1.804 -0.1519  0.4520 -0.8610
   15MOL    H65 4573   6.343   1.190   1.840  3.2960  1.7284  1.0722
   15MOL    C66 4574   6.268   1.108   1.653 -0.2477  0.4081 -0.2129
   15MOL    C67 4575   6.298   1.076   1.513 -0.4447  0.1161  0.4874
   15MOL    C68 4576   6.358   0.949   1.479  0.4101  0.3927 -0.3255
   15MOL    C69 4577   6.378   0.913   1.344 -0.0090  0.1975 -0.4682
   15MOL    C70 4578   6.344   1.000   1.239 -0.4790 -0.3877  0.1634
   15MOL   Cl71 4579   6.365   0.971   1.070 -0.2617  0.3673 -0.1907
   15MOL    C72 4580   6.278   1.119   1.270 -0.2215  0.3302 -0.8440
   15MOL    C73 4581   6.254   1.155   1.406 -0.6575  0.6306 -0.3040
   15MOL    C74 4582   6.162   1.012   1.721  0.0112  0.3217 -0.3477
   15MOL    H75 4583   6.233   1.209   1.630  1.5727  0.8734 -1.0243
   15MOL    H76 4584   6.377   0.886   1.564  1.5443  1.9101  0.5701
   15MOL    H77 4585   6.416   0.815   1.317  1.8341  1.1256 -1.2611
   15MOL    H78 4586   6.249   1.183   1.188 -0.5285  0.2481 -0.8005
   15MOL    H79 4587   6.211   1.252   1.428  0.6955  2.1427 -3.8462
   15MOL    H80 4588   6.089   0.979   1.647 -0.8709 -0.4593  0.8707
   15MOL    H81 4589   6.212   0.919   1.749 -1.0602  0.2267  1.2647
   15MOL    C82 4590   6.087   1.078   1.837 -0.4696 -0.1564  0.8474
   15MOL    C83 4591   6.020   1.205   1.800 -0.2336  0.7233 -0.2034
   15MOL    C84 4592   5.895   1.198   1.737 -0.8524 -0.1684 -0.4290
   15MOL    C85 4593   5.838   1.319   1.692 -0.8684  0.3432 -0.3795
   15MOL    C86 4594   5.902   1.442   1.714 -0.8888 -0.2402  0.4655
   15MOL   Cl87 4595   5.814   1.585   1.690  0.3307  0.1541  0.1178
   15MOL    C88 4596   6.026   1.448   1.777 -0.0615 -0.1540 -0.5763
   15MOL    C89 4597   6.085   1.327   1.816 -0.1233  0.4436  0.6201
   15MOL    C90 4598   5.991   0.967   1.900 -0.0862 -0.0261 -0.0909
   15MOL    H91 4599   6.157   1.097   1.918 -0.6185 -0.8819  1.1550
   15MOL    H92 4600   5.840   1.106   1.722  1.1393 -1.0842 -2.3557
   15MOL    H93 4601   5.736   1.329   1.657 -1.8172 -0.7342  1.9309
   15MOL    H94 4602   6.063   1.550   1.782 -0.0389 -0.2235  0.7137
   15MOL    H95 4603   6.179   1.318   1.869  2.5652  2.8824 -3.4247
   15MOL    H96 4604   5.908   0.937   1.837  0.1746 -0.1033 -0.4017
   15MOL    H97 4605   6.049   0.877   1.922 -2.1302 -1.2994  0.2440
   15MOL    C98 4606   5.942   1.005   2.040  0.2942 -0.0351  0.2934
   15MOL    C99 4607   5.826   1.107   2.033  0.4376  0.4002 -0.5482
   15MOL   C100 4608   5.703   1.080   1.960  0.3160 -0.1206 -0.1091
   15MOL   C101 4609   5.608   1.182   1.935  0.0328 -0.3665 -0.3828
   15MOL   C102 4610   5.634   1.305   1.995  0.7994 -0.5004 -0.1321
   15MOL  Cl103 4611   5.517   1.431   1.978  0.3238  0.0780 -0.2349
   15MOL   C104 4612   5.744   1.332   2.072  0.1343 -0.0955  0.0093
   15MOL   C105 4613   5.843   1.235   2.086  0.3145  0.0800 -0.6237
   15MOL   C106 4614   5.900   0.892   2.125  0.7962 -0.1087 -0.0428
   15MOL   H107 4615   6.024   1.047   2.099 -0.0009  0.1526  0.5679
   15MOL   H108 4616   5.685   0.984   1.914 -1.8519 -0.9327  2.3264
   15MOL   H109 4617   5.519   1.169   1.876  2.0156 -3.2587 -2.8871
   15MOL   H110 4618   5.754   1.425   2.127  2.3368 -0.2391 -0.0711
   15MOL   H111 4619   5.938   1.254   2.133 -0.6737  0.0901  1.4446
   15MOL   H112 4620   5.827   0.827   2.077 -0.1531 -0.1099  1.3843
   15MOL   H113 4621   5.982   0.821   2.115  1.2284  0.7357 -3.3381
   15MOL   C114 4622   5.867   0.924   2.282 -0.1309  0.1878  0.3011
   15MOL   C115 4623   5.718   0.942   2.320  0.0752  0.4367 -0.1639
   15MOL   C116 4624   5.679   1.052   2.395  0.1192 -0.0168 -0.2354
   15MOL   C117 4625   5.550   1.065   2.445  0.0532  0.2730  0.4361
   15MOL   C118 4626   5.450   0.966   2.415  0.2938  0.5068 -0.0500
   15MOL  Cl119 4627   5.293   0.977   2.488  0.3003 -0.1049  0.1177
   15MOL   C120 4628   5.489   0.854   2.343 -0.5703 -0.2253 -0.0047
   15MOL   C121 4629   5.616   0.844   2.285 -0.5396  0.1277  0.0451
   15MOL   C122 4630   5.938   0.821   2.373  0.5720 -0.1847  0.1710
   15MOL   H123 4631   5.908   1.024   2.299 -2.3602  0.9628  1.2970
   15MOL   H124 4632   5.753   1.127   2.422 -1.5678  0.5234  3.1777
   15MOL   H125 4633   5.531   1.156   2.501 -0.5757  1.0643 -1.0308
   15MOL   H126 4634   5.416   0.777   2.321 -0.1266 -0.0722 -2.1009
   15MOL   H127 4635   5.632   0.762   2.217 -1.5343 -0.0921  0.0752
   15MOL   H128 4636   5.896   0.815   2.473  0.0402  1.6231  0.0778
   15MOL   H129 4637   5.920   0.726   2.323  0.2624  0.3268 -0.7088
   15MOL   C130 4638   6.096   0.836   2.390  0.2292 -0.3967  0.2721
   15MOL   C131 4639   6.135   0.967   2.466  1.0261  0.8701 -0.1755
   15MOL   C132 4640   6.049   1.036   2.550  0.7135 -0.0031 -0.4699
   15MOL   C133 4641   6.097   1.152   2.614 -0.4041 -0.4646  0.1929
   15MOL   C134 4642   6.229   1.197   2.596  0.2201 -0.3601  0.3299
   15MOL  Cl135 4643   6.284   1.330   2.690 -0.3129 -0.2039 -0.2058
   15MOL   C136 4644   6.317   1.127   2.509 -0.2126  0.1388  0.2474
   15MOL   C137 4645   6.268   1.006   2.445 -0.5948 -0.1062  0.0441
   15MOL   C138 4646   6.164   0.719   2.462  0.6176 -0.1810  0.0933
   15MOL   H139 4647   6.143   0.837   2.292  1.9487 -0.6512  1.0800
   15MOL   H140 4648   5.949   1.006   2.579  0.1460  1.8784 -0.4144
   15MOL   H141 4649   6.037   1.197   2.691 -1.3710 -2.2646  0.5226
   15MOL   H142 4650   6.423   1.145   2.501 -0.0345  0.3720  2.7376
   15MOL   H143 4651   6.334   0.948   2.383  0.9682  0.7802  0.8361
   15MOL   H144 4652   6.265   0.744   2.496  0.6842 -1.1941  0.6525
   15MOL   H145 4653   6.106   0.714   2.554  1.6049  0.6793  0.7788
   15MOL   C146 4654   6.171   0.573   2.389  0.1149  0.2267 -0.0360
   15MOL   C147 4655   6.161   0.583   2.238 -0.0201  0.1744  0.3359
   15MOL   C148 4656   6.051   0.525   2.168 -0.2327  0.0221  0.2750
   15MOL   C149 4657   6.055   0.520   2.025 -0.2688 -0.4499  0.3502
   15MOL   C150 4658   6.156   0.590   1.953  0.6996  0.8123 -0.2835
   15MOL  Cl151 4659   6.145   0.573   1.787  0.3249 -0.1240 -0.1956
   15MOL   C152 4660   6.266   0.643   2.025  0.0460 -0.0675 -0.1205
   15MOL   C153 4661   6.266   0.641   2.167 -0.0022 -0.2006 -0.7815
   15MOL   C154 4662   6.285   0.491   2.447 -0.2867 -0.1192 -0.0209
   15MOL   H155 4663   6.089   0.512   2.426  0.3336 -1.6803 -2.5291
   15MOL   H156 4664   5.972   0.468   2.214  0.9399 -0.9493  1.1480
   15MOL   H157 4665   5.969   0.477   1.976 -2.0040  4.9336 -1.6506
   15MOL   H158 4666   6.347   0.697   1.977  0.1528  1.3873  1.6649
   15MOL   H159 4667   6.348   0.678   2.228 -1.6479  0.9831  0.7450
   15MOL   H160 4668   6.375   0.527   2.398  0.2491 -0.5956  0.6009
   15MOL   H161 4669   6.305   0.517   2.551 -0.3043  1.3222 -0.3638
   15MOL   C162 4670   6.277   0.339   2.428  0.8856  0.3695 -0.0144
   15MOL   C163 4671   6.416   0.275   2.426 -0.0859  0.2357  0.5446
   15MOL   C164 4672   6.447   0.189   2.320 -0.0789  0.5173  0.5365
   15MOL   C165 4673   6.575   0.126   2.315  0.2353  1.0368 -0.3764
   15MOL   C166 4674   6.667   0.143   2.412  0.6128  0.3010 -0.2455
   15MOL  Cl167 4675   6.816   0.063   2.402 -0.0619 -0.6711  0.0943
   15MOL   C168 4676   6.644   0.232   2.516  0.1598  0.0057  0.4690
   15MOL   C169 4677   6.512   0.299   2.522 -0.6455  0.0913  0.2321
   15MOL   C170 4678   6.190   0.267   2.533  0.1614 -0.1296  0.3890
   15MOL   H171 4679   6.239   0.318   2.327 -0.1954  1.2644  0.1990
   15MOL   H172 4680   6.379   0.163   2.240 -0.5028 -0.6414  1.2647
   15MOL   H173 4681   6.590   0.058   2.232 -0.4126 -1.3392  1.3953
   15MOL   H174 4682   6.716   0.265   2.589 -0.2182  0.8543  0.4674
   15MOL   H175 4683   6.495   0.358   2.610 -1.2835 -2.5327  1.9514
   15MOL   H176 4684   6.238   0.268   2.631  1.6321  0.1015 -0.3123
   15MOL   H177 4685   6.097   0.321   2.546  0.4477  0.3363  0.5148
   15MOL   C178 4686   6.147   0.122   2.488  0.0231 -0.2362  1.0902
   15MOL   C179 4687   6.254   0.015   2.492  0.5351 -0.3002 -0.1161
   15MOL   C180 4688   6.336   8.443   2.612 -0.1691  0.4367 -0.1781
   15MOL   C181 4689   6.444   8.353   2.614  0.4974 -0.2411 -0.0509
   15MOL   C182 4690   6.465   8.269   2.497  0.2927 -0.6049 -0.0641
   15MOL  Cl183 4691   6.589   8.153   2.486  0.0045 -0.4984  0.0592
   15MOL   C184 4692   6.379   8.275   2.381 -0.6698  0.4458 -0.3429
   15MOL   C185 4693   6.271   8.368   2.377 -0.4600  0.0150  0.1178
   15MOL   C186 4694   6.036   0.075   2.590  0.4003  0.8274 -0.3011
   15MOL   H187 4695   6.114   0.128   2.384  2.1125  0.1082  0.4144
   15MOL   H188 4696   6.322   0.067   2.696  2.4645  1.5436 -0.5922
   15MOL   H189 4697   6.509   8.348   2.700  0.4673 -2.1253 -0.1261
   15MOL   H190 4698   6.392   8.211   2.295  0.7784 -0.4570  0.5319
   15MOL   H191 4699   6.202   8.378   2.294  0.3292  1.1469 -0.4156
   15MOL   H192 4700   6.087   0.072   2.686  3.7635  1.0704 -2.0282
   15MOL   H193 4701   5.968   0.153   2.625  0.1646 -0.9740  3.4293
   15MOL   C194 4702   5.969   8.379   2.556 -0.2792  0.3556 -0.0796
   15MOL   C195 4703   5.990   8.277   2.667 -0.3570  0.1720 -0.1051
   15MOL   C196 4704   6.064   8.164   2.642  0.2999  0.1751 -0.9954
   15MOL   C197 4705   6.078   8.070   2.745 -0.0282  1.0348  0.6258
   15MOL   C198 4706   6.040   8.093   2.876  0.3542 -0.1121  0.3896
   15MOL  Cl199 4707   6.065   7.968   2.991 -0.2229  0.1317 -0.1549
   15MOL   C200 4708   5.973   8.211   2.900 -0.5033  0.9008  0.5605
   15MOL   C201 4709   5.942   8.307   2.798  0.3525  0.3623 -0.4860
   15MOL   C202 4710   5.819   8.402   2.536  0.8114 -0.7879  0.4995
   15MOL   H203 4711   6.013   8.333   2.467  0.4120  1.7812 -0.4868
   15MOL   H204 4712   6.102   8.142   2.543  1.9149  1.3295 -0.6589
   15MOL   H205 4713   6.118   7.972   2.725 -0.6473  0.3202  2.7318
   15MOL   H206 4714   5.942   8.236   3.001  3.1310  1.7184  1.5416
   15MOL   H207 4715   5.891   8.399   2.821 -0.6481 -0.4034  0.4431
   15MOL   H208 4716   5.776   8.302   2.539 -1.0418 -0.0222  0.1352
   15MOL   H209 4717   5.782   0.002   2.629  2.2305 -0.2860  0.8453
   15MOL   C210 4718   5.774   0.044   2.414 -0.0987  0.0872  1.1344
   15MOL   C211 4719   5.821   8.429   2.286 -0.3565  0.3461  0.2837
   15MOL   C212 4720   5.909   0.065   2.206 -0.8467 -0.1208 -0.4638
   15MOL   C213 4721   5.945   0.015   2.080  0.2469 -0.4640  0.0484
   15MOL   C214 4722   5.891   8.340   2.029  0.3105 -0.4283 -0.2631
   15MOL  Cl215 4723   5.942   8.278   1.875 -0.0171  0.2603 -0.1380
   15MOL   C216 4724   5.803   8.255   2.113 -0.4268 -0.3291  0.0617
   15MOL   C217 4725   5.766   8.303   2.240 -0.0654 -0.6325 -0.0042
   15MOL   C218 4726   5.623   0.062   2.424 -0.8980  0.3883  0.0740
   15MOL   H219 4727   5.810   0.146   2.427 -1.1749  0.5028  0.9053
   15MOL   H220 4728   5.942   0.163   2.237 -0.7015 -0.4811  0.5480
   15MOL   H221 4729   6.013   0.067   2.013  1.9649 -0.5778  1.6550
   15MOL   H222 4730   5.784   8.157   2.070 -0.2047  0.9603 -3.1458
   15MOL   H223 4731   5.708   8.242   2.308  0.1503 -0.6118  0.1993
   15MOL   H224 4732   5.572   8.422   2.376 -1.6809 -0.3499  2.1559
   15MOL   H225 4733   5.595   0.057   2.529  0.2477  1.2603  0.4307
   15MOL   C226 4734   5.561   0.189   2.359 -0.4617 -0.5556  0.4558
   15MOL   C227 4735   5.588   0.315   2.438  0.0653  0.0573 -0.0333
   15MOL   C228 4736   5.711   0.384   2.421  0.1110 -0.1303 -0.7109
   15MOL   C229 4737   5.733   0.514   2.475 -0.6947  0.4620 -0.2461
   15MOL   C230 4738   5.629   0.568   2.555 -0.2787  0.0165 -0.3647
   15MOL  Cl231 4739   5.637   0.723   2.632  0.1006 -0.2144 -0.4024
   15MOL   C232 4740   5.508   0.499   2.574  0.1455  0.0067  0.3394
   15MOL   C233 4741   5.493   0.368   2.521  0.5342 -0.5513  0.0782
   15MOL   C234 4742   5.588   0.198   2.206 -0.0635 -0.3459  0.3027
   15MOL   H235 4743   5.453   0.178   2.363 -0.8116  1.6868 -1.4973
   15MOL   H236 4744   5.790   0.349   2.356  0.4936  2.2466 -1.5941
   15MOL   H237 4745   5.827   0.566   2.473 -0.1146 -0.5864 -3.4450
   15MOL   H238 4746   5.431   0.543   2.636  1.1516 -0.2347  1.8061
   15MOL   H239 4747   5.402   0.316   2.549 -0.6092  2.0572  1.3203
   15MOL   H240 4748   5.579   0.303   2.179 -2.0660 -0.4385  0.5509
   15MOL   H241 4749   5.690   0.173   2.176 -0.2630  0.3635 -0.9652
   15MOL   C242 4750   5.473   0.118   2.122 -0.0337 -0.5526 -0.4485
   15MOL   C243 4751   5.386   0.215   2.039  1.1460  0.3807 -0.2879
   15MOL   C244 4752   5.248   0.224   2.061 -0.4808  0.4546 -0.2204
   15MOL   C245 4753   5.179   0.313   1.985  0.4862 -0.4896  1.1354
   15MOL   C246 4754   5.239   0.378   1.874 -0.1273  0.3284 -0.6461
   15MOL  Cl247 4755   5.133   0.484   1.792 -0.4056  0.1752  0.4152
   15MOL   C248 4756   5.375   0.369   1.846 -0.2836 -0.1477 -0.4192
   15MOL   C249 4757   5.450   0.285   1.932  0.3481 -0.2029  0.2679
   15MOL   C250 4758   5.521   8.440   2.038  0.4670 -0.4982  0.9798
   15MOL   H251 4759   5.401   0.067   2.186 -0.1696  0.2981  0.0722
   15MOL   H252 4760   5.197   0.182   2.146 -0.7561  1.6868  0.2262
   15MOL   H253 4761   5.072   0.320   1.994  0.5039  0.9050  0.2980
   15MOL   H254 4762   5.422   0.413   1.759  1.9902 -0.0481  0.8246
   15MOL   H255 4763   5.554   0.259   1.923  0.4945  0.3464  0.3881
   15MOL   H256 4764   5.606   0.040   1.985 -2.0522  1.4600 -1.5692
   15MOL   H257 4765   5.564   8.358   2.096  0.5985 -1.4160 -0.3833
   15MOL   C258 4766   5.419   8.377   1.944 -0.5414  0.4496 -0.1763
   15MOL   C259 4767   5.476   8.395   1.801 -0.2945 -0.5545 -0.3519
   15MOL   C260 4768   5.422   0.050   1.715 -0.6464 -0.3259 -0.0259
   15MOL   C261 4769   5.461   0.061   1.584  0.4383  0.2381  0.4915
   15MOL   C262 4770   5.559   8.415   1.535  0.0275  0.6155 -0.7740
   15MOL  Cl263 4771   5.606   8.440   1.377 -0.0143  0.5272  0.5919
   15MOL   C264 4772   5.615   8.315   1.616  0.1046  0.3641 -0.0147
   15MOL   C265 4773   5.573   8.307   1.751 -0.3238  0.2072 -0.3866
   15MOL   C266 4774   5.388   8.233   1.975 -0.3796  0.1909 -0.3566
   15MOL   H267 4775   5.327   8.435   1.949 -1.8612 -1.6490  0.2077
   15MOL   H268 4776   5.345   0.119   1.747 -0.9425 -1.2912  1.3510
   15MOL   H269 4777   5.415   0.135   1.520  0.5590  0.7778  1.0187
   15MOL   H270 4778   5.689   8.246   1.578  0.9919  1.4258 -0.2663
   15MOL   H271 4779   5.608   8.221   1.806 -1.4154 -0.4215 -0.6607
   15MOL   H272 4780   5.322   8.197   1.896 -0.9646  0.3234  0.0715
   15MOL   H273 4781   5.484   8.182   1.975 -0.3852  0.1837 -0.0559
   15MOL   C274 4782   5.311   8.216   2.104 -0.4238 -0.0471 -0.0909
   15MOL   C275 4783   5.174   8.284   2.103 -0.0677 -0.1417  0.4209
   15MOL   C276 4784   5.126   8.359   2.215 -0.2664 -0.2072 -0.7269
   15MOL   C277 4785   5.003   8.416   2.212  0.7929  0.7035  0.4328
   15MOL   C278 4786   4.924   8.409   2.100 -0.3008  0.6639 -0.2265
   15MOL  Cl279 4787   4.779   0.053   2.100 -0.2311 -0.2322  0.3909
   15MOL   C280 4788   4.964   8.330   1.987  0.7526 -0.5044 -0.0240
   15MOL   C281 4789   5.086   8.269   1.986  0.0194  0.2758  0.0248
   15MOL   C282 4790   5.302   8.067   2.148 -0.0428  0.3206  0.1088
   15MOL   H283 4791   5.369   8.252   2.189 -1.5634  0.1296  0.6201
   15MOL   H284 4792   5.186   8.377   2.303 -0.0495  1.4358 -1.1872
   15MOL   H285 4793   4.968   0.031   2.297  1.2584 -1.5129  2.1862
   15MOL   H286 4794   4.900   8.309   1.903  0.1032  0.2303  0.2891
   15MOL   H287 4795   5.122   8.207   1.906  1.6989 -0.5405  1.3841
   15MOL   H288 4796   5.233   8.018   2.079 -1.0022  0.6543  0.8149
   15MOL   H289 4797   5.400   8.024   2.128 -0.2139  0.0101 -0.0527
   15MOL   C290 4798   5.296   8.036   2.302 -0.1235  0.1500 -0.8078
   15MOL   C291 4799   5.160   8.079   2.366  0.7474  0.3927  0.0563
   15MOL   C292 4800   5.035   8.060   2.295 -0.4679  0.3423 -0.0241
   15MOL   C293 4801   4.914   8.082   2.351  0.6994 -0.3492 -0.2713
   15MOL   C294 4802   4.903   8.132   2.483  0.6143 -0.3007 -0.1556
   15MOL  Cl295 4803   4.750   8.168   2.561 -0.1391 -0.5309 -0.3023
   15MOL   C296 4804   5.019   8.151   2.551 -0.8668 -0.3749  0.1886
   15MOL   C297 4805   5.153   8.132   2.494 -0.2553 -0.4668 -0.1761
   15MOL   C298 4806   5.323   7.887   2.341  0.2660 -0.7204 -0.5764
   15MOL   H299 4807   5.372   8.101   2.347 -0.7208  0.5693 -0.3933
   15MOL   H300 4808   5.045   8.018   2.196 -1.3663  1.8942 -0.7828
   15MOL   H301 4809   4.823   8.061   2.296 -0.3954 -3.5169  2.5843
   15MOL   H302 4810   5.015   8.185   2.653 -0.6536 -1.6910  0.6477
   15MOL   H303 4811   5.243   8.161   2.546 -0.5272 -0.1688  0.1271
   15MOL   H304 4812   5.319   7.895   2.450  0.6749  1.9215 -0.7321
   15MOL   H305 4813   5.246   7.815   2.311 -0.1662 -1.1861  1.5124
   15MOL   C306 4814   5.463   7.831   2.309  0.3857 -0.4007 -0.5356
   15MOL   C307 4815   5.544   7.785   2.430  0.2823  0.0202 -0.3858
   15MOL   C308 4816   5.489   7.694   2.522  0.5794  0.3224  0.3075
   15MOL   C309 4817   5.570   7.653   2.628  0.2675  0.0953  0.3267
   15MOL   C310 4818   5.694   7.708   2.655  0.0772 -0.6833  1.0161
   15MOL  Cl311 4819   5.769   7.646   2.802 -0.4892 -0.1070  0.0736
   15MOL   C312 4820   5.753   7.796   2.559  0.3310  0.6984  0.1729
   15MOL   C313 4821   5.679   7.838   2.449 -0.0245 -0.0388 -0.0965
   15MOL   C314 4822   5.457   7.714   2.212 -0.5397 -0.3607  0.8432
   15MOL   H315 4823   5.528   7.896   2.250 -0.3762  0.5392 -0.3561
   15MOL   H316 4824   5.392   7.650   2.507  0.1802  1.8117 -1.7424
   15MOL   H317 4825   5.546   7.582   2.705  0.6217 -0.6445 -0.2365
   15MOL   H318 4826   5.849   7.844   2.562  0.0610  1.5771 -2.8302
   15MOL   H319 4827   5.717   7.913   2.381 -0.0376 -1.0491 -1.2471
   15MOL   H320 4828   5.386   7.733   2.131 -0.2919 -1.4704  0.3679
   15MOL   H321 4829   5.558   7.690   2.179 -1.1163  0.0208 -1.2403
   15MOL   H322 4830   5.428   7.624   2.265 -0.5982  0.8584  2.9583
   16MOL     C1 4831   8.418   7.904   3.299 -0.1894  0.0714 -0.0732
   16MOL     C2 4832   8.274   7.924   3.268 -0.5092  0.1016  0.3211
   16MOL     C3 4833   8.192   7.811   3.254  0.0948 -0.7397  0.0556
   16MOL     C4 4834   8.055   7.831   3.228 -0.2331 -0.0228  0.5149
   16MOL     C5 4835   8.002   7.959   3.200 -0.3271 -0.7820 -0.2168
   16MOL    Cl6 4836   7.842   7.983   3.143 -0.1348 -0.2231 -0.2807
   16MOL     C7 4837   8.087   8.073   3.230 -0.2415 -0.1646 -0.0174
   16MOL     C8 4838   8.223   8.053   3.259  0.8079  1.0864 -0.3633
   16MOL     C9 4839   0.015   7.968   3.433  0.4457  0.7858  0.1507
   16MOL    H10 4840   0.035   7.951   3.221 -0.2873  1.4492  0.6711
   16MOL    H11 4841   8.235   7.713   3.268  0.7570 -0.4562 -0.0033
   16MOL    H12 4842   7.985   7.751   3.210  1.1884 -0.8837 -1.3235
   16MOL    H13 4843   8.046   8.172   3.220 -0.5302 -0.2381  0.4458
   16MOL    H14 4844   8.295   8.131   3.279  2.2578 -0.6233  1.3678
   16MOL    H15 4845   0.039   8.072   3.412 -0.0153  1.6652  3.8056
   16MOL    H16 4846   8.374   7.970   3.502 -0.2500 -1.0606 -0.6001
   16MOL    H17 4847   0.009   7.801   3.300 -0.4045 -0.0028 -0.2412
   16MOL    C18 4848   0.123   7.882   3.499  0.0656  0.6075  0.4689
   16MOL    C19 4849   0.241   7.847   3.410 -0.4473  0.1491 -0.1415
   16MOL    C20 4850   0.296   7.945   3.330 -0.0398 -1.0279  0.1640
   16MOL    C21 4851   0.406   7.926   3.250 -0.6315 -0.4154 -0.6658
   16MOL    C22 4852   0.477   7.802   3.257  0.0876 -1.0144 -0.2392
   16MOL   Cl23 4853   0.612   7.779   3.146 -0.2733 -0.6638 -0.2943
   16MOL    C24 4854   0.427   7.705   3.346 -0.0319 -0.6569  0.4216
   16MOL    C25 4855   0.307   7.724   3.419  0.1735  0.2327 -0.0477
   16MOL    C26 4856   0.168   7.941   3.640 -0.3851  0.1139  0.2913
   16MOL    H27 4857   0.070   7.788   3.512  1.4345 -0.1567  0.5604
   16MOL    H28 4858   0.250   8.042   3.322 -1.4217 -1.8578 -2.6458
   16MOL    H29 4859   0.433   7.995   3.171 -2.2158  2.2399  1.0628
   16MOL    H30 4860   0.471   7.607   3.352 -1.6114 -1.3656  0.6272
   16MOL    H31 4861   0.268   7.643   3.478 -0.9072  1.1089  0.4670
   16MOL    H32 4862   0.226   8.032   3.620  1.1323 -1.3929 -2.4464
   16MOL    H33 4863   0.079   7.982   3.688  0.1245  0.2379  1.1422
   16MOL    C34 4864   0.244   7.839   3.735 -0.0388  0.5163  0.3939
   16MOL    C35 4865   0.294   7.911   3.857  1.1053  0.4191 -0.5917
   16MOL    C36 4866   0.200   7.974   3.946 -0.1328  0.0030  0.2478
   16MOL    C37 4867   0.247   8.046   4.058 -0.1290 -0.1138  0.1347
   16MOL    C38 4868   0.380   8.042   4.091  0.3773  0.4385 -0.2380
   16MOL   Cl39 4869   0.440   8.104   4.243 -0.1303 -0.1106 -0.1372
   16MOL    C40 4870   0.469   7.972   4.009  0.1519 -0.8221  0.4956
   16MOL    C41 4871   0.430   7.912   3.886  0.0959  0.3005  0.3800
   16MOL    C42 4872   0.156   7.720   3.779  0.2859 -0.1446 -0.3812
   16MOL    H43 4873   0.327   7.800   3.677 -1.9506 -0.9649 -1.4401
   16MOL    H44 4874   0.095   7.956   3.930  0.0204  2.0543 -3.5752
   16MOL    H45 4875   0.171   8.097   4.116 -1.4572  1.3547 -2.7798
   16MOL    H46 4876   0.575   7.969   4.028  0.5677 -0.1047 -1.5690
   16MOL    H47 4877   0.495   7.878   3.808  1.3288 -1.3048  2.0706
   16MOL    H48 4878   0.064   7.759   3.824 -0.3677 -0.9640 -0.9818
   16MOL    H49 4879   0.121   7.675   3.686  0.4390  1.9987 -1.5178
   16MOL    C50 4880   0.221   7.608   3.870 -0.3778  0.1641 -0.1201
   16MOL    C51 4881   0.126   7.493   3.906 -0.8339 -0.1929 -0.5653
   16MOL    C52 4882   0.102   7.445   4.042  0.1996  0.2354 -0.2173
   16MOL    C53 4883   0.008   7.342   4.055 -0.8849  0.3878 -0.0738
   16MOL    C54 4884   8.383   7.287   3.944 -0.3751  0.3882  0.2263
   16MOL   Cl55 4885   8.264   7.166   3.970 -0.1105  0.0184 -0.4875
   16MOL    C56 4886   8.408   7.335   3.817 -0.1979 -0.8456  0.0385
   16MOL    C57 4887   0.060   7.435   3.796 -0.0523  0.9174 -0.1689
   16MOL    C58 4888   0.351   7.552   3.819 -0.3570 -0.0409 -0.5817
   16MOL    H59 4889   0.223   7.675   3.957 -0.3520 -0.5580  0.4352
   16MOL    H60 4890   0.158   7.489   4.124  1.0829  0.3525 -0.8678
   16MOL    H61 4891   8.425   7.300   4.152  1.1256 -0.5097  0.1094
   16MOL    H62 4892   8.357   7.287   3.735 -0.9661  1.8767 -1.1269
   16MOL    H63 4893   0.068   7.474   3.696 -0.5408 -1.0559 -1.0052
   16MOL    H64 4894   0.350   7.443   3.809  1.7656 -0.0574 -0.8144
   16MOL    H65 4895   0.373   7.588   3.718 -0.4796 -0.6161 -0.8142
   16MOL    C66 4896   0.470   7.573   3.921  0.2836 -0.1401  0.1912
   16MOL    C67 4897   0.439   7.539   4.064  0.9778 -0.0295  0.0975
   16MOL    C68 4898   0.406   7.405   4.094  0.6210  0.3865 -0.3327
   16MOL    C69 4899   0.369   7.379   4.226 -0.2794 -0.2499 -0.0731
   16MOL    C70 4900   0.358   7.477   4.322 -1.0041 -0.1023  0.0837
   16MOL   Cl71 4901   0.303   7.431   4.479 -0.2457  0.0484  0.0181
   16MOL    C72 4902   0.400   7.610   4.290  0.1586  0.2362  0.0515
   16MOL    C73 4903   0.430   7.645   4.160 -0.3052 -0.5869  0.1628
   16MOL    C74 4904   0.606   7.502   3.870 -0.1545 -0.3924  0.1543
   16MOL    H75 4905   0.492   7.680   3.919  0.3431 -0.1588 -2.9460
   16MOL    H76 4906   0.396   7.323   4.025  0.6484 -2.1152  2.5132
   16MOL    H77 4907   0.334   7.282   4.256  0.5511 -0.2121  1.0570
   16MOL    H78 4908   0.401   7.687   4.365  2.2250 -0.4091  0.7200
   16MOL    H79 4909   0.437   7.750   4.137 -1.8743 -0.2282  1.2814
   16MOL    H80 4910   0.577   7.398   3.854 -1.5670 -0.6871  4.0813
   16MOL    H81 4911   0.634   7.544   3.774 -1.7112  1.2659  0.3835
   16MOL    C82 4912   0.734   7.513   3.966  0.1952  0.1214 -0.5296
   16MOL    C83 4913   0.844   7.423   3.929 -0.5675 -0.2439  0.2173
   16MOL    C84 4914   0.931   7.371   4.029 -0.4100 -1.0483 -0.5638
   16MOL    C85 4915   1.040   7.294   3.997 -0.2207  0.5439  0.1594
   16MOL    C86 4916   1.062   7.264   3.861  0.4966 -0.1259 -0.7900
   16MOL   Cl87 4917   1.189   7.153   3.823  0.0057 -0.0963 -0.3577
   16MOL    C88 4918   0.977   7.311   3.757 -0.4117  0.1617 -0.2369
   16MOL    C89 4919   0.870   7.391   3.794  0.4989  0.0526 -0.2268
   16MOL    C90 4920   0.781   7.658   3.967  0.1727  0.4369  0.2806
   16MOL    H91 4921   0.704   7.485   4.067  0.7853 -0.6390 -0.5528
   16MOL    H92 4922   0.909   7.398   4.132  0.7685  0.8980 -0.7811
   16MOL    H93 4923   1.109   7.259   4.073 -0.3845  0.5258  0.2990
   16MOL    H94 4924   0.991   7.265   3.660 -1.2160 -2.4323  0.8263
   16MOL    H95 4925   0.804   7.416   3.712 -0.5170  2.9231  1.3982
   16MOL    H96 4926   0.820   7.673   3.866 -1.2186  0.2335 -0.2889
   16MOL    H97 4927   0.704   7.735   3.968  0.1174  0.3833  1.5290
   16MOL    C98 4928   0.888   7.694   4.070  0.2674 -0.0927 -1.0185
   16MOL    C99 4929   0.924   7.837   4.039  0.1599  0.1326  0.0185
   16MOL   C100 4930   0.851   7.939   4.099 -0.7313  0.0771 -0.7521
   16MOL   C101 4931   0.890   8.072   4.082  0.5349  0.5275  0.3333
   16MOL   C102 4932   1.001   8.102   4.004  0.6752 -0.4517  0.0408
   16MOL  Cl103 4933   1.048   8.272   4.002 -0.1573  0.1734 -0.3330
   16MOL   C104 4934   1.069   7.995   3.933 -0.3192  0.3974  0.6912
   16MOL   C105 4935   1.035   7.862   3.952  0.3734 -0.1687  0.4927
   16MOL   C106 4936   0.827   7.669   4.207 -0.6759  0.1519 -0.7720
   16MOL   H107 4937   0.977   7.636   4.048  0.9821 -0.4404  2.4836
   16MOL   H108 4938   0.767   7.929   4.167 -0.1132 -0.2466 -0.0332
   16MOL   H109 4939   0.821   8.143   4.126  1.4473  1.1519  0.7745
   16MOL   H110 4940   1.151   8.027   3.870 -0.5623 -0.0473  0.1343
   16MOL   H111 4941   1.087   7.779   3.906  1.4007 -0.9294  2.9394
   16MOL   H112 4942   0.728   7.711   4.193 -0.2319  1.2319 -0.7334
   16MOL   H113 4943   0.816   7.561   4.223  0.3273 -0.0872 -1.5760
   16MOL   C114 4944   0.892   7.726   4.333 -0.3652 -0.1339  0.1201
   16MOL   C115 4945   0.802   7.695   4.451  0.0922 -0.4742 -0.0078
   16MOL   C116 4946   0.831   7.584   4.537 -0.5082  0.1848 -0.0503
   16MOL   C117 4947   0.755   7.566   4.651  0.2148 -0.0292 -0.3281
   16MOL   C118 4948   0.644   7.648   4.683 -0.3169  0.4681 -0.2303
   16MOL  Cl119 4949   0.544   7.615   4.826  0.0506  0.1943  0.6350
   16MOL   C120 4950   0.615   7.758   4.593 -0.1779  0.3078  0.4490
   16MOL   C121 4951   0.693   7.777   4.480  0.6431 -0.4553  0.0121
   16MOL   C122 4952   1.043   7.690   4.355  0.3830  0.2100  0.4860
   16MOL   H123 4953   0.890   7.835   4.332 -2.4732 -0.1300  2.0405
   16MOL   H124 4954   0.917   7.520   4.522 -0.8415 -0.3666  0.3324
   16MOL   H125 4955   0.777   7.489   4.724 -0.6323 -0.8347 -0.9056
   16MOL   H126 4956   0.534   7.824   4.620  0.0840  1.3891 -1.3383
   16MOL   H127 4957   0.656   7.859   4.421 -0.6537  0.2934  1.8077
   16MOL   H128 4958   1.060   7.665   4.460  2.3521  1.1363  0.4020
   16MOL   H129 4959   1.064   7.596   4.304  3.5160  0.7832  0.6138
   16MOL   C130 4960   1.145   7.799   4.309  0.1848  0.0011 -1.0197
   16MOL   C131 4961   1.145   7.934   4.375 -0.0956  0.5540  0.0602
   16MOL   C132 4962   1.113   7.952   4.512  0.3638 -0.2323  0.0104
   16MOL   C133 4963   1.125   8.084   4.568  0.1384  0.1059 -0.0877
   16MOL   C134 4964   1.194   8.189   4.499  0.6830  0.9190  0.2423
   16MOL  Cl135 4965   1.230   8.339   4.585  0.3079  0.6095  0.3687
   16MOL   C136 4966   1.213   8.173   4.361  0.1412  0.4347  0.2538
   16MOL   C137 4967   1.183   8.049   4.304 -0.3715  0.4059 -0.2737
   16MOL   C138 4968   1.288   7.747   4.319 -0.0368 -0.1859 -0.1395
   16MOL   H139 4969   1.128   7.810   4.202  0.7913 -0.1062 -1.1328
   16MOL   H140 4970   1.092   7.867   4.576  3.5405 -0.5885  0.6345
   16MOL   H141 4971   1.087   8.098   4.668 -1.6737  0.4269 -0.8020
   16MOL   H142 4972   1.237   8.249   4.289  2.5739 -1.1110 -0.6391
   16MOL   H143 4973   1.204   8.037   4.198 -0.1926 -2.6013  0.0642
   16MOL   H144 4974   1.365   7.824   4.308  0.0867 -0.3399 -0.3553
   16MOL   H145 4975   1.310   7.716   4.421 -2.1570 -1.8924 -0.1760
   16MOL   C146 4976   1.325   7.626   4.231  0.0654  0.9360 -0.1462
   16MOL   C147 4977   1.327   7.647   4.080  0.1828  0.1307  0.2389
   16MOL   C148 4978   1.267   7.545   4.002  0.2263  0.3833  1.1671
   16MOL   C149 4979   1.270   7.551   3.858 -0.1886  0.0342  0.4382
   16MOL   C150 4980   1.336   7.663   3.795 -0.0627 -0.3362  0.0244
   16MOL  Cl151 4981   1.317   7.684   3.625  0.0370 -0.2850  0.4708
   16MOL   C152 4982   1.384   7.765   3.873 -0.4755 -0.5264  0.4681
   16MOL   C153 4983   1.380   7.763   4.017 -0.8148  1.0356  0.1933
   16MOL   C154 4984   1.462   7.563   4.279 -0.6323 -0.1489  0.3339
   16MOL   H155 4985   1.251   7.547   4.243 -0.3050  1.2953 -0.0475
   16MOL   H156 4986   1.221   7.461   4.051  0.7665  0.2792  1.4998
   16MOL   H157 4987   1.217   7.470   3.810 -0.6010 -0.0287  0.9974
   16MOL   H158 4988   1.427   7.849   3.820 -0.1779 -2.0085 -1.7216
   16MOL   H159 4989   1.427   7.838   4.078  0.5674  1.4653 -1.3488
   16MOL   H160 4990   1.507   7.515   4.192 -1.9767  0.3626 -0.6716
   16MOL   H161 4991   1.534   7.641   4.301  0.4029 -0.9959 -0.0152
   16MOL   C162 4992   1.443   7.461   4.399 -0.1593  0.3495  0.4467
   16MOL   C163 4993   1.389   7.328   4.347 -0.4960  0.2259  0.3646
   16MOL   C164 4994   1.466   7.256   4.256  0.6270 -0.0169  0.1271
   16MOL   C165 4995   1.421   7.139   4.187  0.2552 -0.0244  0.3460
   16MOL   C166 4996   1.296   7.090   4.225 -0.1193  0.2137  0.8301
   16MOL  Cl167 4997   1.238   6.954   4.143  0.1839  0.0485  0.2892
   16MOL   C168 4998   1.211   7.162   4.315 -0.3289  0.0946  0.1109
   16MOL   C169 4999   1.254   7.284   4.366 -0.7518  0.0122  0.4903
   16MOL   C170 5000   1.569   7.450   4.484 -0.2859  0.0144 -0.1277
   16MOL   H171 5001   1.369   7.510   4.462 -1.2664 -2.2373  1.2411
   16MOL   H172 5002   1.569   7.280   4.235  0.2841 -0.3674 -2.0746
   16MOL   H173 5003   1.486   7.087   4.119 -0.6765 -1.0034  0.1862
   16MOL   H174 5004   1.109   7.131   4.331 -0.7636  1.6750  0.4172
   16MOL   H175 5005   1.196   7.341   4.437  1.5564  2.1258  0.7712
   16MOL   H176 5006   1.645   7.410   4.417 -0.0668 -0.8795  0.6575
   16MOL   H177 5007   1.603   7.549   4.515 -1.0117  0.9005 -2.1118
   16MOL   C178 5008   1.555   7.356   4.611  0.1683 -0.3460  0.6706
   16MOL   C179 5009   1.688   7.301   4.653  0.7978  0.0090 -0.4170
   16MOL   C180 5010   1.764   7.383   4.736  0.1872 -0.4002  0.8266
   16MOL   C181 5011   1.890   7.338   4.772  0.2397  1.0927 -0.0029
   16MOL   C182 5012   1.932   7.204   4.746 -0.4301 -0.8150  0.6380
   16MOL  Cl183 5013   2.071   7.143   4.802 -0.2567 -0.0651  0.4264
   16MOL   C184 5014   1.855   7.123   4.656  0.2848 -0.0072  0.9100
   16MOL   C185 5015   1.730   7.167   4.612 -0.0172  0.2067  0.7887
   16MOL   C186 5016   1.472   7.426   4.724  0.5224  0.2584 -0.1408
   16MOL   H187 5017   1.495   7.273   4.574  0.2347 -0.2985  0.4514
   16MOL   H188 5018   1.728   7.478   4.773  0.0494 -0.4315  0.7712
   16MOL   H189 5019   1.955   7.395   4.836 -0.3401  3.1349 -1.1836
   16MOL   H190 5020   1.898   7.030   4.624  0.7141  1.1601 -2.0988
   16MOL   H191 5021   1.682   7.109   4.534  1.5605  2.1919 -1.7546
   16MOL   H192 5022   1.514   7.526   4.736  1.8557 -0.2486 -0.5657
   16MOL   H193 5023   1.370   7.437   4.685 -0.0238 -0.5855  1.0222
   16MOL   C194 5024   1.472   7.356   4.866 -0.3491  0.3567 -0.2947
   16MOL   C195 5025   1.390   7.430   4.972  0.5418  0.1781 -0.4044
   16MOL   C196 5026   1.249   7.435   4.959  0.5964  0.5322 -0.7936
   16MOL   C197 5027   1.171   7.481   5.065 -0.1557 -0.0776  0.1524
   16MOL   C198 5028   1.228   7.524   5.186  0.5394 -0.1561 -0.1013
   16MOL  Cl199 5029   1.137   7.574   5.321 -0.0728  0.2280  0.4353
   16MOL   C200 5030   1.365   7.525   5.195 -0.1905 -0.5957  0.2005
   16MOL   C201 5031   1.446   7.478   5.090  0.0124 -0.7310 -0.2963
   16MOL   C202 5032   1.422   7.203   4.859  0.1158 -0.1994  0.4650
   16MOL   H203 5033   1.577   7.349   4.894  0.2422 -0.3180 -2.6088
   16MOL   H204 5034   1.210   7.401   4.864  1.0806 -2.5604  0.0439
   16MOL   H205 5035   1.065   7.485   5.047  0.0685 -0.2855 -1.2826
   16MOL   H206 5036   1.415   7.557   5.285 -0.2449 -1.3633  0.4990
   16MOL   H207 5037   1.554   7.482   5.098 -0.0007 -1.0128  0.0426
   16MOL   H208 5038   1.319   7.200   4.894 -0.1308  0.7101 -0.1456
   16MOL   H209 5039   1.404   7.166   4.758 -1.3494 -0.7695  0.9238
   16MOL   C210 5040   1.519   7.100   4.915 -0.2573  0.0550 -0.9246
   16MOL   C211 5041   1.539   7.132   5.064 -0.6131 -0.1403  0.2432
   16MOL   C212 5042   1.431   7.119   5.156 -0.0030  0.0213 -0.1816
   16MOL   C213 5043   1.448   7.161   5.292  0.3647 -0.0190 -0.7537
   16MOL   C214 5044   1.562   7.219   5.331  0.0559 -0.2435  0.0283
   16MOL  Cl215 5045   1.581   7.274   5.492 -0.6387 -0.1918 -0.4733
   16MOL   C216 5046   1.675   7.227   5.246  0.5767  0.2280  0.0217
   16MOL   C217 5047   1.663   7.181   5.113 -0.7245  0.8010 -0.6313
   16MOL   C218 5048   1.475   6.950   4.902  0.3292  0.2676  0.2251
   16MOL   H219 5049   1.616   7.115   4.867  0.0382  1.1664  0.0122
   16MOL   H220 5050   1.337   7.074   5.127 -1.2183  1.6498  1.1166
   16MOL   H221 5051   1.364   7.148   5.359 -0.6645  2.5191 -1.5137
   16MOL   H222 5052   1.763   7.274   5.286  0.2527 -0.2394  1.3093
   16MOL   H223 5053   1.743   7.175   5.041 -0.9589 -1.0450 -0.7842
   16MOL   H224 5054   1.372   6.933   4.931  0.2992 -2.3174 -1.2291
   16MOL   H225 5055   1.466   6.929   4.796 -1.1087  1.8659  0.0185
   16MOL   C226 5056   1.565   6.840   4.971  0.7384  0.1695 -0.2209
   16MOL   C227 5057   1.498   6.706   4.937 -0.2730  0.2195  0.4903
   16MOL   C228 5058   1.493   6.662   4.799  0.1854 -0.6438 -0.1526
   16MOL   C229 5059   1.422   6.548   4.770  0.5139  0.2377 -0.3021
   16MOL   C230 5060   1.369   6.461   4.868 -0.1396 -0.2658  0.2406
   16MOL  Cl231 5061   1.301   6.313   4.808  0.1007  0.0034 -0.5604
   16MOL   C232 5062   1.380   6.500   5.003 -0.0703 -0.4620  0.2363
   16MOL   C233 5063   1.437   6.625   5.035  0.3843  0.4293  0.4826
   16MOL   C234 5064   1.711   6.856   4.937  0.4460 -0.9676 -0.0260
   16MOL   H235 5065   1.554   6.845   5.079  2.6265 -0.5834  0.0442
   16MOL   H236 5066   1.542   6.722   4.724 -0.5943  1.4869  0.9940
   16MOL   H237 5067   1.427   6.502   4.672 -1.5666 -0.3906 -0.1398
   16MOL   H238 5068   1.340   6.438   5.082 -1.4520  1.0984  0.7937
   16MOL   H239 5069   1.444   6.656   5.138 -2.0799 -0.5669  0.9910
   16MOL   H240 5070   1.736   6.791   4.854  0.6746 -1.0203  0.0832
   16MOL   H241 5071   1.741   6.959   4.918  3.6245 -1.9072 -0.3587
   16MOL   C242 5072   1.797   6.830   5.066  0.2979  0.4388  0.6780
   16MOL   C243 5073   1.805   6.676   5.091  0.0464  0.3725  0.9309
   16MOL   C244 5074   1.886   6.598   4.996 -0.3437  0.2298 -0.0528
   16MOL   C245 5075   1.880   6.460   4.996  0.2139 -0.9457 -0.2876
   16MOL   C246 5076   1.788   6.402   5.087 -0.5440  0.1592 -0.5832
   16MOL  Cl247 5077   1.785   6.235   5.091 -0.6389  0.1346  0.1059
   16MOL   C248 5078   1.717   6.473   5.176  0.2277 -0.2225 -0.8783
   16MOL   C249 5079   1.721   6.612   5.182  0.4586 -0.3051  0.2394
   16MOL   C250 5080   1.944   6.887   5.057  0.3308  0.0008 -0.2722
   16MOL   H251 5081   1.740   6.869   5.150 -0.8949 -0.2913  0.2117
   16MOL   H252 5082   1.936   6.651   4.917 -0.6296  1.2791  0.4599
   16MOL   H253 5083   1.932   6.395   4.927  1.7110 -0.1411  0.0668
   16MOL   H254 5084   1.661   6.410   5.243  0.3808  0.6868  0.1078
   16MOL   H255 5085   1.665   6.662   5.260  0.1952  0.3772 -0.3750
   16MOL   H256 5086   1.996   6.825   4.984 -1.9662  0.4505 -2.3692
   16MOL   H257 5087   1.938   6.990   5.020  2.2130 -0.4300 -1.8613
   16MOL   C258 5088   2.026   6.890   5.184  0.2987  0.7311 -0.5714
   16MOL   C259 5089   2.160   6.948   5.166 -0.6095 -0.5453  0.0594
   16MOL   C260 5090   2.179   7.078   5.113  0.1952 -0.3504 -0.9253
   16MOL   C261 5091   2.307   7.120   5.082 -0.4566  0.5740 -0.0070
   16MOL   C262 5092   2.414   7.027   5.086 -0.3296  0.2689  0.4536
   16MOL  Cl263 5093   2.565   7.075   5.041  0.0397  0.1379  0.2046
   16MOL   C264 5094   2.396   6.899   5.140 -0.6355  0.5429  0.9253
   16MOL   C265 5095   2.272   6.864   5.192  0.1036 -0.1869 -0.2671
   16MOL   C266 5096   1.947   6.965   5.297 -0.9499 -0.1402  0.2530
   16MOL   H267 5097   2.040   6.787   5.216 -2.1540  1.1295  1.9782
   16MOL   H268 5098   2.096   7.142   5.088 -1.0336  0.5179  4.7317
   16MOL   H269 5099   2.325   7.221   5.049  0.2793  0.6950  0.7458
   16MOL   H270 5100   2.485   6.838   5.147 -2.5698 -2.2075  2.9604
   16MOL   H271 5101   2.271   6.765   5.233  0.0214 -1.4697 -3.2274
   16MOL   H272 5102   1.899   7.060   5.277 -2.2415 -0.8476 -0.0233
   16MOL   H273 5103   1.870   6.896   5.329  0.5413 -0.8725  2.3980
   16MOL   C274 5104   2.029   6.975   5.428 -0.5362 -0.5644  0.1861
   16MOL   C275 5105   2.110   7.104   5.441  0.0760 -0.7147  0.1343
   16MOL   C276 5106   2.249   7.094   5.479 -0.0452 -0.5285 -0.7605
   16MOL   C277 5107   2.327   7.210   5.477 -0.0929 -0.5472  0.5240
   16MOL   C278 5108   2.267   7.335   5.431  0.3648 -0.0198 -0.7216
   16MOL  Cl279 5109   2.357   7.485   5.431  0.5458 -0.1387 -0.1955
   16MOL   C280 5110   2.130   7.342   5.392  0.3859  0.2555 -0.6138
   16MOL   C281 5111   2.049   7.229   5.404  0.6703  0.2665  0.0688
   16MOL   C282 5112   1.936   6.949   5.543  0.0543  0.4922  0.1466
   16MOL   H283 5113   2.097   6.890   5.427 -0.1327 -0.2711  2.3431
   16MOL   H284 5114   2.296   6.999   5.495  0.5430 -0.6632 -3.1250
   16MOL   H285 5115   2.432   7.193   5.496 -0.0859 -1.0700  0.0443
   16MOL   H286 5116   2.091   7.435   5.354  0.4472 -0.1150 -1.6042
   16MOL   H287 5117   1.943   7.237   5.387  0.5934 -2.7079 -1.2008
   16MOL   H288 5118   1.996   6.987   5.626 -0.6002  1.4854  0.1635
   16MOL   H289 5119   1.858   7.024   5.539 -0.3075  0.0488 -1.1670
   16MOL   C290 5120   1.890   6.799   5.593  0.6042  0.6443  0.3270
   16MOL   C291 5121   2.010   6.702   5.584 -0.3862  0.2547  0.3186
   16MOL   C292 5122   2.008   6.597   5.498 -0.0692 -0.3053  0.6019
   16MOL   C293 5123   2.116   6.505   5.494 -0.0952 -0.6366 -0.1700
   16MOL   C294 5124   2.233   6.533   5.568 -0.2090  0.6580 -1.4796
   16MOL  Cl295 5125   2.362   6.420   5.552 -0.3922 -0.0509  0.0600
   16MOL   C296 5126   2.245   6.647   5.644 -0.1930  0.3761 -0.4280
   16MOL   C297 5127   2.130   6.726   5.659  0.0620 -0.0334  0.1206
   16MOL   C298 5128   1.820   6.809   5.734 -0.0393  0.0525  0.7018
   16MOL   H299 5129   1.816   6.761   5.522  0.9736  1.4239 -0.4912
   16MOL   H300 5130   1.929   6.569   5.429  1.6602  0.0291 -1.5768
   16MOL   H301 5131   2.120   6.418   5.430 -0.7990 -0.2539 -0.7341
   16MOL   H302 5132   2.336   6.668   5.698  0.2684 -2.4652 -0.0470
   16MOL   H303 5133   2.140   6.817   5.715  1.7127  0.6243 -1.1761
   16MOL   H304 5134   1.805   6.708   5.773 -1.7350 -0.4465 -1.1595
   16MOL   H305 5135   1.897   6.861   5.790 -1.6735  0.6369  2.4496
   16MOL   C306 5136   1.694   6.892   5.733 -0.5466  0.6844  0.3425
   16MOL   C307 5137   1.589   6.827   5.637  0.5454 -0.2238 -1.0844
   16MOL   C308 5138   1.538   6.694   5.654  0.7384 -0.1404 -0.1947
   16MOL   C309 5139   1.454   6.633   5.558  0.4145  0.3099  0.6902
   16MOL   C310 5140   1.407   6.711   5.454  0.0350 -0.5289  0.5127
   16MOL  Cl311 5141   1.282   6.648   5.352 -0.2851 -0.1051  0.3216
   16MOL   C312 5142   1.461   6.840   5.427 -0.2995 -0.4765 -0.0530
   16MOL   C313 5143   1.552   6.899   5.520  0.3341  0.0173  0.2034
   16MOL   C314 5144   1.627   6.920   5.865 -0.6066 -0.3488  0.0139
   16MOL   H315 5145   1.724   6.995   5.714 -2.9497  1.6475  1.5480
   16MOL   H316 5146   1.567   6.645   5.745  1.8696 -1.3982 -1.2186
   16MOL   H317 5147   1.409   6.537   5.576 -0.0088  0.5063  0.6720
   16MOL   H318 5148   1.425   6.905   5.348  1.1233  1.3453  0.7267
   16MOL   H319 5149   1.609   6.987   5.496 -0.3120  0.3234 -0.2070
   16MOL   H320 5150   1.693   6.957   5.944 -1.7977 -0.3978  1.0581
   16MOL   H321 5151   1.538   6.983   5.868  2.0003  3.6341 -1.2839
   16MOL   H322 5152   1.585   6.830   5.910 -1.3383 -0.0771 -0.1278
   17MOL     C1 5153   6.290   6.514   6.764  0.3673  0.3091  0.8708
   17MOL     C2 5154   6.154   6.485   6.709  0.3844  0.0533  0.8353
   17MOL     C3 5155   6.050   6.587   6.711 -0.0121  0.2913  0.1384
   17MOL     C4 5156   5.917   6.554   6.672 -0.2656 -0.0221 -0.4305
   17MOL     C5 5157   5.895   6.425   6.618  0.5118  0.2686 -0.5801
   17MOL    Cl6 5158   5.730   6.390   6.565  0.0149 -0.1991  0.3162
   17MOL     C7 5159   5.997   6.334   6.598  0.3856 -0.8339 -0.7143
   17MOL     C8 5160   6.128   6.364   6.641  0.3160 -0.8783  0.2791
   17MOL     C9 5161   6.406   6.509   6.660 -0.0068 -0.1661  0.2262
   17MOL    H10 5162   6.310   6.430   6.830  0.9014  0.0579  0.3978
   17MOL    H11 5163   6.064   6.678   6.766 -1.6811  2.0512 -2.2406
   17MOL    H12 5164   5.839   6.628   6.680 -0.3215 -0.3052  2.2516
   17MOL    H13 5165   5.969   6.243   6.546 -2.0495  0.1808 -1.2701
   17MOL    H14 5166   6.205   6.288   6.641 -0.4266 -1.6361 -0.4410
   17MOL    H15 5167   6.411   6.409   6.618  1.6253 -1.2865  2.9394
   17MOL    H16 5168   6.378   6.569   6.573 -0.9047 -2.9561 -1.4725
   17MOL    H17 5169   6.299   6.605   6.824 -1.5993  0.1621  1.4256
   17MOL    C18 5170   6.528   6.565   6.728  0.6505  0.5939 -0.1218
   17MOL    C19 5171   6.576   6.474   6.847 -0.0024 -0.2361  0.0292
   17MOL    C20 5172   6.581   6.336   6.840 -0.1291  0.0508 -0.5210
   17MOL    C21 5173   6.611   6.260   6.955  0.4091 -0.2844  0.0285
   17MOL    C22 5174   6.621   6.321   7.077 -1.5395  0.0390 -0.7397
   17MOL   Cl23 5175   6.657   6.222   7.209 -0.0591  0.1677 -0.1654
   17MOL    C24 5176   6.609   6.458   7.093 -0.1955 -0.5641 -0.8684
   17MOL    C25 5177   6.591   6.534   6.974 -0.8848 -0.3930  0.2148
   17MOL    C26 5178   6.648   6.583   6.626  0.4977 -0.0908 -1.0541
   17MOL    H27 5179   6.504   6.665   6.765  0.8710 -0.0600  1.8879
   17MOL    H28 5180   6.579   6.287   6.744  2.2903  2.9952 -2.2002
   17MOL    H29 5181   6.632   6.155   6.945 -1.5602 -0.7162  0.1483
   17MOL    H30 5182   6.613   6.511   7.187 -1.9247 -0.8531 -0.6194
   17MOL    H31 5183   6.587   6.642   6.977 -0.7264 -0.4151  1.3907
   17MOL    H32 5184   6.734   6.606   6.689  0.2882 -1.7262 -0.1437
   17MOL    H33 5185   6.670   6.485   6.584 -0.7640 -1.6875  1.8964
   17MOL    C34 5186   6.632   6.676   6.513 -0.2916 -0.5474 -0.5125
   17MOL    C35 5187   6.616   6.821   6.547  0.1319  0.4147 -0.0227
   17MOL    C36 5188   6.505   6.904   6.499 -0.0396 -0.1021 -0.0676
   17MOL    C37 5189   6.481   7.033   6.546  0.0196  0.2329  0.2498
   17MOL    C38 5190   6.574   7.090   6.634 -0.6010 -0.3275 -0.1126
   17MOL   Cl39 5191   6.553   7.256   6.668 -0.1447 -0.0471 -0.1047
   17MOL    C40 5192   6.690   7.024   6.669 -0.3987  0.1529  0.4113
   17MOL    C41 5193   6.707   6.884   6.637  0.0387 -0.4933  0.2654
   17MOL    C42 5194   6.744   6.662   6.405  0.3159  0.1092  0.1194
   17MOL    H43 5195   6.551   6.641   6.450  0.4380 -0.4411 -1.5179
   17MOL    H44 5196   6.429   6.865   6.432  0.6847  0.5814 -1.3143
   17MOL    H45 5197   6.401   7.088   6.498 -0.7116 -1.4130 -0.4732
   17MOL    H46 5198   6.758   7.073   6.738  0.9324  1.0972 -1.5363
   17MOL    H47 5199   6.802   6.840   6.662  1.8284  2.1291 -1.6488
   17MOL    H48 5200   6.830   6.726   6.424 -0.1276  0.7303  0.0748
   17MOL    H49 5201   6.783   6.561   6.416  1.2122  0.4312 -0.0733
   17MOL    C50 5202   6.710   6.693   6.253 -0.1522 -0.3938  0.2784
   17MOL    C51 5203   6.684   6.838   6.212  0.7582  0.4623  0.8764
   17MOL    C52 5204   6.732   6.954   6.282 -0.3329 -0.0028  0.2118
   17MOL    C53 5205   6.696   7.082   6.235 -0.3299  0.4214  0.2054
   17MOL    C54 5206   6.624   7.103   6.114 -0.0182 -0.4034  0.5566
   17MOL   Cl55 5207   6.595   7.271   6.048 -0.2548 -0.0843 -0.2219
   17MOL    C56 5208   6.579   6.989   6.044  0.2760  0.4266 -0.1830
   17MOL    C57 5209   6.611   6.863   6.091 -0.8175  0.2335  0.6560
   17MOL    C58 5210   6.812   6.634   6.143  0.3957 -0.0316 -0.4840
   17MOL    H59 5211   6.623   6.629   6.242  0.3864 -1.1748  0.5837
   17MOL    H60 5212   6.786   6.955   6.375 -1.9116  0.1116  1.1481
   17MOL    H61 5213   6.723   7.173   6.286 -1.1133 -0.0652  1.5188
   17MOL    H62 5214   6.529   6.989   5.948 -0.1836  1.5531  0.0544
   17MOL    H63 5215   6.578   6.775   6.037  0.5141 -0.8782  1.6067
   17MOL    H64 5216   6.856   6.539   6.174  1.6996 -0.1448 -2.5824
   17MOL    H65 5217   6.757   6.591   6.059 -0.3134  0.2741 -0.1852
   17MOL    C66 5218   6.929   6.721   6.095 -0.6919  0.4564  0.0831
   17MOL    C67 5219   7.002   6.795   6.205 -0.1694  0.5214 -0.6000
   17MOL    C68 5220   7.061   6.735   6.320 -0.4358 -0.5376  0.5383
   17MOL    C69 5221   7.122   6.809   6.419 -0.5200 -0.5584  0.1948
   17MOL    C70 5222   7.124   6.952   6.406  0.0893  0.4005  0.1228
   17MOL   Cl71 5223   7.156   7.047   6.541 -0.0191  0.2598 -0.5240
   17MOL    C72 5224   7.085   7.012   6.285 -0.9646  0.4899 -0.3903
   17MOL    C73 5225   7.022   6.932   6.185 -0.9724 -0.3499  0.3450
   17MOL    C74 5226   7.025   6.641   6.015  0.2963 -0.0936 -0.4437
   17MOL    H75 5227   6.884   6.796   6.030 -0.9951  0.3375  0.1542
   17MOL    H76 5228   7.064   6.628   6.334  0.3230 -0.2989  2.3568
   17MOL    H77 5229   7.165   6.760   6.505  0.6484  0.9617  0.5048
   17MOL    H78 5230   7.096   7.118   6.266  1.5523  0.5118  1.0839
   17MOL    H79 5231   6.986   6.974   6.092 -1.0000 -0.7659  0.1704
   17MOL    H80 5232   7.131   6.664   6.030 -0.2471  2.2112  0.0418
   17MOL    H81 5233   7.022   6.540   6.058  3.3404 -1.4269 -3.1852
   17MOL    C82 5234   6.991   6.625   5.869  0.5913 -0.4973  0.3840
   17MOL    C83 5235   6.979   6.760   5.796 -0.1005 -0.0036  0.3159
   17MOL    C84 5236   6.856   6.802   5.743  0.3164 -0.0455  0.4322
   17MOL    C85 5237   6.846   6.925   5.690  0.0107 -0.0658 -0.2650
   17MOL    C86 5238   6.961   7.015   5.694  0.3187  0.3714  0.4883
   17MOL   Cl87 5239   6.950   7.155   5.598  0.1918  0.1749  0.0294
   17MOL    C88 5240   7.078   6.979   5.759  0.5517 -0.1902  0.3883
   17MOL    C89 5241   7.089   6.853   5.808  0.0244 -0.4373  0.3819
   17MOL    C90 5242   7.090   6.532   5.791  0.5567  0.2448  0.3211
   17MOL    H91 5243   6.899   6.566   5.865  2.0805 -2.9259  0.3502
   17MOL    H92 5244   6.781   6.723   5.744  0.0678  0.1203 -1.9371
   17MOL    H93 5245   6.750   6.947   5.644  0.0345  0.1515 -0.2096
   17MOL    H94 5246   7.162   7.047   5.756 -1.0983  1.9022  0.2076
   17MOL    H95 5247   7.184   6.822   5.850 -0.9171 -0.8437  2.2712
   17MOL    H96 5248   7.182   6.589   5.801  0.4853  0.8489 -2.0589
   17MOL    H97 5249   7.108   6.437   5.841  1.2285  0.5129  0.5932
   17MOL    C98 5250   7.056   6.501   5.644 -0.2752  0.4464  0.2021
   17MOL    C99 5251   7.186   6.465   5.563 -0.4428  0.1968  0.1237
   17MOL   C100 5252   7.255   6.341   5.578 -0.0111  0.7358 -0.0328
   17MOL   C101 5253   7.358   6.297   5.491  0.1165 -1.1566 -0.2752
   17MOL   C102 5254   7.402   6.386   5.392  0.1789  0.2582 -0.2578
   17MOL  Cl103 5255   7.537   6.345   5.299  0.2641  0.0934 -0.0344
   17MOL   C104 5256   7.335   6.509   5.369  0.2835 -0.4320 -0.5574
   17MOL   C105 5257   7.226   6.549   5.455 -0.0167  0.2662  0.3283
   17MOL   C106 5258   6.942   6.398   5.627  0.4856 -0.3985  0.4014
   17MOL   H107 5259   7.019   6.590   5.592 -1.8741 -0.6235 -0.5284
   17MOL   H108 5260   7.215   6.272   5.651  1.9292 -0.9845 -0.5552
   17MOL   H109 5261   7.411   6.206   5.514  0.5894 -0.8512 -0.1313
   17MOL   H110 5262   7.375   6.585   5.303  3.3190  0.9243  2.6829
   17MOL   H111 5263   7.177   6.644   5.436 -0.7013 -0.1015  0.2476
   17MOL   H112 5264   6.982   6.304   5.664 -1.2220 -0.7942  1.2440
   17MOL   H113 5265   6.861   6.423   5.696  0.6305 -0.6235  0.6524
   17MOL   C114 5266   6.885   6.379   5.483 -0.1599  0.3066  0.0862
   17MOL   C115 5267   6.812   6.244   5.481  0.1573 -0.1696 -0.0673
   17MOL   C116 5268   6.731   6.201   5.586  0.6624 -0.1441 -0.8749
   17MOL   C117 5269   6.655   6.083   5.578  0.3853 -0.1441  0.5525
   17MOL   C118 5270   6.650   6.016   5.454 -0.0049 -0.4169  0.5263
   17MOL  Cl119 5271   6.536   5.889   5.426  0.1182  0.1916  0.0097
   17MOL   C120 5272   6.722   6.058   5.344  0.5831 -0.6754  0.0986
   17MOL   C121 5273   6.805   6.164   5.363 -0.3521 -0.0511  0.0063
   17MOL   C122 5274   6.778   6.490   5.452 -0.1466 -0.3526  0.3199
   17MOL   H123 5275   6.965   6.372   5.411 -0.0732  1.5151  0.0625
   17MOL   H124 5276   6.727   6.268   5.670  0.2134  0.8543 -1.6852
   17MOL   H125 5277   6.578   6.066   5.652 -0.2203 -0.4769 -0.1513
   17MOL   H126 5278   6.723   5.990   5.260  1.5435  2.3327 -2.4644
   17MOL   H127 5279   6.864   6.186   5.275 -1.8456  0.6670 -0.8322
   17MOL   H128 5280   6.698   6.485   5.526  1.0296 -0.1359  1.6242
   17MOL   H129 5281   6.829   6.584   5.475 -0.0906 -0.0186 -1.1305
   17MOL   C130 5282   6.713   6.495   5.313 -0.5232 -0.0099  0.0425
   17MOL   C131 5283   6.562   6.498   5.329 -0.1804 -0.8747  0.1668
   17MOL   C132 5284   6.479   6.418   5.251 -0.3142  0.1704 -0.9808
   17MOL   C133 5285   6.341   6.441   5.240 -0.6370 -0.0052 -0.0122
   17MOL   C134 5286   6.287   6.547   5.315 -0.5811  0.2109 -0.7012
   17MOL  Cl135 5287   6.120   6.593   5.279  0.2647 -0.4272 -0.0991
   17MOL   C136 5288   6.366   6.627   5.398 -0.0426  0.0212 -0.5031
   17MOL   C137 5289   6.503   6.602   5.408  0.4516 -0.2866  0.4561
   17MOL   C138 5290   6.765   6.607   5.227 -0.0504 -0.1488  0.0713
   17MOL   H139 5291   6.720   6.394   5.271 -0.6753 -0.7393  1.7155
   17MOL   H140 5292   6.508   6.336   5.187  2.9958  0.0178  0.6513
   17MOL   H141 5293   6.285   6.372   5.179 -0.3033 -0.7550  0.5206
   17MOL   H142 5294   6.328   6.710   5.456  0.1290  0.6622 -1.2832
   17MOL   H143 5295   6.567   6.669   5.464 -0.8698  0.9763  0.4839
   17MOL   H144 5296   6.704   6.626   5.138 -0.3296  1.5055  0.6061
   17MOL   H145 5297   6.744   6.697   5.286 -1.1329  0.5870 -1.4020
   17MOL   C146 5298   6.907   6.604   5.178  0.2174 -0.9353 -0.1548
   17MOL   C147 5299   6.947   6.483   5.096  0.3310  0.1361 -0.0837
   17MOL   C148 5300   7.075   6.420   5.121 -0.5113  0.5582  1.1806
   17MOL   C149 5301   7.114   6.296   5.068 -0.1305  0.1646 -1.0180
   17MOL   C150 5302   7.020   6.227   4.986 -0.5485  0.0866  0.2380
   17MOL  Cl151 5303   7.052   6.071   4.908  0.2524 -0.1547  0.0384
   17MOL   C152 5304   6.897   6.291   4.958 -0.1326 -0.2227 -0.4936
   17MOL   C153 5305   6.862   6.418   5.008  0.0067  0.3438 -0.4729
   17MOL   C154 5306   6.936   6.731   5.097  0.0366 -0.2916  0.4537
   17MOL   H155 5307   6.973   6.609   5.265 -1.4122 -3.8759  1.3038
   17MOL   H156 5308   7.144   6.480   5.179 -0.7151  2.0180 -0.0482
   17MOL   H157 5309   7.206   6.258   5.111 -0.3028  0.8396 -0.0207
   17MOL   H158 5310   6.820   6.235   4.908 -1.6377  2.1125 -0.8751
   17MOL   H159 5311   6.762   6.454   4.992 -1.1716 -2.1128  1.1416
   17MOL   H160 5312   7.022   6.696   5.040 -0.4577 -1.3396  0.3407
   17MOL   H161 5313   6.862   6.724   5.017  1.6793 -4.0760 -0.8451
   17MOL   C162 5314   6.946   6.867   5.174 -0.0763 -0.4272  0.2459
   17MOL   C163 5315   7.086   6.879   5.237 -0.1886 -0.2394 -0.3110
   17MOL   C164 5316   7.197   6.863   5.159 -0.8343  0.3338 -0.1130
   17MOL   C165 5317   7.324   6.868   5.225 -0.9414  0.0849  0.2205
   17MOL   C166 5318   7.337   6.896   5.364  0.0147  0.0421 -0.3596
   17MOL  Cl167 5319   7.494   6.898   5.440 -0.1767 -0.2827  0.6386
   17MOL   C168 5320   7.219   6.906   5.443 -0.4934 -0.5454 -0.0349
   17MOL   C169 5321   7.097   6.905   5.377 -0.1818 -0.5498  0.3066
   17MOL   C170 5322   6.924   6.992   5.079 -0.0950  0.1973 -0.4006
   17MOL   H171 5323   6.870   6.884   5.250  0.7356  3.1101  0.3271
   17MOL   H172 5324   7.204   6.847   5.053  2.8404  1.0853 -0.0599
   17MOL   H173 5325   7.417   6.849   5.173 -0.2633 -1.3767  1.9183
   17MOL   H174 5326   7.232   6.915   5.550  1.9724  1.3759 -0.4406
   17MOL   H175 5327   7.004   6.910   5.432  0.3852 -2.9900  1.5671
   17MOL   H176 5328   6.989   7.075   5.107 -1.5158  0.9108  0.8353
   17MOL   H177 5329   6.951   6.950   4.982 -0.1949  1.9699 -1.2074
   17MOL   C178 5330   6.778   7.034   5.084  0.7984  0.4183 -0.1857
   17MOL   C179 5331   6.752   7.127   5.200  0.5580 -0.1293 -0.2881
   17MOL   C180 5332   6.797   7.262   5.197 -0.0243  0.6089 -0.4997
   17MOL   C181 5333   6.751   7.352   5.292  0.3183 -0.1342  0.1491
   17MOL   C182 5334   6.657   7.315   5.387 -0.1595 -0.7829  0.2920
   17MOL  Cl183 5335   6.599   7.424   5.505 -0.0630 -0.0568  0.1950
   17MOL   C184 5336   6.606   7.186   5.389  0.1287  0.1563  0.1733
   17MOL   C185 5337   6.654   7.088   5.299 -0.1832 -0.0223 -0.0020
   17MOL   C186 5338   6.729   7.090   4.950 -0.0852  0.0020 -0.3733
   17MOL   H187 5339   6.714   6.949   5.107  3.1195 -1.0883  0.9147
   17MOL   H188 5340   6.866   7.288   5.118  0.6315  2.1095  0.5578
   17MOL   H189 5341   6.769   7.459   5.285  1.7513 -0.4897 -2.5407
   17MOL   H190 5342   6.532   7.158   5.463 -0.9075  2.2312 -0.0548
   17MOL   H191 5343   6.626   6.984   5.302 -1.6340  0.3169 -1.1873
   17MOL   H192 5344   6.637   7.145   4.971 -0.3837  0.6392 -3.1647
   17MOL   H193 5345   6.803   7.165   4.922 -0.7568  0.9977  0.4791
   17MOL   C194 5346   6.695   6.991   4.840  0.2295 -0.0059  0.4242
   17MOL   C195 5347   6.578   6.894   4.879 -0.7130  0.1327 -0.1334
   17MOL   C196 5348   6.606   6.754   4.885 -0.0384  0.7410 -0.8134
   17MOL   C197 5349   6.500   6.662   4.915 -0.2717  0.3307 -0.2590
   17MOL   C198 5350   6.367   6.706   4.922 -0.1295  0.0677 -0.3783
   17MOL  Cl199 5351   6.234   6.600   4.931 -0.5945  0.2219  0.3480
   17MOL   C200 5352   6.343   6.846   4.908  0.0356  0.4733  0.5237
   17MOL   C201 5353   6.446   6.938   4.893  0.1542  0.0290 -0.1643
   17MOL   C202 5354   6.661   7.055   4.704  0.2823  0.6541  0.5067
   17MOL   H203 5355   6.776   6.920   4.819 -0.2163 -0.3759 -0.0463
   17MOL   H204 5356   6.706   6.716   4.872 -0.6477 -2.1282  2.3351
   17MOL   H205 5357   6.517   6.556   4.904  1.0437  0.8783 -4.3756
   17MOL   H206 5358   6.239   6.875   4.897  0.1735  0.5940 -0.5244
   17MOL   H207 5359   6.427   7.044   4.885  1.4325  0.2525 -0.3269
   17MOL   H208 5360   6.577   7.125   4.707 -0.1237  0.2059 -0.2129
   17MOL   H209 5361   6.745   7.119   4.678  0.2018  1.0705  1.2564
   17MOL   C210 5362   6.678   6.969   4.579  0.3026  0.6893 -0.2167
   17MOL   C211 5363   6.549   6.905   4.532  0.3029 -0.1843 -0.0583
   17MOL   C212 5364   6.556   6.772   4.491 -0.3210  0.2362  0.3771
   17MOL   C213 5365   6.437   6.696   4.474 -0.9129 -0.5902  0.2505
   17MOL   C214 5366   6.312   6.765   4.494 -0.0391 -0.7161  0.5553
   17MOL  Cl215 5367   6.171   6.669   4.488 -0.3614 -0.0872 -0.2666
   17MOL   C216 5368   6.306   6.899   4.520 -0.1805 -0.5095  0.5074
   17MOL   C217 5369   6.425   6.970   4.543  0.1300 -0.1018  0.2563
   17MOL   C218 5370   6.755   7.050   4.464 -0.0913 -0.2440  0.2343
   17MOL   H219 5371   6.737   6.878   4.594 -3.1594 -1.7202 -0.4636
   17MOL   H220 5372   6.651   6.722   4.498 -1.5945 -2.3787 -0.5519
   17MOL   H221 5373   6.438   6.588   4.466  0.0240 -0.4751 -1.5463
   17MOL   H222 5374   6.208   6.944   4.534 -0.0643 -0.8941  2.6512
   17MOL   H223 5375   6.419   7.071   4.580  1.0061  0.2060 -0.4217
   17MOL   H224 5376   6.748   6.982   4.379 -0.0223  0.7158 -0.5479
   17MOL   H225 5377   6.706   7.145   4.443  2.6681  1.0117 -0.7317
   17MOL   C226 5378   6.905   7.085   4.489 -0.2974 -0.0626  0.9007
   17MOL   C227 5379   6.982   6.960   4.531 -0.7376 -0.0715  0.2960
   17MOL   C228 5380   7.004   6.946   4.673  0.2110  0.0871  0.1411
   17MOL   C229 5381   7.087   6.844   4.721  0.2698  0.4059 -0.4000
   17MOL   C230 5382   7.132   6.739   4.633 -0.0671 -0.0694 -0.6224
   17MOL  Cl231 5383   7.250   6.624   4.683 -0.1122 -0.3318 -0.4134
   17MOL   C232 5384   7.104   6.755   4.496 -0.1576  0.0115 -0.7385
   17MOL   C233 5385   7.023   6.853   4.444 -0.6474 -0.1014 -0.2546
   17MOL   C234 5386   6.963   7.153   4.361  0.6006 -0.2322 -0.2674
   17MOL   H235 5387   6.918   7.162   4.564 -0.0312  1.6274 -0.8316
   17MOL   H236 5388   6.977   7.023   4.743 -2.1522 -1.0347  0.5304
   17MOL   H237 5389   7.113   6.840   4.825 -1.0063 -0.7197 -0.1051
   17MOL   H238 5390   7.140   6.681   4.427 -2.1335  0.3733 -2.2029
   17MOL   H239 5391   7.020   6.864   4.337 -1.3099 -0.1120 -0.2419
   17MOL   H240 5392   6.972   7.083   4.278 -0.0488 -0.1718 -0.3922
   17MOL   H241 5393   6.886   7.225   4.334 -2.8803 -4.2295 -1.5005
   17MOL   C242 5394   7.101   7.228   4.362 -0.1294 -0.5790 -0.7945
   17MOL   C243 5395   7.216   7.137   4.401 -0.0760  0.0257  0.2997
   17MOL   C244 5396   7.262   7.131   4.537  0.1142  0.2987 -0.0329
   17MOL   C245 5397   7.353   7.030   4.576 -0.5313  0.1605  0.2442
   17MOL   C246 5398   7.404   6.939   4.477 -0.5367  0.5008 -0.3361
   17MOL  Cl247 5399   7.507   6.810   4.529  0.0811  0.0282  0.2638
   17MOL   C248 5400   7.372   6.955   4.342  1.5024 -0.1386  0.7355
   17MOL   C249 5401   7.273   7.048   4.307  0.2670  0.6961 -0.0706
   17MOL   C250 5402   7.133   7.314   4.237  0.9174 -0.3832 -0.8682
   17MOL   H251 5403   7.070   7.295   4.442 -0.5973  1.8252 -2.9182
   17MOL   H252 5404   7.214   7.189   4.614 -3.2691  0.0048 -1.8287
   17MOL   H253 5405   7.381   7.025   4.681 -3.3132  1.8745  1.1442
   17MOL   H254 5406   7.400   6.887   4.263 -0.1075 -0.7411  0.6489
   17MOL   H255 5407   7.241   7.039   4.204 -0.5878 -2.3304  0.4034
   17MOL   H256 5408   7.241   7.328   4.226  0.3311  2.7587 -3.5367
   17MOL   H257 5409   7.109   7.258   4.147  2.2312 -1.3924 -0.6082
   17MOL   C258 5410   7.065   7.454   4.242  0.1678  0.0801  0.6082
   17MOL   C259 5411   7.160   7.562   4.302 -0.3647 -0.4838 -0.2922
   17MOL   C260 5412   7.130   7.631   4.421  0.7071 -0.2260 -0.1226
   17MOL   C261 5413   7.226   7.727   4.466  0.1862  0.3769  0.0665
   17MOL   C262 5414   7.343   7.757   4.398 -0.6436  0.1879  0.5567
   17MOL  Cl263 5415   7.463   7.865   4.461 -0.1001  0.0187  0.2864
   17MOL   C264 5416   7.366   7.690   4.275 -0.3475 -0.2280  0.3524
   17MOL   C265 5417   7.277   7.588   4.233 -0.1355  0.0133  0.3545
   17MOL   C266 5418   7.018   7.473   4.097 -0.3178  0.5119  0.1319
   17MOL   H267 5419   6.981   7.445   4.311  0.7221  1.1977  1.4412
   17MOL   H268 5420   7.035   7.614   4.468 -0.7640  3.9823 -1.3562
   17MOL   H269 5421   7.201   7.784   4.554  0.7813  1.0467 -0.1853
   17MOL   H270 5422   7.452   7.719   4.216 -1.7766  2.5758 -0.4531
   17MOL   H271 5423   7.299   7.540   4.138  0.2805  0.8567  0.0176
   17MOL   H272 5424   7.104   7.450   4.035  0.1422 -1.6814  1.5317
   17MOL   H273 5425   6.950   7.389   4.086  0.6902 -0.4566  1.2113
   17MOL   C274 5426   6.946   7.607   4.061 -0.3122  0.0610  0.5497
   17MOL   C275 5427   7.039   7.732   4.047  1.3522 -0.3085  0.1914
   17MOL   C276 5428   7.123   7.739   3.935  0.2403 -0.0330  0.1711
   17MOL   C277 5429   7.211   7.854   3.921  0.0502  0.0293 -0.5588
   17MOL   C278 5430   7.202   7.961   4.012 -0.0923 -0.5310  0.2130
   17MOL  Cl279 5431   7.297   8.102   3.985 -0.0984  0.1795  0.4539
   17MOL   C280 5432   7.114   7.957   4.119  0.0791  0.1090  0.1618
   17MOL   C281 5433   7.034   7.843   4.137  0.9324 -0.2350  0.1532
   17MOL   C282 5434   6.864   7.594   3.931 -0.2056  0.5209  0.1146
   17MOL   H283 5435   6.885   7.633   4.148  0.4299  2.5409  0.3859
   17MOL   H284 5436   7.124   7.668   3.854  0.8073  2.6690 -2.3117
   17MOL   H285 5437   7.279   7.864   3.838  2.5028 -2.6827  1.0314
   17MOL   H286 5438   7.115   8.033   4.195 -0.7548  0.2300  0.0551
   17MOL   H287 5439   6.977   7.840   4.228 -0.3110 -0.4627 -0.6169
   17MOL   H288 5440   6.888   7.663   3.850 -1.7958  1.1126  0.1254
   17MOL   H289 5441   6.876   7.492   3.895 -2.7662  0.1397  0.2621
   17MOL   C290 5442   6.710   7.588   3.952 -0.0566  0.5639 -0.1281
   17MOL   C291 5443   6.651   7.505   4.067 -0.5172 -0.7250  0.6855
   17MOL   C292 5444   6.634   7.363   4.045  0.5424  0.5645  0.1370
   17MOL   C293 5445   6.573   7.293   4.149 -0.0153  0.7484 -0.3570
   17MOL   C294 5446   6.527   7.354   4.261  0.6121  0.2476 -0.2583
   17MOL  Cl295 5447   6.437   7.256   4.374 -0.1350  0.2851  0.1531
   17MOL   C296 5448   6.549   7.490   4.279  0.5749  0.5726  0.6507
   17MOL   C297 5449   6.617   7.571   4.189  0.1502 -0.1385  0.1263
   17MOL   C298 5450   6.648   7.728   3.929 -0.2243  0.4469  0.4091
   17MOL   H299 5451   6.672   7.535   3.864 -0.5519  3.7112 -1.8717
   17MOL   H300 5452   6.661   7.317   3.951 -0.1220 -2.2713  1.2756
   17MOL   H301 5453   6.559   7.187   4.141  1.3130  0.4831  0.6862
   17MOL   H302 5454   6.503   7.534   4.366  0.7121  1.2120  0.4024
   17MOL   H303 5455   6.635   7.674   4.218 -3.9249  0.1447  2.0259
   17MOL   H304 5456   6.668   7.796   4.011 -0.8061 -1.1597  1.9129
   17MOL   H305 5457   6.702   7.780   3.850 -0.0722 -2.2793 -1.3532
   17MOL   C306 5458   6.503   7.714   3.875  1.5093 -0.3406 -0.2648
   17MOL   C307 5459   6.395   7.699   3.981 -0.5357 -0.3549  0.1631
   17MOL   C308 5460   6.361   7.800   4.072 -1.1636  0.4148 -0.0916
   17MOL   C309 5461   6.262   7.778   4.171  0.2254  0.7017  0.2071
   17MOL   C310 5462   6.194   7.656   4.176 -0.1375 -0.1104 -0.3645
   17MOL  Cl311 5463   6.065   7.627   4.290  0.5657 -0.4004  0.0659
   17MOL   C312 5464   6.231   7.552   4.090 -0.1334  0.5304  0.5884
   17MOL   C313 5465   6.339   7.568   4.003 -0.0017 -0.5296  0.4492
   17MOL   C314 5466   6.466   7.843   3.783 -0.7177 -0.3515 -0.7847
   17MOL   H315 5467   6.493   7.634   3.802 -1.6548  0.2379 -0.5672
   17MOL   H316 5468   6.416   7.892   4.064 -0.2620 -0.0348  0.8565
   17MOL   H317 5469   6.232   7.853   4.244  2.9062  0.2285  1.8963
   17MOL   H318 5470   6.185   7.456   4.105  0.2575  0.2697  0.1495
   17MOL   H319 5471   6.373   7.489   3.937 -0.5155 -0.9385  0.6703
   17MOL   H320 5472   6.359   7.829   3.772 -0.5696 -1.0753 -1.3726
   17MOL   H321 5473   6.483   7.937   3.835  3.4852 -1.7742  0.6017
   17MOL   H322 5474   6.504   7.849   3.681  0.8815  2.2577 -0.0877
   18MOL     C1 5475   8.346   3.501   3.327  0.1315 -0.0408 -0.1868
   18MOL     C2 5476   8.387   3.353   3.312  0.6286  0.0055  0.3900
   18MOL     C3 5477   8.295   3.265   3.248  0.8092 -0.0267  0.6293
   18MOL     C4 5478   8.326   3.131   3.236 -0.2216 -0.0971 -0.5673
   18MOL     C5 5479   8.440   3.076   3.301  0.4040  0.2584  0.0117
   18MOL    Cl6 5480   0.024   2.906   3.305 -0.2213  0.1506  0.2256
   18MOL     C7 5481   0.083   3.161   3.368 -0.5826  0.4816  0.2068
   18MOL     C8 5482   0.064   3.301   3.362 -0.4284 -0.8218 -0.0427
   18MOL     C9 5483   8.437   3.590   3.243  0.3730 -0.4931 -0.2438
   18MOL    H10 5484   8.351   3.533   3.431 -0.8388  0.6779 -0.3495
   18MOL    H11 5485   8.206   3.306   3.203  1.1107 -0.0984 -0.0468
   18MOL    H12 5486   8.265   3.061   3.181  0.3896 -0.6101 -0.5969
   18MOL    H13 5487   0.162   3.112   3.423 -0.8084  2.4988  2.4630
   18MOL    H14 5488   0.131   3.354   3.429 -1.0815 -0.8915  0.6716
   18MOL    H15 5489   0.089   3.612   3.292  0.3650  1.9811 -1.2468
   18MOL    H16 5490   0.023   3.560   3.142 -0.5582 -0.1206 -0.6360
   18MOL    H17 5491   8.242   3.514   3.297  0.8497  1.4742 -2.1791
   18MOL    C18 5492   8.375   3.726   3.223  0.4378  0.1286 -0.7159
   18MOL    C19 5493   8.368   3.804   3.356 -0.1719 -0.2724  0.5619
   18MOL    C20 5494   0.035   3.871   3.408  0.5089  0.1269 -0.0715
   18MOL    C21 5495   0.037   3.947   3.526 -0.5706  0.1293  0.1773
   18MOL    C22 5496   8.361   3.955   3.602  0.2434 -0.7002  0.2769
   18MOL   Cl23 5497   8.345   4.054   3.741  0.2067 -0.3676  0.0899
   18MOL    C24 5498   8.247   3.892   3.549  0.0806  0.1028  0.6778
   18MOL    C25 5499   8.246   3.819   3.425 -0.5679  1.1032 -0.0363
   18MOL    C26 5500   0.006   3.812   3.118  0.0865 -0.4579  0.1284
   18MOL    H27 5501   8.272   3.707   3.193  0.9498 -0.8501 -1.9028
   18MOL    H28 5502   0.122   3.872   3.344  1.2140  3.1157  0.8428
   18MOL    H29 5503   0.119   4.012   3.553 -0.8242  0.4082  0.2802
   18MOL    H30 5504   8.154   3.893   3.604  0.7364  1.3390  1.7986
   18MOL    H31 5505   8.148   3.786   3.393  0.6953 -4.7463  1.5809
   18MOL    H32 5506   0.019   3.917   3.146  0.0091  0.2660 -2.4767
   18MOL    H33 5507   0.112   3.786   3.113  0.6983  2.1156 -0.7738
   18MOL    C34 5508   8.387   3.816   2.972  0.4271 -0.1380  0.4079
   18MOL    C35 5509   8.235   3.830   2.983 -0.6264  0.2898  0.0137
   18MOL    C36 5510   8.167   3.909   3.080 -1.8838 -0.3650  0.1660
   18MOL    C37 5511   8.030   3.933   3.072 -0.0652 -0.8766  0.2576
   18MOL    C38 5512   7.954   3.866   2.973  0.0441 -0.7406  0.9677
   18MOL   Cl39 5513   7.785   3.912   2.979  0.4231  0.2157  0.2668
   18MOL    C40 5514   8.017   3.791   2.871 -0.2852  0.5608  0.2185
   18MOL    C41 5515   8.157   3.775   2.883  0.2748 -0.2894  0.4654
   18MOL    C42 5516   0.011   3.918   2.870 -0.1185 -0.1698  0.6104
   18MOL    H43 5517   8.404   3.719   2.927  2.5840  0.8319 -0.9281
   18MOL    H44 5518   8.226   3.949   3.161 -2.2660 -0.9263  0.7274
   18MOL    H45 5519   7.975   3.992   3.144 -0.7860  0.1462 -1.0924
   18MOL    H46 5520   7.960   3.750   2.789 -0.5129 -0.4021  0.8573
   18MOL    H47 5521   8.213   3.716   2.812  1.5862  0.7109  0.6546
   18MOL    H48 5522   0.114   3.884   2.857 -0.3062 -0.6379  0.3387
   18MOL    H49 5523   8.415   3.884   2.774 -1.3077 -0.2730  1.1270
   18MOL    C50 5524   8.429   4.074   2.882  0.7069  0.4169 -0.0548
   18MOL    C51 5525   0.048   4.118   3.012  0.0876 -0.3075 -0.3394
   18MOL    C52 5526   8.409   4.168   3.116  0.5907  0.2712  0.7824
   18MOL    C53 5527   0.021   4.192   3.241  0.3047  0.5747  0.1402
   18MOL    C54 5528   0.157   4.183   3.264 -0.7305 -0.1672  0.0420
   18MOL   Cl55 5529   0.218   4.234   3.421 -0.5603  0.2372 -0.1792
   18MOL    C56 5530   0.249   4.139   3.158  0.1650  0.3849 -0.5562
   18MOL    C57 5531   0.186   4.098   3.035  0.1505  0.0614  0.5047
   18MOL    C58 5532   0.036   4.160   2.766 -0.1898 -1.1668  0.8862
   18MOL    H59 5533   8.320   4.074   2.892  0.5319 -1.3908 -1.7476
   18MOL    H60 5534   8.302   4.178   3.106  0.3892 -2.3009 -0.0747
   18MOL    H61 5535   8.406   4.227   3.325 -1.5274  0.3012 -0.9684
   18MOL    H62 5536   0.356   4.139   3.173  0.1206  3.0109  0.0474
   18MOL    H63 5537   0.252   4.054   2.961  0.9046  1.6262  0.2166
   18MOL    H64 5538   0.017   4.263   2.797 -0.5279 -1.1298  0.5662
   18MOL    H65 5539   0.142   4.154   2.740 -0.5663 -0.0529 -1.0927
   18MOL    C66 5540   8.407   4.136   2.632  0.3169  0.1275  0.1911
   18MOL    C67 5541   8.265   4.171   2.634  0.5089 -0.1180  0.0902
   18MOL    C68 5542   8.161   4.070   2.648  0.8258 -0.6072 -0.1204
   18MOL    C69 5543   8.029   4.103   2.635  0.7127 -0.0166  0.2673
   18MOL    C70 5544   7.991   4.234   2.597 -0.0792 -0.3356 -0.1065
   18MOL   Cl71 5545   7.824   4.276   2.573  0.0196 -0.0203  0.0475
   18MOL    C72 5546   8.089   4.329   2.575  0.9549 -0.3411  0.3869
   18MOL    C73 5547   8.226   4.298   2.598  0.2653  0.5364 -0.8996
   18MOL    C74 5548   0.049   4.183   2.514 -0.1932 -0.5103  1.0023
   18MOL    H75 5549   8.420   4.027   2.628  0.1839  0.1503 -0.9200
   18MOL    H76 5550   8.190   3.967   2.667  0.7881 -0.6020 -0.0379
   18MOL    H77 5551   7.963   4.020   2.649 -0.5299  0.8564 -0.3594
   18MOL    H78 5552   8.057   4.427   2.543 -2.2647  0.2137  4.8237
   18MOL    H79 5553   8.302   4.374   2.589  0.5333  0.3678 -0.0789
   18MOL    H80 5554   0.070   4.288   2.532 -1.6830  0.0419 -0.3288
   18MOL    H81 5555   0.137   4.119   2.517  1.5951  1.5961 -3.4994
   18MOL    C82 5556   8.440   4.181   2.371  0.7341  0.2545 -0.0310
   18MOL    C83 5557   0.053   4.299   2.295 -0.3697  0.5935 -0.2692
   18MOL    C84 5558   0.186   4.296   2.250 -0.2316  0.4739 -0.9662
   18MOL    C85 5559   0.232   4.409   2.179  0.2715 -0.5439 -0.2039
   18MOL    C86 5560   0.152   4.527   2.169 -0.2498 -0.0240 -0.0759
   18MOL   Cl87 5561   0.215   4.658   2.079  0.3629  0.1184 -0.5230
   18MOL    C88 5562   0.020   4.526   2.210 -0.1520 -0.0887 -0.4129
   18MOL    C89 5563   8.411   4.414   2.281 -0.2592  0.7429  0.9372
   18MOL    C90 5564   0.008   4.038   2.305 -0.2194 -0.7553 -0.5637
   18MOL    H91 5565   8.332   4.195   2.377  0.7231  0.3518 -0.4397
   18MOL    H92 5566   0.246   4.207   2.246 -0.5429  0.1478  1.0337
   18MOL    H93 5567   0.326   4.411   2.128 -1.0927 -0.0162 -2.7845
   18MOL    H94 5568   8.399   4.611   2.191  1.2458  1.0438 -0.1895
   18MOL    H95 5569   8.310   4.402   2.317  0.2215  0.0785  2.0716
   18MOL    H96 5570   0.110   4.017   2.272  0.0552 -0.2722 -0.0332
   18MOL    H97 5571   0.001   3.962   2.383  1.2063 -0.4319 -0.1058
   18MOL    C98 5572   8.347   4.003   2.200  0.3531 -0.7851  0.4315
   18MOL    C99 5573   8.311   4.114   2.109  0.3693  0.0811  0.7792
   18MOL   C100 5574   8.404   4.158   2.013 -0.6390 -0.4248 -0.0489
   18MOL   C101 5575   8.367   4.267   1.934 -0.6050 -0.1944 -0.0043
   18MOL   C102 5576   8.240   4.332   1.943 -0.0171  0.0807 -0.5113
   18MOL  Cl103 5577   8.193   4.450   1.832  0.1207  0.0452 -0.1372
   18MOL   C104 5578   8.149   4.280   2.035 -0.4180 -0.0966 -0.0211
   18MOL   C105 5579   8.186   4.175   2.120 -0.7671  0.7192  0.1993
   18MOL   C106 5580   8.391   3.873   2.126  0.7088  0.3562  0.0222
   18MOL   H107 5581   8.251   3.982   2.248  0.0669  3.1077  1.8037
   18MOL   H108 5582   0.055   4.109   1.991  0.0838 -0.2362  2.4786
   18MOL   H109 5583   8.436   4.311   1.863 -1.0482  1.3661  0.5047
   18MOL   H110 5584   8.049   4.321   2.044  0.2835  1.2962  1.6086
   18MOL   H111 5585   8.107   4.140   2.185  0.1871 -0.5162  0.6904
   18MOL   H112 5586   0.045   3.883   2.077 -0.9913  1.0745 -3.3262
   18MOL   H113 5587   8.421   3.798   2.199 -0.4673  1.0085  1.2109
   18MOL   C114 5588   8.297   3.826   2.014  0.1637 -1.0877 -0.3135
   18MOL   C115 5589   8.358   3.709   1.931  0.4609 -0.5525  0.2028
   18MOL   C116 5590   8.363   3.578   1.988  0.0365 -0.5132  0.1066
   18MOL   C117 5591   8.416   3.470   1.916  0.6441 -0.2759 -0.8576
   18MOL   C118 5592   0.007   3.487   1.785  0.0677 -0.4256  0.5313
   18MOL  Cl119 5593   0.048   3.349   1.695  0.2345 -0.2568 -0.4985
   18MOL   C120 5594   0.005   3.612   1.721 -0.1955  0.4698  0.0347
   18MOL   C121 5595   8.402   3.723   1.794  0.2662  0.1255 -0.3348
   18MOL   C122 5596   8.147   3.798   2.054 -0.8415  0.7583 -0.2661
   18MOL   H123 5597   8.282   3.905   1.940  1.6135 -0.6761 -0.1745
   18MOL   H124 5598   8.344   3.569   2.094  2.1953 -0.4397  0.5169
   18MOL   H125 5599   8.410   3.374   1.964 -0.4908  0.4219  0.4298
   18MOL   H126 5600   0.027   3.617   1.616  1.7413  0.3057  0.4070
   18MOL   H127 5601   8.385   3.813   1.738 -0.5489 -0.3138 -0.8078
   18MOL   H128 5602   8.150   3.725   2.135  0.5508  0.5512 -0.4979
   18MOL   H129 5603   8.097   3.886   2.094 -1.0521  1.1682 -1.4232
   18MOL   C130 5604   8.053   3.726   1.945 -0.6054  0.4806 -0.5775
   18MOL   C131 5605   7.924   3.696   2.007  0.2939 -0.1525 -0.5085
   18MOL   C132 5606   7.844   3.799   2.070 -0.3998  0.2522 -0.2958
   18MOL   C133 5607   7.714   3.760   2.108  0.0957  0.0336  0.4500
   18MOL   C134 5608   7.664   3.630   2.091 -0.9139  0.4820  0.1107
   18MOL  Cl135 5609   7.499   3.596   2.128  0.0704  0.0449  0.1703
   18MOL   C136 5610   7.745   3.532   2.028 -0.5096 -0.2379  0.2652
   18MOL   C137 5611   7.874   3.567   1.995  0.1123  0.5388  0.1273
   18MOL   C138 5612   8.040   3.806   1.814  0.2187 -0.0429 -0.5605
   18MOL   H139 5613   8.100   3.629   1.925 -0.0976  0.6192 -0.0898
   18MOL   H140 5614   7.873   3.903   2.082  0.6038  0.2703 -2.6843
   18MOL   H141 5615   7.641   3.829   2.149  1.4838 -0.1368  3.2646
   18MOL   H142 5616   7.704   3.433   2.026 -2.7392  0.6666 -0.1599
   18MOL   H143 5617   7.930   3.487   1.949 -0.4697  0.4769 -0.4845
   18MOL   H144 5618   8.008   3.909   1.831  2.1251  0.2942  1.1430
   18MOL   H145 5619   8.141   3.830   1.783  0.9329  0.3324  1.9154
   18MOL   C146 5620   7.956   3.740   1.703 -0.0504 -0.0361  0.5079
   18MOL   C147 5621   7.807   3.746   1.727  0.2145 -0.3563  0.5583
   18MOL   C148 5622   7.737   3.623   1.722 -0.3698 -0.4180  0.3169
   18MOL   C149 5623   7.596   3.623   1.740 -0.1827 -0.0721 -0.5280
   18MOL   C150 5624   7.535   3.744   1.778  0.8246 -0.2631  0.9305
   18MOL  Cl151 5625   7.362   3.739   1.810  0.1459  0.3683  0.2425
   18MOL   C152 5626   7.606   3.865   1.782  0.3695 -0.2119  0.0371
   18MOL   C153 5627   7.744   3.866   1.754 -0.2006  0.4673  0.9640
   18MOL   C154 5628   7.985   3.778   1.548 -0.1419 -0.0656 -0.6569
   18MOL   H155 5629   7.978   3.633   1.712  1.2086 -0.0689 -2.2788
   18MOL   H156 5630   7.782   3.527   1.700 -0.2937 -0.2265 -0.3838
   18MOL   H157 5631   7.534   3.534   1.742  0.0163 -0.1974 -0.0306
   18MOL   H158 5632   7.564   3.962   1.806 -0.2638 -0.6360  0.6615
   18MOL   H159 5633   7.811   3.951   1.762  1.6778 -0.9181  0.2696
   18MOL   H160 5634   7.889   3.760   1.501 -0.6415  1.1279 -0.1037
   18MOL   H161 5635   8.004   3.885   1.547 -0.4127  0.0364  1.4329
   18MOL   C162 5636   8.104   3.702   1.473  0.0974 -0.5700 -0.7296
   18MOL   C163 5637   8.072   3.552   1.459 -0.7578  0.0797  0.8687
   18MOL   C164 5638   8.161   3.463   1.522 -0.5224 -0.1131  0.3412
   18MOL   C165 5639   8.129   3.324   1.519 -1.1821  0.8219  0.3734
   18MOL   C166 5640   8.032   3.275   1.432  0.6085 -0.0610  0.1287
   18MOL  Cl167 5641   7.998   3.107   1.411  0.1447  0.1083 -0.0229
   18MOL   C168 5642   7.943   3.362   1.370 -0.2897 -0.8903 -0.0486
   18MOL   C169 5643   7.965   3.500   1.382 -0.0719  0.4134 -0.5634
   18MOL   C170 5644   8.119   3.763   1.333  0.2129 -0.1183 -0.2411
   18MOL   H171 5645   8.192   3.721   1.535  0.1707 -1.4046 -0.5802
   18MOL   H172 5646   8.243   3.495   1.584  1.2605 -1.6767 -1.1610
   18MOL   H173 5647   8.190   3.251   1.569 -2.9972 -1.2556 -0.3688
   18MOL   H174 5648   7.860   3.326   1.312  1.2928 -2.1535 -1.5949
   18MOL   H175 5649   7.905   3.570   1.326  0.6781  0.7665 -0.9431
   18MOL   H176 5650   8.174   3.698   1.265  0.1085 -1.4643  0.9432
   18MOL   H177 5651   8.025   3.757   1.278  1.7810  0.4205 -3.1009
   18MOL   C178 5652   8.186   3.905   1.339  0.1822  0.1763 -0.2864
   18MOL   C179 5653   8.333   3.890   1.368 -0.1986  0.0006 -0.1472
   18MOL   C180 5654   8.412   3.816   1.285 -0.0371 -0.4453  0.3750
   18MOL   C181 5655   0.111   3.812   1.306  0.4004  0.0603  0.3831
   18MOL   C182 5656   0.164   3.889   1.414 -0.0162  0.1528  0.2731
   18MOL  Cl183 5657   0.336   3.899   1.444  0.1655  0.0503 -0.4780
   18MOL   C184 5658   0.077   3.966   1.501 -0.1515  0.4042  0.5631
   18MOL   C185 5659   8.386   3.965   1.474  0.3931  0.0115  0.4666
   18MOL   C186 5660   8.160   3.983   1.210  0.4692  0.0900  0.0239
   18MOL   H187 5661   8.151   3.977   1.412  1.5515  1.2504 -0.6712
   18MOL   H188 5662   8.366   3.763   1.203  0.0967  1.0085 -0.6545
   18MOL   H189 5663   0.185   3.755   1.252 -0.4687  1.6747 -2.5929
   18MOL   H190 5664   0.122   4.029   1.576  1.3013  0.3772 -0.2819
   18MOL   H191 5665   8.323   4.012   1.548  0.8975  1.5166 -0.0356
   18MOL   H192 5666   8.182   3.915   1.128  2.1975  1.2222 -0.4719
   18MOL   H193 5667   8.056   4.013   1.193 -0.1531 -2.4359 -0.9068
   18MOL   C194 5668   8.238   4.121   1.196 -0.0768 -0.4318  0.4372
   18MOL   C195 5669   8.251   4.160   1.047  0.3562  0.1889 -0.3548
   18MOL   C196 5670   8.136   4.216   0.980 -0.4194  0.3846  0.3943
   18MOL   C197 5671   8.139   4.249   0.845 -1.0628 -0.1535 -0.5408
   18MOL   C198 5672   8.261   4.234   0.784 -0.5684  0.6810  0.2777
   18MOL  Cl199 5673   8.270   4.285   0.618  0.0764  0.1941  0.1630
   18MOL   C200 5674   8.370   4.163   0.838 -0.1164  0.2706  0.4765
   18MOL   C201 5675   8.369   4.123   0.978  0.0957 -0.1666  0.5329
   18MOL   C202 5676   8.179   4.232   1.283 -0.5268  0.4761 -0.2238
   18MOL   H203 5677   8.340   4.110   1.231  0.3754 -0.6793 -0.9459
   18MOL   H204 5678   8.041   4.240   1.025 -0.1750  1.9940  0.0923
   18MOL   H205 5679   8.052   4.289   0.795 -0.3410  1.0259 -0.8933
   18MOL   H206 5680   0.014   4.145   0.777 -0.4368 -4.5321  1.2361
   18MOL   H207 5681   0.012   4.090   1.034 -0.9222 -0.6290  1.8654
   18MOL   H208 5682   8.087   4.262   1.234  0.8963  0.4210 -2.9974
   18MOL   H209 5683   8.147   4.187   1.377  1.7403 -1.5247 -0.3550
   18MOL   C210 5684   8.265   4.359   1.304 -0.2726 -0.6896 -0.1152
   18MOL   C211 5685   8.178   4.467   1.364 -0.2087 -0.2431 -0.1989
   18MOL   C212 5686   8.110   4.452   1.486  0.2603  0.3167  0.1055
   18MOL   C213 5687   8.031   4.553   1.537  0.3424  0.3553 -0.0292
   18MOL   C214 5688   8.032   4.679   1.475  0.3262  0.2909 -0.3641
   18MOL  Cl215 5689   7.920   4.797   1.527 -0.0626  0.0245 -0.0429
   18MOL   C216 5690   8.089   4.691   1.345  0.0612  0.2737  0.8261
   18MOL   C217 5691   8.168   4.583   1.291  0.4566 -0.2218  0.1162
   18MOL   C218 5692   8.397   4.321   1.383 -0.2237  0.0824 -0.2118
   18MOL   H219 5693   8.298   4.401   1.208 -1.4393 -0.9602 -0.6458
   18MOL   H220 5694   8.128   4.359   1.537 -0.1156 -1.2479 -2.5098
   18MOL   H221 5695   7.966   4.531   1.621 -0.3937 -1.2537 -0.9902
   18MOL   H222 5696   8.076   4.778   1.282  0.8097  1.0007  1.6491
   18MOL   H223 5697   8.212   4.583   1.193  1.1790 -0.7995  0.4327
   18MOL   H224 5698   8.360   4.260   1.465  1.5542 -0.1840  0.4072
   18MOL   H225 5699   0.029   4.268   1.325  1.8194  1.0116  1.5357
   18MOL   C226 5700   0.030   4.439   1.446 -0.7770 -0.8179 -0.2234
   18MOL   C227 5701   0.128   4.399   1.560  0.0528  0.0341  0.7013
   18MOL   C228 5702   0.223   4.296   1.534  0.1351 -0.0891  0.3540
   18MOL   C229 5703   0.306   4.244   1.640 -0.5165  0.5071 -0.5898
   18MOL   C230 5704   0.282   4.287   1.771  0.3070  0.3679  0.5137
   18MOL  Cl231 5705   0.339   4.217   1.916  0.1034  0.1401 -0.0020
   18MOL   C232 5706   0.210   4.404   1.788  0.9401 -0.4157 -0.7316
   18MOL   C233 5707   0.126   4.455   1.686 -1.1533 -0.2303 -0.4546
   18MOL   C234 5708   0.102   4.515   1.335 -0.4420 -0.4618  0.7906
   18MOL   H235 5709   8.407   4.510   1.496 -0.3324 -0.8127  0.3677
   18MOL   H236 5710   0.224   4.250   1.436 -2.1813  1.7680 -0.5963
   18MOL   H237 5711   0.364   4.154   1.624 -1.7357 -0.3410 -0.2796
   18MOL   H238 5712   0.206   4.450   1.886 -1.7312  1.2470 -1.5787
   18MOL   H239 5713   0.063   4.538   1.714  1.3364  0.7663  2.4165
   18MOL   H240 5714   0.182   4.449   1.302  0.8668  1.8084 -0.7559
   18MOL   H241 5715   0.038   4.512   1.247  0.2877 -0.3387  0.2499
   18MOL   C242 5716   0.154   4.657   1.358  0.6160  0.9505  0.5787
   18MOL   C243 5717   0.235   4.702   1.235  0.4137 -0.3072  0.1364
   18MOL   C244 5718   0.188   4.686   1.102 -0.2744 -0.0978 -0.1759
   18MOL   C245 5719   0.260   4.732   0.989 -0.1259  0.2355  0.0889
   18MOL   C246 5720   0.388   4.792   1.013 -1.2001  0.1222  0.5125
   18MOL  Cl247 5721   0.484   4.834   0.873 -0.1901 -0.1711 -0.3379
   18MOL   C248 5722   0.439   4.810   1.144  0.0846 -1.2763 -0.6804
   18MOL   C249 5723   0.365   4.756   1.251 -0.1792 -0.3329  0.8321
   18MOL   C250 5724   0.038   4.757   1.375 -0.7895  0.5417 -0.7202
   18MOL   H251 5725   0.213   4.657   1.449  0.2731 -1.3491  0.8472
   18MOL   H252 5726   0.088   4.648   1.082 -0.7307  0.8294  0.3078
   18MOL   H253 5727   0.218   4.731   0.889  0.4438 -1.1437 -0.1564
   18MOL   H254 5728   0.537   4.854   1.152 -0.2289 -0.6005 -0.5424
   18MOL   H255 5729   0.401   4.774   1.352 -0.3561 -0.4746  0.9203
   18MOL   H256 5730   8.438   4.761   1.276  1.2475 -0.7764 -1.7018
   18MOL   H257 5731   8.401   4.714   1.435 -0.5286  0.7186 -0.2309
   18MOL   C258 5732   0.074   4.905   1.417  0.6068 -0.0078  0.4124
   18MOL   C259 5733   8.405   5.000   1.373  0.2790 -0.0874 -0.7805
   18MOL   C260 5734   8.272   4.973   1.403 -1.2914  0.3624  0.2133
   18MOL   C261 5735   8.171   5.057   1.352  1.5697 -0.5211 -0.1023
   18MOL   C262 5736   8.202   5.180   1.289 -0.3336 -0.0885 -0.1232
   18MOL  Cl263 5737   8.080   5.281   1.217 -0.1871 -0.3446  0.4905
   18MOL   C264 5738   8.336   5.214   1.281  0.1489  0.1260  0.3058
   18MOL   C265 5739   8.435   5.127   1.321  0.0022 -0.4874 -0.0036
   18MOL   C266 5740   0.115   4.917   1.568 -0.1363 -0.0259 -0.2001
   18MOL   H267 5741   0.165   4.928   1.362  0.0429  1.7143  0.1882
   18MOL   H268 5742   8.242   4.878   1.445  1.1250 -1.4350 -1.9354
   18MOL   H269 5743   8.068   5.026   1.360  1.9551 -2.3004 -1.7149
   18MOL   H270 5744   8.359   5.313   1.244  2.2010  0.6562  2.9035
   18MOL   H271 5745   0.090   5.171   1.307 -0.6466  0.5617 -1.3255
   18MOL   H272 5746   0.044   4.862   1.630  0.8728  0.7981  1.7410
   18MOL   H273 5747   0.201   4.856   1.596 -0.7185  0.1060  1.9456
   18MOL   C274 5748   0.128   5.059   1.622  0.3399  0.7316  0.2443
   18MOL   C275 5749   0.154   5.040   1.773 -0.3127  0.2469 -0.1969
   18MOL   C276 5750   0.066   5.099   1.868 -0.5196  0.1301 -0.1020
   18MOL   C277 5751   0.085   5.085   2.006  0.1971  0.2821 -0.1280
   18MOL   C278 5752   0.185   5.003   2.050 -0.6117 -0.2352 -0.7124
   18MOL  Cl279 5753   0.177   4.963   2.218 -0.3582  0.3251 -0.1235
   18MOL   C280 5754   0.275   4.941   1.966  0.5766  0.0443 -0.3834
   18MOL   C281 5755   0.265   4.962   1.826 -0.0567 -0.1040 -0.0271
   18MOL   C282 5756   0.241   5.136   1.554  0.8398 -0.6066  0.1308
   18MOL   H283 5757   0.029   5.100   1.605  0.1575 -0.2720 -1.2041
   18MOL   H284 5758   8.422   5.155   1.838 -1.0413  0.1386  1.3890
   18MOL   H285 5759   0.024   5.133   2.080  0.5894  0.1267  0.2964
   18MOL   H286 5760   0.360   4.886   2.005  1.3517  1.4837  0.0014
   18MOL   H287 5761   0.341   4.919   1.763  0.2741  2.3130 -1.3082
   18MOL   H288 5762   0.339   5.096   1.582  1.2658  0.9244  0.8741
   18MOL   H289 5763   0.239   5.116   1.447 -0.9738  0.2960 -0.0179
   18MOL   C290 5764   0.244   5.290   1.578 -0.1778  0.0866  0.2220
   18MOL   C291 5765   0.349   5.366   1.493 -0.0587 -0.2288 -0.3931
   18MOL   C292 5766   0.362   5.357   1.353 -0.2676  0.2017 -0.0615
   18MOL   C293 5767   0.451   5.444   1.282  0.2099  0.2938 -0.5120
   18MOL   C294 5768   0.541   5.525   1.352  0.1981 -1.0202  0.1201
   18MOL  Cl295 5769   0.658   5.616   1.257  0.3398  0.3561 -0.3134
   18MOL   C296 5770   0.538   5.527   1.496 -0.2205 -0.5046  0.0777
   18MOL   C297 5771   0.446   5.448   1.564 -0.4378  0.0033 -0.1858
   18MOL   C298 5772   0.098   5.357   1.580 -0.2330  0.0236 -0.6063
   18MOL   H299 5773   0.281   5.293   1.680 -0.4642 -1.6460  0.3873
   18MOL   H300 5774   0.292   5.288   1.307  1.1090 -1.4100  0.1934
   18MOL   H301 5775   0.452   5.444   1.174 -0.3957  1.0407 -0.5247
   18MOL   H302 5776   0.597   5.600   1.550  1.8099 -1.9139 -0.1868
   18MOL   H303 5777   0.446   5.456   1.672  3.9057 -1.1615  0.0060
   18MOL   H304 5778   0.059   5.349   1.479 -3.2363 -2.3592  0.6487
   18MOL   H305 5779   0.024   5.304   1.640 -0.8448  0.4398 -0.9941
   18MOL   C306 5780   0.103   5.495   1.636 -0.5334 -0.9711 -0.1079
   18MOL   C307 5781   8.415   5.576   1.620  0.8462  0.2220  0.3580
   18MOL   C308 5782   8.414   5.705   1.553 -0.0674  0.2274 -0.2557
   18MOL   C309 5783   8.295   5.782   1.557  0.7160 -0.0651  0.3912
   18MOL   C310 5784   8.175   5.736   1.620 -0.1535 -0.0077 -0.6272
   18MOL  Cl311 5785   8.040   5.828   1.637  0.0852 -0.2253  0.0340
   18MOL   C312 5786   8.172   5.602   1.674 -0.3252  0.2442  0.6132
   18MOL   C313 5787   8.293   5.527   1.678  0.4272 -0.3288  0.9222
   18MOL   C314 5788   0.141   5.494   1.789 -0.4545 -0.6702 -0.3131
   18MOL   H315 5789   0.182   5.546   1.580 -0.6305 -0.7816 -0.0733
   18MOL   H316 5790   0.047   5.754   1.494  0.9681 -0.6959  0.2872
   18MOL   H317 5791   8.304   5.879   1.511  1.7145 -0.2417  0.1956
   18MOL   H318 5792   8.084   5.579   1.731 -0.6340 -1.6585 -0.5847
   18MOL   H319 5793   8.285   5.425   1.713  1.1231 -1.4292 -1.9798
   18MOL   H320 5794   0.246   5.467   1.797 -0.0280  0.3861 -2.1973
   18MOL   H321 5795   0.127   5.597   1.819  0.0507 -0.4404 -0.8691
   18MOL   H322 5796   0.080   5.422   1.844  0.4092  0.2983  1.9462
   19MOL     C1 5797   7.692   6.795   0.116 -0.0587  0.5931 -0.2248
   19MOL     C2 5798   7.804   6.746   0.027  0.1502 -0.4327 -0.4298
   19MOL     C3 5799   7.794   6.615   8.417 -0.2819 -0.3764 -0.3433
   19MOL     C4 5800   7.895   6.560   8.333 -0.8566 -0.3090  0.1797
   19MOL     C5 5801   7.996   6.647   8.289 -0.6129 -0.3638  0.1370
   19MOL    Cl6 5802   8.108   6.588   8.172  0.0268 -0.4372 -0.0674
   19MOL     C7 5803   8.011   6.778   8.335  0.6379 -0.0067  0.1773
   19MOL     C8 5804   7.912   6.824   8.427  0.7799 -0.1661  0.7720
   19MOL     C9 5805   7.747   6.859   0.245  0.3115 -0.6261 -0.5794
   19MOL    H10 5806   7.638   6.707   0.153  0.1020  0.2616 -0.7652
   19MOL    H11 5807   7.712   6.552   0.004  0.7546 -1.9532 -0.7306
   19MOL    H12 5808   7.883   6.465   8.284 -1.2723  0.2416 -0.8123
   19MOL    H13 5809   8.087   6.843   8.295  2.2334 -3.1754 -2.1951
   19MOL    H14 5810   7.932   6.925   0.017  2.5693  0.7047 -2.7713
   19MOL    H15 5811   7.821   6.792   0.289  0.0573 -0.1005  0.6795
   19MOL    H16 5812   7.809   6.944   0.216  0.1594 -0.3587 -0.1342
   19MOL    H17 5813   7.632   6.860   0.052 -0.2702 -3.1067 -3.9881
   19MOL    C18 5814   7.645   6.897   0.351 -0.1890 -0.0637  0.0286
   19MOL    C19 5815   7.557   7.012   0.307 -0.4113  0.1747  0.1235
   19MOL    C20 5816   7.562   7.137   0.373  0.4796  0.3898  0.0048
   19MOL    C21 5817   7.472   7.235   0.345 -0.4233  0.0023 -0.5381
   19MOL    C22 5818   7.372   7.217   0.250  0.3516  0.4575  0.2933
   19MOL   Cl23 5819   7.255   7.350   0.229 -0.0441  0.1762  0.3712
   19MOL    C24 5820   7.351   7.089   0.188 -0.4340  0.2017 -0.1951
   19MOL    C25 5821   7.449   6.987   0.218 -0.3227  0.0751  0.2537
   19MOL    C26 5822   7.567   6.781   0.414 -0.5003 -0.2516 -0.3211
   19MOL    H27 5823   7.707   6.934   0.433 -0.7415 -1.7844  1.2653
   19MOL    H28 5824   7.629   7.156   0.456  1.1591  1.2170 -0.7182
   19MOL    H29 5825   7.482   7.330   0.394  0.0028  0.0417 -0.6977
   19MOL    H30 5826   7.273   7.079   0.114 -0.0838  0.5212 -0.6082
   19MOL    H31 5827   7.429   6.885   0.188  0.2683  0.3233 -1.0098
   19MOL    H32 5828   7.486   6.749   0.348 -0.1021 -0.7821 -0.5592
   19MOL    H33 5829   7.628   6.691   0.412  0.2220  0.2354 -0.5455
   19MOL    C34 5830   7.515   6.804   0.558 -0.3034  0.0914  0.7080
   19MOL    C35 5831   7.394   6.900   0.565 -0.5982  0.2095  0.3391
   19MOL    C36 5832   7.274   6.868   0.498 -0.7152  0.0994 -0.6000
   19MOL    C37 5833   7.162   6.953   0.499  0.1313 -0.0517 -0.8622
   19MOL    C38 5834   7.176   7.083   0.558  0.0262  0.3370 -0.8857
   19MOL   Cl39 5835   7.047   7.197   0.547  0.1459  0.2195  0.3636
   19MOL    C40 5836   7.291   7.116   0.633  0.1400  0.2163  0.6305
   19MOL    C41 5837   7.401   7.023   0.641  0.3338  0.0664  0.0791
   19MOL    C42 5838   7.480   6.663   0.612  0.0327  0.0869 -0.6137
   19MOL    H43 5839   7.579   6.865   0.623  2.5136  0.5844 -2.3847
   19MOL    H44 5840   7.266   6.781   0.435  1.4320 -0.1074 -0.6057
   19MOL    H45 5841   7.071   6.927   0.448 -1.4164  1.3666  1.0883
   19MOL    H46 5842   7.302   7.214   0.677  1.0185  1.1652 -1.6434
   19MOL    H47 5843   7.492   7.056   0.689 -0.0540 -0.7890  1.4434
   19MOL    H48 5844   7.409   6.676   0.694 -0.7894 -1.3435 -1.0615
   19MOL    H49 5845   7.417   6.610   0.540  1.4039  2.1624 -3.4412
   19MOL    C50 5846   7.592   6.577   0.662  0.7153  0.6126 -0.7487
   19MOL    C51 5847   7.674   6.654   0.760 -0.3481  0.1474 -0.6700
   19MOL    C52 5848   7.615   6.690   0.881  0.6501  0.3230 -0.4371
   19MOL    C53 5849   7.693   6.768   0.975  0.7434  0.1262 -0.6370
   19MOL    C54 5850   7.822   6.817   0.937 -0.3901  0.5024 -0.5869
   19MOL   Cl55 5851   7.924   6.906   1.047 -0.1436  0.0667  0.1002
   19MOL    C56 5852   7.875   6.781   0.811  0.4995 -0.0128 -0.6148
   19MOL    C57 5853   7.801   6.699   0.719 -0.2792 -0.8602 -0.2932
   19MOL    C58 5854   7.558   6.430   0.708 -0.2268 -0.2831  0.0498
   19MOL    H59 5855   7.656   6.548   0.578  0.7684  1.9845 -1.1848
   19MOL    H60 5856   7.520   6.658   0.919  1.5015 -1.3593  0.3387
   19MOL    H61 5857   7.654   6.783   1.074 -1.3182  0.7687 -1.5111
   19MOL    H62 5858   7.967   6.822   0.774  1.1889 -0.2204  0.8180
   19MOL    H63 5859   7.845   6.677   0.622 -0.3853  0.8535 -0.7472
   19MOL    H64 5860   7.653   6.386   0.737  0.4348  2.0758  1.5946
   19MOL    H65 5861   7.499   6.447   0.798 -0.1378  0.9243 -0.1074
   19MOL    C66 5862   7.488   6.324   0.624  0.7645  0.3854 -0.4460
   19MOL    C67 5863   7.550   6.314   0.488 -0.0867 -0.3145 -0.6866
   19MOL    C68 5864   7.498   6.379   0.370  0.7758  0.3359 -0.4675
   19MOL    C69 5865   7.563   6.358   0.245  0.7110 -0.4487 -0.2443
   19MOL    C70 5866   7.678   6.275   0.233 -0.1097 -0.2186  0.2808
   19MOL   Cl71 5867   7.751   6.237   0.079 -0.3093 -0.4513  0.3648
   19MOL    C72 5868   7.723   6.214   0.348 -0.1368 -0.9342  0.1407
   19MOL    C73 5869   7.663   6.230   0.474  0.0746  0.4540 -0.2166
   19MOL    C74 5870   7.473   6.192   0.698  1.0127  0.2033 -0.4082
   19MOL    H75 5871   7.386   6.361   0.607  0.2363  0.3597  2.4143
   19MOL    H76 5872   7.417   6.450   0.368 -2.2430 -3.0010 -3.6680
   19MOL    H77 5873   7.528   6.413   0.159 -2.4274 -0.2064  1.1264
   19MOL    H78 5874   7.803   6.142   0.344 -0.5038 -1.4008  0.9863
   19MOL    H79 5875   7.717   6.186   0.556  1.6679  0.5822 -1.1551
   19MOL    H80 5876   7.442   6.122   0.620  1.9689 -0.9932  0.2610
   19MOL    H81 5877   7.567   6.162   0.745 -0.7046  1.1542  3.8704
   19MOL    C82 5878   7.361   6.184   0.800  0.2822 -0.0021 -0.5612
   19MOL    C83 5879   7.221   6.211   0.755  0.2311  0.0527  0.0605
   19MOL    C84 5880   7.166   6.146   0.642 -0.2101  0.3233  0.0573
   19MOL    C85 5881   7.033   6.176   0.608  0.6027 -0.3563  0.1670
   19MOL    C86 5882   6.955   6.253   0.688 -0.3594 -0.5343  0.0868
   19MOL   Cl87 5883   6.786   6.288   0.649  0.2404  0.2442  0.3811
   19MOL    C88 5884   7.000   6.305   0.810 -0.5635 -0.2382  0.0787
   19MOL    C89 5885   7.137   6.281   0.847  0.0854 -0.1225 -0.4445
   19MOL    C90 5886   7.357   6.053   0.884  0.5638  0.4297 -1.4844
   19MOL    H91 5887   7.377   6.270   0.866  0.3980 -0.5622  0.1517
   19MOL    H92 5888   7.225   6.075   0.586  0.9345 -1.0776  2.9470
   19MOL    H93 5889   6.993   6.145   0.513  1.6218  1.3691 -0.8233
   19MOL    H94 5890   6.941   6.368   0.874 -0.7647 -1.5022  1.1751
   19MOL    H95 5891   7.186   6.314   0.938 -0.4631 -2.1610  0.6044
   19MOL    H96 5892   7.275   6.057   0.956  1.1007 -0.3400 -0.8239
   19MOL    H97 5893   7.312   5.971   0.828 -0.3446 -1.1409  1.4370
   19MOL    C98 5894   7.488   6.010   0.962 -0.1983  0.5046  0.4604
   19MOL    C99 5895   7.524   6.118   1.062 -0.0247  0.5986 -0.2733
   19MOL   C100 5896   7.641   6.192   1.044 -0.0640 -0.1855  0.3783
   19MOL   C101 5897   7.675   6.294   1.126  0.8772 -0.1339 -0.6018
   19MOL   C102 5898   7.593   6.318   1.237 -0.1718 -0.5689 -0.0949
   19MOL  Cl103 5899   7.633   6.442   1.349  0.0864  0.4008 -0.0250
   19MOL   C104 5900   7.478   6.245   1.268  0.0207  0.7398 -0.1721
   19MOL   C105 5901   7.441   6.144   1.174  0.0339  0.3177 -0.2815
   19MOL   C106 5902   7.462   5.871   1.043  0.4729 -0.3700 -0.4446
   19MOL   H107 5903   7.567   5.997   0.889 -0.6566  1.2754 -0.1728
   19MOL   H108 5904   7.712   6.160   0.970  1.4887 -1.5020  2.4056
   19MOL   H109 5905   7.765   6.351   1.110  1.1971  0.1004  1.8457
   19MOL   H110 5906   7.416   6.269   1.353 -0.7352  1.6287 -0.9702
   19MOL   H111 5907   7.349   6.087   1.183 -0.6357  1.4492  0.2023
   19MOL   H112 5908   7.546   5.867   1.113 -1.2079 -1.8452  1.5598
   19MOL   H113 5909   7.370   5.890   1.098  0.8283  1.5778 -0.5053
   19MOL   C114 5910   7.438   5.744   0.953 -0.2215  0.4056 -0.4820
   19MOL   C115 5911   7.562   5.711   0.876 -0.0596  0.4314  0.2857
   19MOL   C116 5912   7.671   5.634   0.931  0.6775  0.3699 -0.1718
   19MOL   C117 5913   7.792   5.617   0.859  0.1908  0.6365  0.5605
   19MOL   C118 5914   7.805   5.667   0.733  0.3894 -0.2967  0.1857
   19MOL  Cl119 5915   7.948   5.638   0.640 -0.2336 -0.2600  0.1233
   19MOL   C120 5916   7.701   5.742   0.675  0.0843 -0.0445  0.8904
   19MOL   C121 5917   7.578   5.764   0.747 -0.0436 -0.0339 -0.1870
   19MOL   C122 5918   7.388   5.622   1.031  0.3362  0.1020  0.1818
   19MOL   H123 5919   7.367   5.762   0.872 -0.4537 -0.8246 -0.5666
   19MOL   H124 5920   7.673   5.589   1.030  0.4659 -0.1164 -0.3901
   19MOL   H125 5921   7.874   5.561   0.900 -1.2625 -1.3653  0.7540
   19MOL   H126 5922   7.725   5.782   0.578 -2.3996  1.0454  0.6787
   19MOL   H127 5923   7.501   5.819   0.696  1.6131  0.9078 -1.7605
   19MOL   H128 5924   7.386   5.540   0.960  1.0917 -0.0273  0.3162
   19MOL   H129 5925   7.461   5.587   1.104  0.4430 -0.9173 -0.4108
   19MOL   C130 5926   7.246   5.635   1.092  0.4518 -0.3020  0.1952
   19MOL   C131 5927   7.151   5.713   1.013  0.4673  1.4563  0.1590
   19MOL   C132 5928   7.100   5.844   1.054  0.6992 -0.4257  0.2151
   19MOL   C133 5929   7.012   5.913   0.968  0.1950 -0.0856 -0.1175
   19MOL   C134 5930   6.968   5.858   0.845  1.1093  0.4261  0.6112
   19MOL  Cl135 5931   6.850   5.930   0.745 -0.5801  0.1220  0.2462
   19MOL   C136 5932   7.019   5.739   0.798 -0.4286  0.3459  0.7350
   19MOL   C137 5933   7.103   5.666   0.887 -0.4657 -0.6848 -0.6720
   19MOL   C138 5934   7.192   5.494   1.117  0.5903  0.6861  0.1370
   19MOL   H139 5935   7.260   5.687   1.187  1.3053 -0.7934  0.3487
   19MOL   H140 5936   7.127   5.886   1.150  0.0258 -0.7170  0.5371
   19MOL   H141 5937   6.979   6.012   0.996  1.1433 -0.2273  1.5754
   19MOL   H142 5938   6.988   5.679   0.713  4.0098  1.5664 -1.9123
   19MOL   H143 5939   7.138   5.572   0.847  2.6898  0.3504 -0.4502
   19MOL   H144 5940   7.091   5.517   1.149  0.9243  2.6235 -0.1173
   19MOL   H145 5941   7.182   5.442   1.022  2.7499  0.1440  0.1681
   19MOL   C146 5942   7.265   5.404   1.225 -0.3191  0.3905 -0.2779
   19MOL   C147 5943   7.292   5.470   1.360 -0.5364 -0.0655 -0.3658
   19MOL   C148 5944   7.421   5.508   1.404 -0.1981 -0.0720 -0.2180
   19MOL   C149 5945   7.445   5.569   1.535  0.5541 -0.2211  0.3348
   19MOL   C150 5946   7.339   5.582   1.625 -0.2355  0.4451 -0.6628
   19MOL  Cl151 5947   7.363   5.636   1.784 -0.1931  0.2065 -0.0535
   19MOL   C152 5948   7.211   5.535   1.580 -0.3486  0.2719 -0.7999
   19MOL   C153 5949   7.189   5.485   1.450  0.1829 -0.3215  0.4149
   19MOL   C154 5950   7.206   5.261   1.250  0.4239 -0.7092  0.2403
   19MOL   H155 5951   7.361   5.392   1.175 -0.2752  3.4030 -1.0040
   19MOL   H156 5952   7.506   5.485   1.341  0.5554 -4.6544  2.2233
   19MOL   H157 5953   7.546   5.599   1.559  1.0488 -0.9235 -0.7936
   19MOL   H158 5954   7.134   5.557   1.652 -1.1616 -0.2770 -1.4962
   19MOL   H159 5955   7.094   5.453   1.410  2.0406 -1.3289 -3.4813
   19MOL   H160 5956   7.231   5.222   1.349 -1.4174 -2.8429 -0.0858
   19MOL   H161 5957   7.097   5.262   1.240  0.4649  1.1379 -0.0848
   19MOL   C162 5958   7.257   5.156   1.151 -0.1000  0.5340  0.0010
   19MOL   C163 5959   7.403   5.111   1.161 -0.3287  0.1426  0.3689
   19MOL   C164 5960   7.453   5.061   1.278 -0.2268 -0.0430 -0.6360
   19MOL   C165 5961   7.590   5.024   1.289  0.5167 -0.0030  0.3854
   19MOL   C166 5962   7.671   5.036   1.172  0.1752 -0.4800 -0.5149
   19MOL  Cl167 5963   7.836   4.988   1.178 -0.1499  0.0299  0.0061
   19MOL   C168 5964   7.624   5.098   1.057  0.2492 -0.0662  0.1876
   19MOL   C169 5965   7.491   5.137   1.046 -0.3168  0.2157 -0.2593
   19MOL   C170 5966   7.167   5.030   1.128  0.2787 -0.8877  0.2629
   19MOL   H171 5967   7.255   5.200   1.051 -2.3555  0.3396 -0.0493
   19MOL   H172 5968   7.386   5.056   1.363 -1.0885  0.1373 -1.2883
   19MOL   H173 5969   7.626   4.983   1.382 -1.9796 -1.2151  0.8758
   19MOL   H174 5970   7.684   5.107   0.967 -1.2573 -0.4741 -0.8886
   19MOL   H175 5971   7.455   5.194   0.961  0.4472 -1.5249 -1.7891
   19MOL   H176 5972   7.229   4.940   1.132  1.5940 -0.0100  0.0738
   19MOL   H177 5973   7.104   5.021   1.216 -0.3436  2.3334  0.2133
   19MOL   C178 5974   7.065   5.022   1.010  0.0422 -0.1401  0.1402
   19MOL   C179 5975   6.982   5.151   1.001  0.2360 -0.0861 -0.2402
   19MOL   C180 5976   7.010   5.252   0.906 -0.2891 -0.2261  0.2728
   19MOL   C181 5977   6.929   5.366   0.902  0.2489  0.8540  0.1942
   19MOL   C182 5978   6.825   5.386   0.999 -0.0990 -0.0405 -0.4668
   19MOL  Cl183 5979   6.721   5.523   1.006 -0.2125 -0.1320 -0.0272
   19MOL   C184 5980   6.792   5.277   1.088 -0.4631  0.1346  0.1932
   19MOL   C185 5981   6.876   5.168   1.093 -0.0221  0.2559  0.6660
   19MOL   C186 5982   7.128   4.975   0.877 -0.1586 -0.8993  0.5007
   19MOL   H187 5983   6.992   4.952   1.049 -2.0265  1.2659 -1.0999
   19MOL   H188 5984   7.091   5.247   0.834  0.7772  0.3319  1.3987
   19MOL   H189 5985   6.968   5.451   0.847 -0.7803  2.5578  2.0140
   19MOL   H190 5986   6.715   5.298   1.161  0.1075  2.0242  0.2853
   19MOL   H191 5987   6.852   5.091   1.164  1.2558 -1.2122 -0.4351
   19MOL   H192 5988   7.210   5.042   0.850  0.2660 -1.4799  0.3371
   19MOL   H193 5989   7.180   4.881   0.894  0.1475 -1.0780 -1.3403
   19MOL   C194 5990   7.031   4.961   0.768 -0.1800  0.2445  0.4833
   19MOL   C195 5991   7.091   4.979   0.627  0.2394  0.0196 -0.1977
   19MOL   C196 5992   7.021   5.046   0.525 -0.1757 -0.3733  0.1076
   19MOL   C197 5993   7.078   5.058   0.395 -0.2866 -0.5221 -0.5863
   19MOL   C198 5994   7.212   5.011   0.374 -0.4554 -0.4286  0.0505
   19MOL  Cl199 5995   7.277   5.031   0.216 -0.0420 -0.1258  0.2537
   19MOL   C200 5996   7.275   4.942   0.475  0.2343  0.3653  0.2370
   19MOL   C201 5997   7.216   4.936   0.600 -0.4330  0.1405  0.5339
   19MOL   C202 5998   6.960   4.827   0.766 -0.2442  0.3554  0.1534
   19MOL   H203 5999   6.952   5.037   0.771  0.0615  0.4693  1.3151
   19MOL   H204 6000   6.921   5.080   0.548  0.0437  0.7725 -0.6031
   19MOL   H205 6001   7.017   5.102   0.318 -0.0381 -0.8379 -0.9682
   19MOL   H206 6002   7.377   4.912   0.456  0.0981  0.2135 -0.2664
   19MOL   H207 6003   7.277   4.891   0.678  0.8787 -1.0780 -1.1580
   19MOL   H208 6004   6.948   4.793   0.663  1.6030  0.4293 -0.1002
   19MOL   H209 6005   7.028   4.755   0.811  0.2905  1.0779  0.5163
   19MOL   C210 6006   6.827   4.827   0.843  0.6373 -0.2899  0.4778
   19MOL   C211 6007   6.724   4.898   0.758 -0.1911  0.0569 -0.1033
   19MOL   C212 6008   6.688   4.855   0.633  0.4236  0.1467 -0.1040
   19MOL   C213 6009   6.587   4.933   0.566 -0.5109  0.6384 -0.6100
   19MOL   C214 6010   6.526   5.044   0.628  0.0980 -0.1338 -0.3231
   19MOL  Cl215 6011   6.417   5.149   0.547 -0.0272  0.0157 -0.0850
   19MOL   C216 6012   6.559   5.077   0.760 -0.7234  0.3136 -0.6209
   19MOL   C217 6013   6.664   5.007   0.818 -0.0109 -0.6862  0.8679
   19MOL   C218 6014   6.777   4.686   0.860 -0.4806 -0.2741 -0.8581
   19MOL   H219 6015   6.836   4.883   0.935  1.0147 -0.4186  0.5206
   19MOL   H220 6016   6.742   4.772   0.590 -0.1158 -1.0022  1.3757
   19MOL   H221 6017   6.568   4.908   0.463 -1.2633  0.5746 -0.4608
   19MOL   H222 6018   6.504   5.159   0.803 -0.9155  0.6905 -1.5667
   19MOL   H223 6019   6.681   5.031   0.922 -0.1428 -2.8341  1.4163
   19MOL   H224 6020   6.669   4.687   0.844 -0.7809 -2.7121  0.8878
   19MOL   H225 6021   6.819   4.621   0.783  2.5493  0.6546 -0.0438
   19MOL   C226 6022   6.795   4.628   1.011  0.1949  0.1338 -0.2117
   19MOL   C227 6023   6.710   4.706   1.111 -0.4796 -0.1058 -0.0282
   19MOL   C228 6024   6.575   4.711   1.080  0.4688  0.4540  0.1798
   19MOL   C229 6025   6.486   4.780   1.167 -0.5494  0.3926 -0.1130
   19MOL   C230 6026   6.533   4.839   1.283 -0.1230 -0.3772 -0.2691
   19MOL  Cl231 6027   6.439   4.956   1.365  0.1607 -0.3437 -0.3222
   19MOL   C232 6028   6.671   4.836   1.312 -0.7874 -0.7295  0.2447
   19MOL   C233 6029   6.763   4.766   1.229  1.2166 -0.8799  0.0759
   19MOL   C234 6030   6.751   4.478   1.021  0.0796  0.3810  0.2140
   19MOL   H235 6031   6.896   4.637   1.051  0.4025  1.1177 -0.9456
   19MOL   H236 6032   6.527   4.669   0.993  0.6507  0.6352 -0.0107
   19MOL   H237 6033   6.379   4.780   1.148 -0.3297 -3.5055 -1.7638
   19MOL   H238 6034   6.718   4.901   1.384 -0.8541 -0.9451  0.4802
   19MOL   H239 6035   6.870   4.773   1.235  1.2810  0.2878 -1.9061
   19MOL   H240 6036   6.749   4.456   1.128 -2.4376 -0.2551  0.0734
   19MOL   H241 6037   6.648   4.469   0.986  0.6673 -1.8636 -1.0101
   19MOL   C242 6038   6.839   4.372   0.959  0.5277 -0.4422 -0.4957
   19MOL   C243 6039   6.985   4.398   0.980 -0.1407 -0.0896  0.6939
   19MOL   C244 6040   7.047   4.386   1.107 -0.6585 -0.1533 -0.8971
   19MOL   C245 6041   7.179   4.426   1.130  0.0211 -0.3842  0.4630
   19MOL   C246 6042   7.259   4.475   1.019 -0.5405  0.7609  0.2018
   19MOL  Cl247 6043   7.421   4.518   1.041  0.0124  0.4206 -0.2006
   19MOL   C248 6044   7.200   4.481   0.891 -0.1728  0.0922 -0.1426
   19MOL   C249 6045   7.070   4.438   0.875 -0.1670  0.4044  0.8070
   19MOL   C250 6046   6.786   4.231   1.000  0.0752  0.2941  0.7489
   19MOL   H251 6047   6.822   4.377   0.852 -0.6935  2.4400 -0.2275
   19MOL   H252 6048   6.990   4.357   1.194  0.4855  0.6605  0.1441
   19MOL   H253 6049   7.236   4.416   1.222  0.8733  2.9052  0.3312
   19MOL   H254 6050   7.249   4.526   0.806 -0.1035  0.6597  0.1937
   19MOL   H255 6051   7.026   4.445   0.776  2.2650 -0.7811 -0.4216
   19MOL   H256 6052   6.860   4.170   0.949  0.4181  0.0509  1.5291
   19MOL   H257 6053   6.814   4.202   1.101  3.2641  2.3222  0.5183
   19MOL   C258 6054   6.648   4.183   0.953  0.8694 -0.0805 -0.6755
   19MOL   C259 6055   6.593   4.251   0.824  0.0345  0.1080 -0.6325
   19MOL   C260 6056   6.461   4.291   0.833 -0.6030 -0.1679 -0.1103
   19MOL   C261 6057   6.407   4.346   0.715  0.3531  0.1466 -0.2305
   19MOL   C262 6058   6.483   4.353   0.593 -0.0620  0.5883  0.4821
   19MOL  Cl263 6059   6.414   4.432   0.459  0.0364 -0.0862 -0.0993
   19MOL   C264 6060   6.615   4.305   0.586  0.8878 -0.2616 -0.0179
   19MOL   C265 6061   6.666   4.254   0.705  0.1947  0.5211  0.4238
   19MOL   C266 6062   6.624   4.035   0.954  0.1845 -0.7047  0.2198
   19MOL   H267 6063   6.591   4.226   1.035  1.7574 -0.3918  0.1074
   19MOL   H268 6064   6.408   4.283   0.926 -1.7922  1.2055 -0.6528
   19MOL   H269 6065   6.306   4.382   0.721 -0.9747 -2.9424 -2.8371
   19MOL   H270 6066   6.669   4.323   0.494  4.1330 -0.2624  1.7950
   19MOL   H271 6067   6.768   4.218   0.711  0.0308  0.0528  0.4618
   19MOL   H272 6068   6.534   4.007   0.899  0.2969  0.6823 -0.7210
   19MOL   H273 6069   6.706   3.997   0.894 -0.4514 -0.7862 -0.6116
   19MOL   C274 6070   6.607   3.985   1.096 -0.6613 -0.0965 -0.7968
   19MOL   C275 6071   6.484   4.035   1.168  0.5989 -0.1240  0.1965
   19MOL   C276 6072   6.498   4.123   1.276  0.0546 -0.2098 -0.2520
   19MOL   C277 6073   6.379   4.185   1.328 -0.4074 -0.6127  0.3786
   19MOL   C278 6074   6.255   4.139   1.282  0.6193  0.1834  0.5065
   19MOL  Cl279 6075   6.111   4.171   1.370 -0.0078  0.0502  0.2631
   19MOL   C280 6076   6.241   4.058   1.167  0.1198 -0.0064 -0.5044
   19MOL   C281 6077   6.361   4.006   1.112 -0.3023 -0.0636  0.0555
   19MOL   C282 6078   6.629   3.833   1.106  0.6018  0.8522 -0.3569
   19MOL   H283 6079   6.684   4.029   1.160 -3.2292  0.8192  1.7577
   19MOL   H284 6080   6.593   4.151   1.319 -1.9163  5.1216  1.0204
   19MOL   H285 6081   6.373   4.254   1.411  1.6188  1.2321 -0.9532
   19MOL   H286 6082   6.147   4.027   1.124  0.5917 -2.6368  0.2699
   19MOL   H287 6083   6.360   3.929   1.036  0.9932  2.0828 -2.1820
   19MOL   H288 6084   6.588   3.797   1.200  2.8425  1.2654  0.8237
   19MOL   H289 6085   6.563   3.787   1.032 -0.0197  1.6699 -0.3190
   19MOL   C290 6086   6.771   3.768   1.092 -0.3726  0.6112 -0.8456
   19MOL   C291 6087   6.871   3.837   1.181  0.2501 -0.2002  0.0638
   19MOL   C292 6088   6.866   3.819   1.322 -0.3803  0.4561  0.6802
   19MOL   C293 6089   6.958   3.882   1.400 -0.5162  0.3315 -0.3137
   19MOL   C294 6090   7.066   3.954   1.335 -0.4438  0.1390 -0.2110
   19MOL  Cl295 6091   7.173   4.050   1.429 -0.1811 -0.1743  0.2409
   19MOL   C296 6092   7.081   3.946   1.199 -1.1366  0.4102  0.7841
   19MOL   C297 6093   6.986   3.884   1.122  0.2841  0.2668  0.7388
   19MOL   C298 6094   6.773   3.617   1.132  0.5610  0.0645 -0.0204
   19MOL   H299 6095   6.804   3.785   0.989 -0.4912  0.7259 -0.8651
   19MOL   H300 6096   6.787   3.769   1.376 -0.7313 -0.3665 -0.5695
   19MOL   H301 6097   6.935   3.883   1.506  0.4383  3.0405 -0.0900
   19MOL   H302 6098   7.172   3.987   1.159 -1.4816  0.4199 -0.0194
   19MOL   H303 6099   6.992   3.881   1.014 -0.8810 -0.9873  0.6980
   19MOL   H304 6100   6.852   3.591   1.202  1.2461  1.6936 -0.1798
   19MOL   H305 6101   6.682   3.585   1.184 -1.0054  0.1912 -2.6241
   19MOL   C306 6102   6.778   3.521   1.012 -0.5478  0.0373  1.1823
   19MOL   C307 6103   6.907   3.521   0.932  0.0062  0.5117  0.8719
   19MOL   C308 6104   7.034   3.557   0.983  0.4167 -0.2868 -0.2362
   19MOL   C309 6105   7.150   3.567   0.898  0.4371  0.5518 -0.4219
   19MOL   C310 6106   7.140   3.528   0.761 -0.0304  0.2349 -0.6032
   19MOL  Cl311 6107   7.271   3.543   0.657  0.0870 -0.2747 -0.1152
   19MOL   C312 6108   7.016   3.479   0.716  0.8588 -0.8283 -0.6987
   19MOL   C313 6109   6.901   3.485   0.797  0.1641 -0.3297 -0.4252
   19MOL   C314 6110   6.737   3.377   1.050 -0.1032 -0.1280  0.0241
   19MOL   H315 6111   6.700   3.554   0.942 -1.0414  0.2163  1.8120
   19MOL   H316 6112   7.039   3.594   1.084  0.6717  1.7086 -0.9454
   19MOL   H317 6113   7.245   3.605   0.934  0.6896 -0.1568 -0.3431
   19MOL   H318 6114   7.013   3.437   0.617  0.5466 -2.0573 -0.1818
   19MOL   H319 6115   6.807   3.460   0.750 -0.5785  2.2803 -0.3872
   19MOL   H320 6116   6.813   3.324   1.108 -1.7205 -0.9287  1.4320
   19MOL   H321 6117   6.646   3.372   1.109  0.9199 -1.5980  1.5349
   19MOL   H322 6118   6.725   3.309   0.966 -0.4577  1.3908 -1.1967
   20MOL     C1 6119   5.392   0.699   6.368 -0.7938 -0.5182  0.2649
   20MOL     C2 6120   5.386   0.831   6.436  0.0064 -0.3426  0.2345
   20MOL     C3 6121   5.494   0.915   6.448  0.2928  0.4784  0.1696
   20MOL     C4 6122   5.470   1.042   6.503 -0.2234 -0.0181 -0.7267
   20MOL     C5 6123   5.352   1.080   6.566  0.0930  0.6529 -0.0305
   20MOL    Cl6 6124   5.346   1.224   6.653  0.2092 -0.0668 -0.6054
   20MOL     C7 6125   5.243   0.998   6.548 -0.0987  0.2794  0.1560
   20MOL     C8 6126   5.258   0.878   6.485 -0.0255  0.2842 -0.5296
   20MOL     C9 6127   5.394   0.576   6.467 -0.3013 -0.2531 -0.2652
   20MOL    H10 6128   5.480   0.692   6.304 -2.0614 -3.4093 -1.2787
   20MOL    H11 6129   5.591   0.887   6.410  0.3603  1.9544 -0.7896
   20MOL    H12 6130   5.554   1.109   6.518 -1.2459  1.2980 -0.7311
   20MOL    H13 6131   5.154   1.032   6.598  1.4151  1.0640  2.3858
   20MOL    H14 6132   5.169   0.818   6.473 -1.6557  2.2214  1.5208
   20MOL    H15 6133   5.469   0.598   6.543  2.2456 -1.2494 -2.4139
   20MOL    H16 6134   5.302   0.570   6.525 -0.2819  1.6122 -0.0099
   20MOL    H17 6135   5.316   0.705   6.289 -1.1315  2.4744  0.7508
   20MOL    C18 6136   5.431   0.435   6.419  0.1372 -0.4408  0.3049
   20MOL    C19 6137   5.451   0.346   6.541  0.3759 -0.0002  0.2256
   20MOL    C20 6138   5.571   0.279   6.573 -0.4999 -0.1777  0.7226
   20MOL    C21 6139   5.590   0.218   6.700  0.0248 -0.3772 -0.9850
   20MOL    C22 6140   5.476   0.194   6.785 -0.0555 -0.1199  0.7240
   20MOL   Cl23 6141   5.492   0.090   6.922  0.0039 -0.2636  0.0059
   20MOL    C24 6142   5.355   0.260   6.753  0.2190  0.3374 -0.1574
   20MOL    C25 6143   5.338   0.330   6.630 -0.3773  0.6393 -0.0850
   20MOL    C26 6144   5.317   0.382   6.323  0.4104  1.2644 -0.3786
   20MOL    H27 6145   5.525   0.445   6.364  1.0344 -0.8799  1.7268
   20MOL    H28 6146   5.654   0.285   6.504 -1.2646  0.5490 -0.1380
   20MOL    H29 6147   5.682   0.166   6.723 -0.2730  0.4380  2.3918
   20MOL    H30 6148   5.264   0.236   6.807 -0.0492  2.5015  0.3727
   20MOL    H31 6149   5.239   0.367   6.606  0.1962  0.8848 -2.1509
   20MOL    H32 6150   5.228   0.353   6.378  0.0303  1.5271 -0.8519
   20MOL    H33 6151   5.281   0.460   6.256  1.5955  2.2207  0.0883
   20MOL    C34 6152   5.361   0.266   6.241 -0.2585 -0.2809 -1.1568
   20MOL    C35 6153   5.240   0.199   6.178 -0.0870  0.1558 -0.2549
   20MOL    C36 6154   5.143   0.268   6.104 -0.7046 -0.3249 -0.2070
   20MOL    C37 6155   5.031   0.204   6.049  0.3388  0.2553  0.0282
   20MOL    C38 6156   5.020   0.065   6.058  0.8839 -0.7983 -0.0089
   20MOL   Cl39 6157   4.885   8.438   5.985 -0.2214 -0.6355 -0.2817
   20MOL    C40 6158   5.115   8.436   6.125  0.2213 -0.4536  0.0726
   20MOL    C41 6159   5.218   0.064   6.188 -0.0615 -0.0557 -0.4091
   20MOL    C42 6160   5.467   0.299   6.124 -0.1271  0.0879 -0.5495
   20MOL    H43 6161   5.413   0.199   6.309  1.8308  1.8878 -0.5370
   20MOL    H44 6162   5.146   0.376   6.092 -0.8699 -0.2775  0.1837
   20MOL    H45 6163   4.958   0.256   5.989 -0.8137 -1.4699 -0.1014
   20MOL    H46 6164   5.110   8.329   6.135  0.3987 -0.4687  0.0088
   20MOL    H47 6165   5.293   0.011   6.245  2.9917  1.0935 -3.2141
   20MOL    H48 6166   5.439   0.261   6.025 -0.6572 -3.1407  0.7915
   20MOL    H49 6167   5.467   0.407   6.110  2.7007  0.1596 -0.4274
   20MOL    C50 6168   5.616   0.256   6.158 -0.1075 -0.0630  0.0813
   20MOL    C51 6169   5.624   0.107   6.162 -0.6082 -0.0612  0.1986
   20MOL    C52 6170   5.598   0.025   6.051  0.0330 -0.0482  0.5521
   20MOL    C53 6171   5.610   8.329   6.057 -0.0188  0.1363 -0.0513
   20MOL    C54 6172   5.629   8.260   6.180 -0.3797 -0.6543  0.8033
   20MOL   Cl55 6173   5.621   8.089   6.183 -0.2920 -0.0628 -0.0500
   20MOL    C56 6174   5.639   8.339   6.295  0.0967  0.3106  0.2354
   20MOL    C57 6175   5.651   0.038   6.285  0.7068  0.4025  0.2683
   20MOL    C58 6176   5.721   0.324   6.073 -0.0818  0.6577 -0.0652
   20MOL    H59 6177   5.639   0.277   6.263 -0.7169 -1.8404  0.5805
   20MOL    H60 6178   5.577   0.061   5.951 -0.7109  0.2083  0.8016
   20MOL    H61 6179   5.594   8.274   5.966  1.1927  0.8287 -0.6987
   20MOL    H62 6180   5.650   8.290   6.391  0.7806 -2.7381 -1.3204
   20MOL    H63 6181   5.676   0.095   6.373  0.6820  1.9581 -0.7121
   20MOL    H64 6182   5.815   0.269   6.071  0.2106  1.1495 -0.0528
   20MOL    H65 6183   5.683   0.324   5.970 -0.3613 -1.4951  0.0255
   20MOL    C66 6184   5.759   0.470   6.116 -0.3471 -0.2774  0.0022
   20MOL    C67 6185   5.822   0.489   6.255 -0.7400 -0.3083 -0.0855
   20MOL    C68 6186   5.897   0.380   6.317 -0.2256 -0.1749  0.4794
   20MOL    C69 6187   5.957   0.404   6.444 -0.6434  0.2536 -0.5689
   20MOL    C70 6188   5.931   0.527   6.511 -0.8327 -0.6870  0.0290
   20MOL   Cl71 6189   6.008   0.565   6.659 -0.3213 -0.3276  0.2473
   20MOL    C72 6190   5.860   0.632   6.453 -0.6261  0.2296 -0.1773
   20MOL    C73 6191   5.809   0.609   6.327  0.0128 -0.4801 -0.1810
   20MOL    C74 6192   5.838   0.547   6.005 -0.6291 -0.3932  0.2672
   20MOL    H75 6193   5.666   0.524   6.134  2.0723  4.9987 -2.0653
   20MOL    H76 6194   5.901   0.279   6.277 -3.3387  0.2219 -0.9376
   20MOL    H77 6195   6.006   0.322   6.493  1.7533  1.4758 -0.8680
   20MOL    H78 6196   5.864   0.732   6.493 -1.5526  0.6889 -1.2107
   20MOL    H79 6197   5.761   0.692   6.278  0.5354  1.2431  2.0988
   20MOL    H80 6198   5.875   0.639   6.051 -0.6018  0.2568 -1.0315
   20MOL    H81 6199   5.925   0.495   5.966  1.2376  1.0399  2.4006
   20MOL    C82 6200   5.757   0.585   5.883  0.4487 -0.4993  0.7668
   20MOL    C83 6201   5.640   0.677   5.914 -0.0333  0.9548  0.2867
   20MOL    C84 6202   5.657   0.815   5.948 -0.3667 -0.1032 -0.8612
   20MOL    C85 6203   5.552   0.896   5.989 -0.4572 -0.2007  0.5057
   20MOL    C86 6204   5.423   0.844   5.980 -0.3675 -0.3575  0.2930
   20MOL   Cl87 6205   5.282   0.943   6.016 -0.2850 -0.0420  0.0572
   20MOL    C88 6206   5.397   0.714   5.941 -0.1929 -0.2075 -0.5697
   20MOL    C89 6207   5.506   0.633   5.899 -0.1277 -0.2209  0.0323
   20MOL    C90 6208   5.852   0.628   5.776  0.8673 -0.2383 -0.7042
   20MOL    H91 6209   5.712   0.494   5.845 -0.4025 -0.0205  0.6127
   20MOL    H92 6210   5.754   0.862   5.942 -0.0581 -0.4825  0.8715
   20MOL    H93 6211   5.582   0.997   6.011 -0.1152 -0.2570  0.2945
   20MOL    H94 6212   5.299   0.670   5.927  0.2509 -0.9840 -1.3277
   20MOL    H95 6213   5.497   0.534   5.857  0.3831  0.6398 -2.2091
   20MOL    H96 6214   5.898   0.721   5.811 -1.7891  1.4121 -1.4785
   20MOL    H97 6215   5.933   0.557   5.759  1.2911  0.4906 -1.7312
   20MOL    C98 6216   5.788   0.675   5.640 -0.2208  0.6850 -0.0366
   20MOL    C99 6217   5.883   0.768   5.565 -0.4190 -0.3717  0.4781
   20MOL   C100 6218   6.025   0.746   5.556 -0.6929  0.6660 -0.7971
   20MOL   C101 6219   6.105   0.833   5.482 -0.1522  0.5147  0.0559
   20MOL   C102 6220   6.051   0.942   5.413 -0.1200 -0.3978  0.6891
   20MOL  Cl103 6221   6.147   1.048   5.313  0.4760 -0.1202  0.2649
   20MOL   C104 6222   5.909   0.959   5.412 -0.5089  0.0582 -0.4229
   20MOL   C105 6223   5.827   0.874   5.490  0.5397 -0.4703  0.8219
   20MOL   C106 6224   5.761   0.560   5.540 -0.1258  0.7091 -0.5797
   20MOL   H107 6225   5.694   0.726   5.663 -0.4195  0.6603 -0.7949
   20MOL   H108 6226   6.080   0.662   5.596 -1.2993  0.4258 -0.4574
   20MOL   H109 6227   6.209   0.803   5.476 -0.4972 -1.0425  1.4863
   20MOL   H110 6228   5.876   1.060   5.392 -0.3626 -0.2136 -2.1093
   20MOL   H111 6229   5.722   0.894   5.507  0.8662  1.2743  0.8347
   20MOL   H112 6230   5.807   0.581   5.443  1.4756  1.0970  0.2393
   20MOL   H113 6231   5.819   0.475   5.578 -2.5597 -0.7546 -0.0047
   20MOL   C114 6232   5.614   0.531   5.515  0.3953  1.1925 -0.1670
   20MOL   C115 6233   5.548   0.644   5.433  0.3118 -0.1723 -1.2355
   20MOL   C116 6234   5.568   0.659   5.292 -0.3405 -0.4808 -0.1428
   20MOL   C117 6235   5.484   0.747   5.212 -0.3629  0.0200  0.2217
   20MOL   C118 6236   5.394   0.833   5.279  0.0184 -0.1485  0.4899
   20MOL  Cl119 6237   5.305   0.955   5.180 -0.1406 -0.2275  0.0684
   20MOL   C120 6238   5.377   0.827   5.418  0.2955  0.1471  0.2953
   20MOL   C121 6239   5.457   0.733   5.491  0.0699  0.6430 -0.3113
   20MOL   C122 6240   5.597   0.398   5.441 -0.2057  0.3717 -0.0273
   20MOL   H123 6241   5.562   0.532   5.611 -0.7747 -1.1690 -0.7509
   20MOL   H124 6242   5.646   0.598   5.248  0.5098 -0.2129  0.9516
   20MOL   H125 6243   5.508   0.767   5.109 -0.6881  1.2602  0.3736
   20MOL   H126 6244   5.306   0.879   5.480 -0.9585  0.4223 -1.3461
   20MOL   H127 6245   5.444   0.732   5.598 -0.0744 -0.3525 -0.3261
   20MOL   H128 6246   5.526   0.412   5.359  0.7462 -1.7704 -1.2668
   20MOL   H129 6247   5.690   0.370   5.392  0.1568 -1.7479  1.7859
   20MOL   C130 6248   5.532   0.281   5.532 -0.1817  0.2780  0.0264
   20MOL   C131 6249   5.388   0.318   5.584 -0.2154  0.0985  0.1786
   20MOL   C132 6250   5.363   0.330   5.717  0.0388 -0.4372 -0.1412
   20MOL   C133 6251   5.234   0.370   5.761  0.1185  1.1118 -0.1322
   20MOL   C134 6252   5.136   0.397   5.671 -0.3048  0.5740  0.2918
   20MOL  Cl135 6253   4.975   0.425   5.733  0.1078  0.0407 -0.2216
   20MOL   C136 6254   5.160   0.396   5.532 -0.1269 -0.2284 -0.5469
   20MOL   C137 6255   5.291   0.355   5.489  0.5816 -0.0518 -0.1327
   20MOL   C138 6256   5.528   0.149   5.444 -0.0699 -0.4830 -0.5811
   20MOL   H139 6257   5.599   0.274   5.618  0.9306 -0.3201 -0.8745
   20MOL   H140 6258   5.441   0.305   5.788  0.6640  0.3732 -0.5443
   20MOL   H141 6259   5.219   0.387   5.866  1.1045 -2.1129  0.5665
   20MOL   H142 6260   5.077   0.406   5.463  0.0238 -1.4920 -0.9211
   20MOL   H143 6261   5.311   0.354   5.383 -0.1070 -2.8011 -0.2625
   20MOL   H144 6262   5.454   0.083   5.488  1.9197 -1.1890  1.8670
   20MOL   H145 6263   5.484   0.163   5.346 -2.1752  1.0270  0.5269
   20MOL   C146 6264   5.656   0.066   5.428  0.1507 -0.5397  0.3747
   20MOL   C147 6265   5.752   0.076   5.548  0.1557  0.4337 -0.1366
   20MOL   C148 6266   5.721   0.019   5.677  0.1875  0.0294  0.3133
   20MOL   C149 6267   5.806   0.037   5.787 -0.2707 -0.4341  0.0344
   20MOL   C150 6268   5.931   0.108   5.764 -0.0082  0.3266 -0.2701
   20MOL  Cl151 6269   6.048   0.129   5.888  0.1401  0.5635  0.0285
   20MOL   C152 6270   5.961   0.159   5.639  0.3716 -0.1049  0.5994
   20MOL   C153 6271   5.873   0.148   5.533 -0.4193 -0.7457  0.4069
   20MOL   C154 6272   5.610   8.357   5.401  0.0005 -0.3640  0.1048
   20MOL   H155 6273   5.709   0.107   5.342  2.0871 -2.8166  0.4292
   20MOL   H156 6274   5.626   8.414   5.694  0.0883  0.2609  0.4289
   20MOL   H157 6275   5.785   8.443   5.886  1.3538 -1.1677  0.1194
   20MOL   H158 6276   6.057   0.205   5.620  1.2368 -2.4510 -0.8925
   20MOL   H159 6277   5.902   0.190   5.438 -2.8975  1.0857  0.4115
   20MOL   H160 6278   5.563   8.321   5.493 -1.8783 -1.4045 -1.2354
   20MOL   H161 6279   5.529   8.357   5.329 -0.3650 -1.6519  0.4928
   20MOL   C162 6280   5.727   8.259   5.365 -0.2134 -0.0072 -0.0598
   20MOL   C163 6281   5.697   8.124   5.434  0.5714 -0.2858  0.0131
   20MOL   C164 6282   5.587   8.037   5.387  0.3156 -0.4580  0.3076
   20MOL   C165 6283   5.564   7.918   5.451  0.0980  0.2175 -0.2219
   20MOL   C166 6284   5.645   7.882   5.560  1.0895  0.7903 -0.4818
   20MOL  Cl167 6285   5.621   7.724   5.625 -0.0920  0.6560 -0.0795
   20MOL   C168 6286   5.750   7.960   5.609  0.0406 -0.2088  0.2311
   20MOL   C169 6287   5.772   8.083   5.543 -0.2228 -0.5979  0.3538
   20MOL   C170 6288   5.744   8.231   5.209  0.5006 -0.1749  0.7444
   20MOL   H171 6289   5.821   8.297   5.406 -0.0104 -0.4935 -0.0824
   20MOL   H172 6290   5.522   8.064   5.306  0.5505 -1.2709 -0.1562
   20MOL   H173 6291   5.492   7.845   5.417 -3.7912  3.8689 -0.3199
   20MOL   H174 6292   5.813   7.923   5.689  1.3566 -0.0046 -0.6890
   20MOL   H175 6293   5.845   8.155   5.577 -0.6084 -0.1325  0.1999
   20MOL   H176 6294   5.821   8.155   5.196 -0.1317 -1.0440  1.9539
   20MOL   H177 6295   5.649   8.192   5.174  0.5227 -0.6625  1.2126
   20MOL   C178 6296   5.770   8.344   5.113 -0.1726 -0.3212 -0.3919
   20MOL   C179 6297   5.916   8.401   5.112  0.1959 -0.0525 -0.5620
   20MOL   C180 6298   6.032   8.325   5.071  0.2960 -0.6493  0.0865
   20MOL   C181 6299   6.157   8.392   5.045  0.0725  0.1598  0.3819
   20MOL   C182 6300   6.171   0.087   5.071  0.0833  0.8142  0.3394
   20MOL  Cl183 6301   6.302   0.192   5.031 -0.3088 -0.0752 -0.1289
   20MOL   C184 6302   6.058   0.157   5.114  0.1799  0.4322  0.4457
   20MOL   C185 6303   5.935   0.098   5.137  0.4944  0.0378  0.2071
   20MOL   C186 6304   5.732   8.304   4.969 -0.0640  0.3842 -0.1520
   20MOL   H187 6305   5.708   8.428   5.143  0.9646  0.3392  0.1771
   20MOL   H188 6306   6.026   8.217   5.061  1.1605 -1.0107  3.0155
   20MOL   H189 6307   6.240   8.336   5.004 -0.6564 -1.5691  1.1810
   20MOL   H190 6308   6.058   0.265   5.105  0.1019  0.5230  1.5200
   20MOL   H191 6309   5.849   0.161   5.152  2.4981  2.6848  0.8860
   20MOL   H192 6310   5.787   8.355   4.890 -2.2176  1.8227 -0.7837
   20MOL   H193 6311   5.773   8.204   4.959  0.6331  0.7627 -1.2195
   20MOL   C194 6312   5.582   8.321   4.938  1.0556  0.3081  0.0299
   20MOL   C195 6313   5.533   0.023   4.958  0.0711  0.0323  0.7634
   20MOL   C196 6314   5.410   0.055   5.027  0.5614  0.0768 -0.4305
   20MOL   C197 6315   5.365   0.189   5.045  0.1466 -0.5865 -0.8074
   20MOL   C198 6316   5.449   0.294   5.002  0.1764 -0.6200 -1.1459
   20MOL  Cl199 6317   5.414   0.463   5.020 -0.1078  0.1513 -0.2604
   20MOL   C200 6318   5.567   0.255   4.933  0.5041 -0.0739  0.5557
   20MOL   C201 6319   5.610   0.128   4.907 -0.0507  0.1914  0.1728
   20MOL   C202 6320   5.549   8.261   4.799  0.2781  0.0326 -0.5462
   20MOL   H203 6321   5.529   8.257   5.008  1.0026 -0.9769 -1.1740
   20MOL   H204 6322   5.353   8.412   5.059  0.2215 -0.5528 -2.6760
   20MOL   H205 6323   5.272   0.212   5.094 -0.5089  0.1003 -2.3334
   20MOL   H206 6324   5.629   0.336   4.896 -1.7707  1.3405 -0.3185
   20MOL   H207 6325   5.707   0.109   4.864 -0.0677 -1.6858  0.9301
   20MOL   H208 6326   5.448   8.295   4.776  0.7087  1.4604 -0.3339
   20MOL   H209 6327   5.617   8.310   4.730  1.7727 -0.6715  0.4075
   20MOL   C210 6328   5.568   8.108   4.779 -0.4011  0.2621 -0.2865
   20MOL   C211 6329   5.497   8.037   4.893  0.0881  0.0609 -0.0161
   20MOL   C212 6330   5.358   8.046   4.911 -0.9397 -0.1918  0.6372
   20MOL   C213 6331   5.287   7.973   5.008 -0.7893 -0.0158  0.1617
   20MOL   C214 6332   5.359   7.890   5.104  0.4663 -0.0005  0.1318
   20MOL  Cl215 6333   5.272   7.798   5.222  0.3196 -0.1366 -0.1503
   20MOL   C216 6334   5.497   7.878   5.086  0.3510  0.6920  0.4121
   20MOL   C217 6335   5.562   7.947   4.983 -0.1173 -0.3981  0.1304
   20MOL   C218 6336   5.516   8.049   4.644 -0.3539  0.1594  0.7275
   20MOL   H219 6337   5.670   8.077   4.802 -1.1529 -2.1345  0.0029
   20MOL   H220 6338   5.310   8.115   4.844  0.6565 -0.5194 -0.8931
   20MOL   H221 6339   5.181   7.986   5.017 -0.8892 -1.5830  1.4109
   20MOL   H222 6340   5.545   7.815   5.159  1.0264  1.6196  0.7750
   20MOL   H223 6341   5.670   7.940   4.978  0.0524  2.4827 -0.9124
   20MOL   H224 6342   5.523   7.940   4.645  2.4662  0.2742 -0.9790
   20MOL   H225 6343   5.410   8.070   4.631 -1.1452 -4.2153 -0.8560
   20MOL   C226 6344   5.593   8.088   4.521  0.5718 -0.4941  0.5177
   20MOL   C227 6345   5.736   8.045   4.540  0.5762  0.8176 -0.1144
   20MOL   C228 6346   5.830   8.136   4.593 -0.5308  0.0831  0.0359
   20MOL   C229 6347   5.963   8.109   4.606 -0.0096  0.7092  0.3957
   20MOL   C230 6348   6.010   7.977   4.577  0.1221 -0.5878  0.6037
   20MOL  Cl231 6349   6.170   7.934   4.605 -0.0577 -0.6091  0.0354
   20MOL   C232 6350   5.917   7.881   4.523 -0.2939  0.3147  0.1675
   20MOL   C233 6351   5.783   7.915   4.506 -0.0347  0.0217 -0.0580
   20MOL   C234 6352   5.515   8.034   4.395 -0.1967 -0.4943  0.2208
   20MOL   H235 6353   5.581   8.197   4.516  2.2454 -0.3406 -0.5008
   20MOL   H236 6354   5.795   8.234   4.621 -0.0536  0.2944 -0.0954
   20MOL   H237 6355   6.017   8.189   4.654 -1.6321  1.4963  0.9490
   20MOL   H238 6356   5.942   7.778   4.499  0.0442  0.7817 -1.5385
   20MOL   H239 6357   5.711   7.846   4.465  0.8460 -1.9955  1.6689
   20MOL   H240 6358   5.520   7.926   4.394 -0.6183 -0.5117  0.2085
   20MOL   H241 6359   5.413   8.073   4.398  0.6302  1.6586  3.1740
   20MOL   C242 6360   5.579   8.061   4.250  0.9495  0.9439 -1.0213
   20MOL   C243 6361   5.516   7.978   4.149  0.2962 -0.2783  0.3630
   20MOL   C244 6362   5.581   7.863   4.100  0.0651  0.0798 -0.5299
   20MOL   C245 6363   5.527   7.780   4.001  0.7246 -0.1753  0.4696
   20MOL   C246 6364   5.399   7.817   3.954 -0.4105  0.2222  0.1809
   20MOL  Cl247 6365   5.322   7.732   3.824  0.1009 -0.4049  0.4662
   20MOL   C248 6366   5.328   7.926   4.002 -0.0289 -0.2718 -0.0238
   20MOL   C249 6367   5.385   8.002   4.107  0.3842 -0.4473  0.1859
   20MOL   C250 6368   5.582   8.211   4.212  0.9916  0.6467 -0.3999
   20MOL   H251 6369   5.679   8.021   4.263  0.5163  1.1136  3.7111
   20MOL   H252 6370   5.676   7.837   4.145  0.0839 -3.3408 -2.3807
   20MOL   H253 6371   5.572   7.685   3.978 -2.1819 -1.2937 -0.7905
   20MOL   H254 6372   5.229   7.953   3.970 -0.2042 -1.5098 -0.5540
   20MOL   H255 6373   5.325   8.082   4.146  1.0854 -0.5535  1.4985
   20MOL   H256 6374   5.557   8.230   4.108 -1.1156  0.0942 -0.0255
   20MOL   H257 6375   5.506   8.265   4.269  0.7776 -0.0010 -0.0644
   20MOL   C258 6376   5.718   8.284   4.236  0.4292  0.0050  0.2529
   20MOL   C259 6377   5.829   8.229   4.148  0.6016  0.4659  0.1108
   20MOL   C260 6378   5.930   8.148   4.204  0.1693 -0.7603 -0.5548
   20MOL   C261 6379   6.030   8.096   4.122  0.0791  0.4164  0.0996
   20MOL   C262 6380   6.025   8.102   3.977 -1.3501 -0.2164  0.0825
   20MOL  Cl263 6381   6.126   8.011   3.877  0.0296 -0.1506 -0.0921
   20MOL   C264 6382   5.926   8.189   3.920  0.2795 -0.3126  0.3394
   20MOL   C265 6383   5.836   8.254   4.011  0.3025  0.3868  0.9866
   20MOL   C266 6384   5.695   8.434   4.211 -0.1073  0.3618  0.0326
   20MOL   H267 6385   5.762   8.269   4.335  4.0540  0.6927 -1.1758
   20MOL   H268 6386   5.939   8.117   4.307  1.0549  0.8305 -0.1280
   20MOL   H269 6387   6.110   8.041   4.169 -0.0338  1.1435  1.1619
   20MOL   H270 6388   5.917   8.187   3.812 -1.4343 -0.3954  0.4744
   20MOL   H271 6389   5.766   8.327   3.972  2.8796  0.9971 -2.7641
   20MOL   H272 6390   5.768   0.037   4.145  0.7820 -3.0790 -1.4764
   20MOL   H273 6391   5.600   0.004   4.158  0.6596  1.1134 -1.1865
   20MOL   C274 6392   5.675   0.055   4.351 -0.3451 -0.3238 -0.4620
   20MOL   C275 6393   5.800   0.060   4.437  0.1309 -0.3633  0.0692
   20MOL   C276 6394   5.934   0.054   4.383 -0.6243 -0.1376  0.4490
   20MOL   C277 6395   6.048   0.052   4.468 -0.1378 -0.2914  0.5488
   20MOL   C278 6396   6.029   0.067   4.606 -0.0935  0.0443 -0.4755
   20MOL  Cl279 6397   6.159   0.078   4.719 -0.1310 -0.3693 -0.0536
   20MOL   C280 6398   5.898   0.078   4.660  0.6686  0.1715 -0.0234
   20MOL   C281 6399   5.776   0.068   4.576  0.1357 -0.0114 -0.6675
   20MOL   C282 6400   5.632   0.205   4.324 -0.7267  0.3655 -0.1335
   20MOL   H283 6401   5.605   8.437   4.408  0.1841 -0.5857 -0.0857
   20MOL   H284 6402   5.953   0.045   4.277  2.1642 -0.9292  0.9723
   20MOL   H285 6403   6.139   0.030   4.415 -0.9704 -2.1950 -0.1237
   20MOL   H286 6404   5.890   0.091   4.767 -0.7071  1.2092 -0.2477
   20MOL   H287 6405   5.679   0.062   4.623 -0.3079  0.2475 -1.5407
   20MOL   H288 6406   5.673   0.268   4.403  1.1271 -1.0757  0.0771
   20MOL   H289 6407   5.690   0.242   4.240  1.2436  0.6806  1.3204
   20MOL   C290 6408   5.480   0.240   4.302 -0.2513  0.3775 -0.0270
   20MOL   C291 6409   5.405   0.197   4.430 -0.8499  0.3213  0.5325
   20MOL   C292 6410   5.337   0.075   4.430  0.1241 -0.4919  0.5035
   20MOL   C293 6411   5.264   0.037   4.547  0.0430 -1.0240 -0.1867
   20MOL   C294 6412   5.256   0.132   4.653 -0.0590 -0.1835 -0.5015
   20MOL  Cl295 6413   5.166   0.100   4.795 -0.2178  0.4199  0.4121
   20MOL   C296 6414   5.323   0.259   4.651  0.5791 -0.2820  0.1849
   20MOL   C297 6415   5.400   0.286   4.537  0.2745  0.8355 -0.5153
   20MOL   C298 6416   5.445   0.388   4.262  0.3743  0.8608  0.9205
   20MOL   H299 6417   5.446   0.175   4.221 -0.2372 -0.6212  0.7513
   20MOL   H300 6418   5.340   0.009   4.344 -2.4249  2.5499 -2.0393
   20MOL   H301 6419   5.206   8.389   4.550  1.4202 -1.9394 -0.4452
   20MOL   H302 6420   5.311   0.339   4.721 -0.1386 -1.4128  1.3638
   20MOL   H303 6421   5.453   0.379   4.528 -2.3085  2.6576  2.2437
   20MOL   H304 6422   5.349   0.412   4.308 -1.0475  0.6962 -1.8927
   20MOL   H305 6423   5.511   0.455   4.319  1.7204  2.2799 -2.2176
   20MOL   C306 6424   5.441   0.430   4.116  0.6789  0.4356 -0.6280
   20MOL   C307 6425   5.412   0.576   4.099 -0.1475 -0.2754 -0.3759
   20MOL   C308 6426   5.516   0.673   4.098 -0.6229  0.3376 -0.5432
   20MOL   C309 6427   5.491   0.806   4.052 -0.5417  0.2515  0.0099
   20MOL   C310 6428   5.359   0.831   4.002 -0.3880 -0.4235  0.1360
   20MOL  Cl311 6429   5.325   0.992   3.942 -0.0102  0.3038 -0.0593
   20MOL   C312 6430   5.256   0.742   4.008 -0.7281 -0.5966  0.6125
   20MOL   C313 6431   5.283   0.611   4.052 -0.0485  0.0282  0.1941
   20MOL   C314 6432   5.567   0.391   4.035  0.4280  0.2148  0.0250
   20MOL   H315 6433   5.354   0.382   4.071  0.5833  1.6305 -1.7672
   20MOL   H316 6434   5.620   0.660   4.126 -0.1123  1.8911 -1.6354
   20MOL   H317 6435   5.570   0.877   4.036 -0.5485  0.4361  0.7580
   20MOL   H318 6436   5.163   0.763   3.957  0.2166 -0.5143 -1.1365
   20MOL   H319 6437   5.203   0.539   4.044 -0.0636 -0.1019  1.5246
   20MOL   H320 6438   5.569   0.434   3.935  1.8486 -0.7680 -0.3832
   20MOL   H321 6439   5.660   0.427   4.078  0.3991 -0.2226  0.4571
   20MOL   H322 6440   5.579   0.283   4.021  0.3346  0.1612  0.3460
   21MOL     C1 6441   7.497   5.791   2.817  0.3852  0.1967  0.0976
   21MOL     C2 6442   7.579   5.669   2.773 -0.2648 -0.1716 -0.5217
   21MOL     C3 6443   7.522   5.566   2.694 -0.2378 -0.7109 -0.3937
   21MOL     C4 6444   7.603   5.465   2.635 -0.8191  0.7296  0.2318
   21MOL     C5 6445   7.738   5.454   2.670 -0.4024 -0.7702  0.2651
   21MOL    Cl6 6446   7.841   5.332   2.600  0.4347 -0.0665  0.1410
   21MOL     C7 6447   7.786   5.544   2.764  0.9356 -0.2104  0.2435
   21MOL     C8 6448   7.709   5.658   2.810 -0.5346  0.5686 -0.4611
   21MOL     C9 6449   7.356   5.812   2.737 -0.0492 -0.1672  0.8702
   21MOL    H10 6450   7.566   5.874   2.806 -0.2623  0.8556  0.9210
   21MOL    H11 6451   7.416   5.563   2.674 -0.4556  0.2904  0.5569
   21MOL    H12 6452   7.549   5.397   2.572  1.6781 -0.4773 -0.6727
   21MOL    H13 6453   7.889   5.534   2.793  0.3195  0.9565  3.0076
   21MOL    H14 6454   7.760   5.735   2.866  0.5390  0.9965 -1.9861
   21MOL    H15 6455   7.373   5.812   2.629 -0.7888 -2.1340  0.7383
   21MOL    H16 6456   7.309   5.719   2.769  0.0967 -0.7977 -0.7134
   21MOL    H17 6457   7.478   5.779   2.923  0.0112 -0.6991 -0.0647
   21MOL    C18 6458   7.280   5.936   2.784 -0.7665 -0.1904  0.2414
   21MOL    C19 6459   7.356   6.069   2.764 -0.0082  0.0156  0.3377
   21MOL    C20 6460   7.379   6.151   2.872  0.4402  0.4701 -0.0503
   21MOL    C21 6461   7.439   6.277   2.841  0.3403  0.3735 -0.4963
   21MOL    C22 6462   7.466   6.318   2.707  0.6311  0.3299 -0.2658
   21MOL   Cl23 6463   7.530   6.476   2.675 -0.1563 -0.2758  0.2519
   21MOL    C24 6464   7.442   6.228   2.601 -0.4645  0.3119 -1.0305
   21MOL    C25 6465   7.383   6.105   2.627  0.7459 -0.1172 -0.2831
   21MOL    C26 6466   7.141   5.931   2.731  0.2240  0.3110  0.4965
   21MOL    H27 6467   7.270   5.931   2.892 -1.3263 -2.4113  0.1186
   21MOL    H28 6468   7.355   6.117   2.971  0.0501  2.7675  0.6710
   21MOL    H29 6469   7.463   6.335   2.930  0.7115  1.3539 -1.2216
   21MOL    H30 6470   7.469   6.250   2.499  1.6390  0.0032 -0.5611
   21MOL    H31 6471   7.353   6.052   2.538  0.0835 -0.7551  0.3040
   21MOL    H32 6472   7.093   6.025   2.705 -0.9864 -0.4323 -0.0186
   21MOL    H33 6473   7.155   5.875   2.638 -1.3137  0.0551  0.4079
   21MOL    C34 6474   7.041   5.871   2.825 -0.8534  0.9626 -0.0672
   21MOL    C35 6475   7.023   5.956   2.952  0.6491  0.4399 -0.2416
   21MOL    C36 6476   6.970   5.889   3.067 -0.6443 -0.5499  0.6447
   21MOL    C37 6477   6.934   5.961   3.179  0.0336  0.0250  0.1453
   21MOL    C38 6478   6.976   6.096   3.192  0.4359 -0.1876  0.1797
   21MOL   Cl39 6479   6.930   6.180   3.337 -0.1124 -0.0605 -0.1023
   21MOL    C40 6480   7.037   6.161   3.084 -0.4328  0.4629 -0.3458
   21MOL    C41 6481   7.061   6.095   2.965 -0.3252  0.1189 -0.3792
   21MOL    C42 6482   6.899   5.835   2.768 -0.3370 -0.2591  0.1856
   21MOL    H43 6483   7.096   5.783   2.856  1.9729  2.0405 -1.8469
   21MOL    H44 6484   6.930   5.790   3.050  1.3880 -1.4355  0.8878
   21MOL    H45 6485   6.878   5.918   3.261  0.2207  0.6529  0.6013
   21MOL    H46 6486   7.048   6.268   3.099  0.3705  0.2905  0.3537
   21MOL    H47 6487   7.088   6.152   2.877 -0.1825  0.7368  0.0576
   21MOL    H48 6488   6.840   5.800   2.853  0.7336 -0.2147  0.9574
   21MOL    H49 6489   6.849   5.922   2.725 -1.1102 -0.5926  0.4079
   21MOL    C50 6490   6.892   5.720   2.661 -0.0197 -0.2784 -0.0623
   21MOL    C51 6491   6.967   5.594   2.698 -0.0712 -0.3988 -0.2307
   21MOL    C52 6492   6.900   5.494   2.779  0.6498 -0.2931 -0.0383
   21MOL    C53 6493   6.964   5.375   2.814  0.6346 -0.2565 -0.1013
   21MOL    C54 6494   7.087   5.342   2.761  0.5793 -0.3027 -0.1678
   21MOL   Cl55 6495   7.160   5.185   2.787  0.0430  0.0370 -0.3649
   21MOL    C56 6496   7.150   5.441   2.678 -0.3969  0.4557 -0.5186
   21MOL    C57 6497   7.095   5.569   2.655  0.1155 -0.0566  0.4914
   21MOL    C58 6498   6.746   5.694   2.626  0.0632  0.8743 -0.0385
   21MOL    H59 6499   6.935   5.762   2.570 -1.1394  1.1910  0.0697
   21MOL    H60 6500   6.802   5.518   2.817 -0.1314 -2.6886 -0.4568
   21MOL    H61 6501   6.911   5.295   2.864 -0.8183 -0.1774 -1.4888
   21MOL    H62 6502   7.248   5.428   2.635  1.2350  2.6886  2.3227
   21MOL    H63 6503   7.141   5.642   2.590 -0.3627 -0.7460 -0.6437
   21MOL    H64 6504   6.698   5.651   2.714  0.1552 -0.4815 -0.6311
   21MOL    H65 6505   6.702   5.791   2.604 -0.8510  0.9892  2.1962
   21MOL    C66 6506   6.725   5.607   2.503 -0.5776 -0.0161 -0.8364
   21MOL    C67 6507   6.730   5.457   2.525  0.1774 -0.4951 -0.6572
   21MOL    C68 6508   6.620   5.386   2.579  0.8678 -0.3178 -0.3347
   21MOL    C69 6509   6.630   5.249   2.589 -0.4657  0.8427 -0.3943
   21MOL    C70 6510   6.745   5.180   2.544 -0.0282 -0.1795 -0.1947
   21MOL   Cl71 6511   6.746   5.014   2.566  0.2415 -0.3325  0.0683
   21MOL    C72 6512   6.851   5.245   2.478 -0.4630 -0.0938 -0.5638
   21MOL    C73 6513   6.842   5.385   2.476  0.0205 -0.1999  0.1226
   21MOL    C74 6514   6.594   5.649   2.424 -0.2694 -0.8250 -0.2122
   21MOL    H75 6515   6.804   5.625   2.431  0.2584  0.9864  0.2998
   21MOL    H76 6516   6.528   5.433   2.610 -0.5181 -1.1982 -3.0400
   21MOL    H77 6517   6.554   5.184   2.629 -1.1048  1.6787 -0.2374
   21MOL    H78 6518   6.942   5.196   2.445  1.4878  4.1348 -1.8432
   21MOL    H79 6519   6.918   5.446   2.429  0.2003 -0.6789 -0.2112
   21MOL    H80 6520   6.506   5.644   2.487  0.9364 -1.5206  1.4465
   21MOL    H81 6521   6.608   5.754   2.398  0.4107 -0.0548  3.0569
   21MOL    C82 6522   6.565   5.563   2.302 -0.0845 -0.2527 -0.6837
   21MOL    C83 6523   6.419   5.584   2.254 -0.7385 -0.5992 -0.5316
   21MOL    C84 6524   6.381   5.699   2.179  0.1547 -0.4182 -0.0813
   21MOL    C85 6525   6.239   5.717   2.149  0.0656 -0.0010  0.3500
   21MOL    C86 6526   6.142   5.620   2.188 -0.1987  0.0282  0.0376
   21MOL   Cl87 6527   5.978   5.643   2.140  0.1512  0.3532 -0.7555
   21MOL    C88 6528   6.177   5.510   2.268 -1.2022  0.7768  0.6999
   21MOL    C89 6529   6.314   5.493   2.296  0.2592 -0.3282 -0.6284
   21MOL    C90 6530   6.660   5.588   2.188 -0.4118  0.3502  0.3862
   21MOL    H91 6531   6.581   5.458   2.328  0.8323 -0.1384 -0.7568
   21MOL    H92 6532   6.451   5.777   2.153  0.2861 -0.6485 -0.4105
   21MOL    H93 6533   6.209   5.811   2.104  3.0213  1.8469  2.0894
   21MOL    H94 6534   6.094   5.456   2.310 -2.6549  2.1071 -0.3770
   21MOL    H95 6535   6.345   5.412   2.360  2.1272  1.1670  0.4288
   21MOL    H96 6536   6.653   5.690   2.150 -0.3354  0.2265  0.0333
   21MOL    H97 6537   6.764   5.563   2.212 -0.4226  1.8547  2.0720
   21MOL    C98 6538   6.640   5.493   2.063 -0.8592  0.0853  1.0537
   21MOL    C99 6539   6.699   5.559   1.938  0.1875  1.3104  0.5409
   21MOL   C100 6540   6.622   5.578   1.822 -0.4811  0.0981  0.2019
   21MOL   C101 6541   6.670   5.647   1.715 -0.2216 -0.3209 -0.0623
   21MOL   C102 6542   6.809   5.680   1.713  0.2513 -0.4465 -0.2945
   21MOL  Cl103 6543   6.875   5.762   1.578  0.0796 -0.0556 -0.1442
   21MOL   C104 6544   6.890   5.655   1.820 -0.4147  0.1165 -0.0632
   21MOL   C105 6545   6.836   5.593   1.935 -0.1095  0.1285  0.4017
   21MOL   C106 6546   6.699   5.347   2.087 -0.1788  0.0229 -0.4529
   21MOL   H107 6547   6.531   5.490   2.050 -0.6628 -1.1132 -0.4561
   21MOL   H108 6548   6.521   5.539   1.813 -0.0611 -0.8943 -0.3291
   21MOL   H109 6549   6.616   5.663   1.623  0.3592 -0.0017 -0.3511
   21MOL   H110 6550   6.992   5.692   1.818  0.1228 -1.2708  0.8080
   21MOL   H111 6551   6.904   5.576   2.017 -1.4178 -1.6140  1.1390
   21MOL   H112 6552   6.796   5.359   2.136 -0.6579 -0.9035  0.7529
   21MOL   H113 6553   6.640   5.309   2.171 -0.8933 -1.0455 -1.4210
   21MOL   C114 6554   6.715   5.242   1.968 -0.0666 -0.3301  0.3145
   21MOL   C115 6555   6.821   5.130   2.008  0.0374 -0.0307 -0.9049
   21MOL   C116 6556   6.835   5.084   2.138  0.0341  0.0732 -0.7098
   21MOL   C117 6557   6.927   4.987   2.169 -0.1119  0.2367  0.1526
   21MOL   C118 6558   7.008   4.933   2.069  0.0008  0.2232  0.3202
   21MOL  Cl119 6559   7.113   4.801   2.092 -0.0858 -0.2988  0.5580
   21MOL   C120 6560   6.988   4.978   1.939  0.0152  0.1744 -0.5958
   21MOL   C121 6561   6.911   5.086   1.905 -0.0403 -0.4286 -0.9436
   21MOL   C122 6562   6.577   5.194   1.915 -0.0219  0.4142  0.6849
   21MOL   H123 6563   6.766   5.303   1.894  0.0557 -0.9554 -0.1201
   21MOL   H124 6564   6.774   5.125   2.217 -0.4582 -0.5625 -0.7572
   21MOL   H125 6565   6.944   4.952   2.270 -0.5364  2.3625  0.9757
   21MOL   H126 6566   7.040   4.932   1.857  0.7017  1.7126 -1.0426
   21MOL   H127 6567   6.889   5.126   1.807  1.3008 -0.7324 -1.3735
   21MOL   H128 6568   6.492   5.257   1.943  0.1842  0.9008  0.2166
   21MOL   H129 6569   6.589   5.196   1.807  1.1694  0.2710  0.8059
   21MOL   C130 6570   6.520   5.055   1.967  0.4008  0.0613  0.1436
   21MOL   C131 6571   6.470   5.059   2.117 -0.2972  0.0322  0.6267
   21MOL   C132 6572   6.505   4.959   2.204 -0.0448 -0.0457 -1.1974
   21MOL   C133 6573   6.456   4.947   2.338  0.1060  0.2618 -0.1290
   21MOL   C134 6574   6.350   5.033   2.372  0.0208  0.2837 -0.2261
   21MOL  Cl135 6575   6.282   5.025   2.531 -0.1483  0.6407 -0.1044
   21MOL   C136 6576   6.295   5.126   2.283  0.2184  0.5507  0.9115
   21MOL   C137 6577   6.368   5.149   2.156  0.1632 -0.3652  0.4323
   21MOL   C138 6578   6.405   5.000   1.886  0.4182  0.5412 -0.1822
   21MOL   H139 6579   6.609   4.993   1.970  1.0100  0.8409 -1.5557
   21MOL   H140 6580   6.582   4.892   2.168  0.4263 -0.8846  1.2468
   21MOL   H141 6581   6.491   4.873   2.409 -0.9072 -2.6219 -2.5399
   21MOL   H142 6582   6.218   5.193   2.317 -1.2674 -0.1299 -1.0696
   21MOL   H143 6583   6.341   5.218   2.078 -0.1233 -1.3926 -0.3748
   21MOL   H144 6584   6.369   4.914   1.942  1.9697 -0.6865 -1.0236
   21MOL   H145 6585   6.331   5.080   1.886  2.2274  2.2394 -0.6709
   21MOL   C146 6586   6.440   4.954   1.743  0.9642 -0.2399  0.2783
   21MOL   C147 6587   6.533   4.830   1.731 -0.1788 -0.3554 -0.0931
   21MOL   C148 6588   6.660   4.852   1.665  0.4461 -0.3244  0.2267
   21MOL   C149 6589   6.760   4.752   1.657  0.5510 -0.3235  0.5492
   21MOL   C150 6590   6.732   4.637   1.735 -0.6641  0.0294 -0.2657
   21MOL  Cl151 6591   6.851   4.515   1.751  0.4969 -0.1199 -0.2666
   21MOL   C152 6592   6.604   4.610   1.791  0.2583  0.2911  0.0164
   21MOL   C153 6593   6.502   4.705   1.786  0.0162 -0.3929  0.7431
   21MOL   C154 6594   6.304   4.952   1.654 -0.4869  0.2893 -0.5504
   21MOL   H155 6595   6.498   5.037   1.702  0.7563  0.2501  0.9583
   21MOL   H156 6596   6.682   4.952   1.629  0.4150 -0.6014 -0.5810
   21MOL   H157 6597   6.857   4.775   1.614 -0.0857 -0.7116 -1.1208
   21MOL   H158 6598   6.584   4.514   1.836 -0.2363  0.3252 -0.1216
   21MOL   H159 6599   6.411   4.684   1.841 -0.9089  0.7323 -0.3488
   21MOL   H160 6600   6.273   5.046   1.607 -0.6329  0.5219  0.0174
   21MOL   H161 6601   6.337   4.893   1.569  0.7184 -0.6734  0.5760
   21MOL   C162 6602   6.171   4.897   1.711  0.1773  0.0569 -0.1090
   21MOL   C163 6603   6.108   4.988   1.819  0.8706  0.0209 -0.7711
   21MOL   C164 6604   6.098   4.938   1.953  0.0381  0.3651 -0.4865
   21MOL   C165 6605   6.043   5.018   2.054 -0.3364 -0.8765 -0.1331
   21MOL   C166 6606   5.985   5.143   2.018 -0.0397 -0.3612  0.6741
   21MOL  Cl167 6607   5.913   5.243   2.141 -0.0322  0.1431 -0.2911
   21MOL   C168 6608   5.980   5.193   1.887 -0.2351 -0.1109 -0.7679
   21MOL   C169 6609   6.048   5.120   1.789  0.1649  0.0218  0.1973
   21MOL   C170 6610   6.075   4.863   1.598 -0.1323 -0.2623 -0.3184
   21MOL   H171 6611   6.200   4.805   1.760 -0.3814  0.0607  0.2330
   21MOL   H172 6612   6.131   4.842   1.988 -0.4786  0.3221 -0.1067
   21MOL   H173 6613   6.039   4.982   2.156  0.3803 -0.6791 -0.0313
   21MOL   H174 6614   5.925   5.285   1.879  1.1967  0.8615  0.2281
   21MOL   H175 6615   6.042   5.158   1.688 -0.7982  2.8440  1.2784
   21MOL   H176 6616   6.042   4.961   1.561 -1.6286 -0.9612 -0.8711
   21MOL   H177 6617   6.130   4.819   1.516 -0.1645 -1.6853  0.4148
   21MOL   C178 6618   5.965   4.760   1.634  0.0762 -0.1815 -0.1045
   21MOL   C179 6619   5.849   4.822   1.706  0.2549 -0.1426 -0.0275
   21MOL   C180 6620   5.822   4.777   1.837 -0.3280  0.2792  0.3143
   21MOL   C181 6621   5.730   4.853   1.915 -1.0283 -0.0134  0.0493
   21MOL   C182 6622   5.659   4.961   1.862  0.2497 -0.4341 -0.2363
   21MOL  Cl183 6623   5.565   5.071   1.957 -0.5647 -0.3344  0.3248
   21MOL   C184 6624   5.688   5.002   1.729 -0.6186  0.8214 -0.0603
   21MOL   C185 6625   5.780   4.934   1.650 -0.7873  0.5540 -0.3199
   21MOL   C186 6626   5.917   4.681   1.505 -0.2549 -0.0616  0.4481
   21MOL   H187 6627   6.012   4.690   1.704 -1.0097 -1.0958 -0.2706
   21MOL   H188 6628   5.887   4.708   1.890 -1.2305  1.6641  3.3268
   21MOL   H189 6629   5.721   4.833   2.020 -1.6297 -3.4831 -0.5740
   21MOL   H190 6630   5.630   5.076   1.675 -0.1620  0.4453 -1.0679
   21MOL   H191 6631   5.800   4.958   1.547  2.5949 -0.6874 -0.0261
   21MOL   H192 6632   5.808   4.688   1.499 -0.1997  0.3291 -0.1212
   21MOL   H193 6633   5.948   4.732   1.414 -1.2414 -0.8199 -0.3350
   21MOL   C194 6634   5.950   4.531   1.496  0.2140 -0.1340  0.2597
   21MOL   C195 6635   6.105   4.523   1.488 -0.1936  0.3747  0.1928
   21MOL   C196 6636   6.187   4.482   1.599 -0.5190 -0.0181 -0.3817
   21MOL   C197 6637   6.328   4.489   1.589  0.9338 -0.6083 -0.6493
   21MOL   C198 6638   6.387   4.516   1.462 -1.3778  0.1718  0.3459
   21MOL  Cl199 6639   6.555   4.513   1.444 -0.2733 -0.4610 -0.0573
   21MOL   C200 6640   6.308   4.536   1.350  0.1270  0.2510  0.3576
   21MOL   C201 6641   6.170   4.548   1.362  0.1547  0.9854  0.1731
   21MOL   C202 6642   5.894   4.449   1.603 -0.0088 -0.3912  0.2566
   21MOL   H203 6643   5.901   4.496   1.406 -2.1867  0.5340  1.2603
   21MOL   H204 6644   6.139   4.463   1.694  2.2309 -4.3413  0.2620
   21MOL   H205 6645   6.380   4.469   1.682  1.0554  1.6527 -0.2079
   21MOL   H206 6646   6.362   4.542   1.256 -0.3338  1.1427  0.1451
   21MOL   H207 6647   6.115   4.562   1.271  0.6474  0.3972 -0.2168
   21MOL   H208 6648   5.943   4.352   1.601  0.7041 -0.0454  0.5577
   21MOL   H209 6649   5.919   4.495   1.699 -0.7842  1.0627 -0.2282
   21MOL   C210 6650   5.745   4.416   1.591  0.0577 -0.2695  0.3666
   21MOL   C211 6651   5.705   4.340   1.465 -0.1005 -0.0268 -0.1494
   21MOL   C212 6652   5.608   4.381   1.365 -0.3461 -0.9597 -0.5882
   21MOL   C213 6653   5.576   4.294   1.257  0.3195 -0.3573  0.1655
   21MOL   C214 6654   5.649   4.173   1.241  0.5282 -0.2708  0.7093
   21MOL  Cl215 6655   5.613   4.074   1.100  0.4749 -0.0408 -0.4282
   21MOL   C216 6656   5.741   4.131   1.336 -0.4496  0.0742  0.0483
   21MOL   C217 6657   5.772   4.214   1.445  0.2735 -0.2448  0.1079
   21MOL   C218 6658   5.685   4.341   1.709  0.6541 -0.3649  0.3639
   21MOL   H219 6659   5.691   4.509   1.573 -0.9597 -1.2850 -2.1148
   21MOL   H220 6660   5.566   4.480   1.362 -0.3300 -0.9328  0.0169
   21MOL   H221 6661   5.499   4.329   1.190 -0.9779 -0.3274  1.6463
   21MOL   H222 6662   5.784   4.032   1.329 -0.3922  0.0013  1.2975
   21MOL   H223 6663   5.847   4.180   1.514 -1.0083 -0.5698  1.3612
   21MOL   H224 6664   5.599   4.288   1.669  0.6144  0.2143 -0.3272
   21MOL   H225 6665   5.767   4.274   1.739  0.7931  0.6050  2.2773
   21MOL   C226 6666   5.646   4.423   1.840 -0.1964  0.0173 -0.0153
   21MOL   C227 6667   5.512   4.494   1.832 -1.1162  0.1276  0.0041
   21MOL   C228 6668   5.502   4.634   1.844 -0.5766 -0.2918  0.0464
   21MOL   C229 6669   5.376   4.701   1.836 -0.4482 -0.8989  0.2601
   21MOL   C230 6670   5.266   4.621   1.818  0.3021 -0.0345 -0.7713
   21MOL  Cl231 6671   5.105   4.696   1.798 -0.0645  0.2057  0.2540
   21MOL   C232 6672   5.274   4.481   1.801 -0.2526  0.5456 -0.2507
   21MOL   C233 6673   5.399   4.416   1.808 -0.4085 -0.1334 -0.6121
   21MOL   C234 6674   5.638   4.319   1.954  0.0069 -0.3551  0.0999
   21MOL   H235 6675   5.721   4.500   1.853  1.9863 -1.9223 -0.6751
   21MOL   H236 6676   5.595   4.689   1.840 -0.8816  0.1454 -1.0513
   21MOL   H237 6677   5.356   4.807   1.847  0.6098 -0.6974  0.2407
   21MOL   H238 6678   5.183   4.424   1.793 -0.8277  1.3572  0.4034
   21MOL   H239 6679   5.404   4.310   1.788  0.2053 -0.0144 -1.0973
   21MOL   H240 6680   5.568   4.239   1.928  0.0867 -0.4368  0.1362
   21MOL   H241 6681   5.738   4.276   1.959 -0.9406 -2.3287  3.9949
   21MOL   C242 6682   5.597   4.381   2.092 -0.0386  0.0176  0.3931
   21MOL   C243 6683   5.556   4.268   2.185 -0.5053  0.2761  0.5014
   21MOL   C244 6684   5.645   4.170   2.229 -0.4954 -0.2375  0.0779
   21MOL   C245 6685   5.606   4.074   2.323  0.1880  0.7068  0.7419
   21MOL   C246 6686   5.476   4.078   2.376 -0.5082 -0.0399  0.0162
   21MOL  Cl247 6687   5.423   3.970   2.501  0.6060 -0.1688 -0.1922
   21MOL   C248 6688   5.382   4.164   2.321 -1.1399 -0.1270  0.6424
   21MOL   C249 6689   5.423   4.263   2.233 -0.2787  0.3629  0.5346
   21MOL   C250 6690   5.705   4.476   2.150 -0.5750  0.1073  0.5391
   21MOL   H251 6691   5.507   4.440   2.073  0.7212  1.2462  0.5127
   21MOL   H252 6692   5.742   4.166   2.180 -0.1679 -0.5209  0.7422
   21MOL   H253 6693   5.667   3.989   2.350  1.2201  0.6825 -1.5619
   21MOL   H254 6694   5.281   4.146   2.356  0.0313 -2.2424  3.1122
   21MOL   H255 6695   5.351   4.332   2.190 -2.0097 -1.9016 -0.3388
   21MOL   H256 6696   5.785   4.415   2.193 -1.5999  0.2517  2.7483
   21MOL   H257 6697   5.755   4.547   2.084 -0.1298  0.0343  0.7974
   21MOL   C258 6698   5.651   4.560   2.265 -0.3162 -0.0703 -1.0607
   21MOL   C259 6699   5.768   4.626   2.349 -0.0480  0.4510 -0.6569
   21MOL   C260 6700   5.844   4.746   2.316  0.8405  0.2291  0.4918
   21MOL   C261 6701   5.939   4.798   2.407 -0.1927 -0.8489  0.3995
   21MOL   C262 6702   5.971   4.735   2.531  0.5570 -0.3167 -0.0139
   21MOL  Cl263 6703   6.066   4.816   2.644 -0.3571 -0.2838 -0.3192
   21MOL   C264 6704   5.906   4.615   2.557 -0.4128 -0.6012 -0.1528
   21MOL   C265 6705   5.807   4.559   2.473 -0.3164  0.1561  0.2272
   21MOL   C266 6706   5.544   4.670   2.232 -0.3048  0.5763  0.7699
   21MOL   H267 6707   5.595   4.483   2.318  1.4823 -1.7185 -1.4778
   21MOL   H268 6708   5.819   4.794   2.223  0.9524  1.5112  1.1142
   21MOL   H269 6709   5.965   4.901   2.387 -2.2787 -0.2958  0.4010
   21MOL   H270 6710   5.925   4.566   2.651  0.0158  0.8771  0.5343
   21MOL   H271 6711   5.768   4.463   2.505  0.6559 -0.2456  0.2323
   21MOL   H272 6712   5.615   4.742   2.190  0.9023 -2.6116 -2.9644
   21MOL   H273 6713   5.474   4.658   2.149  0.7633  1.8033 -0.3342
   21MOL   C274 6714   5.466   4.724   2.347  0.1857  0.1132 -0.1508
   21MOL   C275 6715   5.400   4.853   2.308  0.3939  0.0395 -0.5007
   21MOL   C276 6716   5.293   4.848   2.224 -0.4412  0.4357 -0.3824
   21MOL   C277 6717   5.218   4.965   2.185 -0.3714  0.4094 -0.0366
   21MOL   C278 6718   5.254   5.090   2.237  0.0223  0.0758  0.4821
   21MOL  Cl279 6719   5.169   5.240   2.206 -0.2499  0.0648 -0.0586
   21MOL   C280 6720   5.364   5.089   2.318  0.3027  0.3462  0.1743
   21MOL   C281 6721   5.441   4.979   2.357 -0.1692  0.1227  0.3267
   21MOL   C282 6722   5.361   4.625   2.402 -0.5358  0.7615  0.1284
   21MOL   H283 6723   5.538   4.741   2.428 -1.5064  0.2486  1.3642
   21MOL   H284 6724   5.261   4.756   2.176  2.0265 -0.0367 -1.2016
   21MOL   H285 6725   5.144   4.954   2.107  0.9231 -0.5041 -1.1678
   21MOL   H286 6726   5.400   5.179   2.366 -0.4246  0.2019  1.0079
   21MOL   H287 6727   5.521   4.984   2.430  0.8135 -1.3559 -0.6233
   21MOL   H288 6728   5.273   4.685   2.425  1.2737  3.6732 -0.2298
   21MOL   H289 6729   5.321   4.553   2.331 -0.4230  0.4957  0.3348
   21MOL   C290 6730   5.398   4.542   2.527 -0.3474 -0.1972 -0.1017
   21MOL   C291 6731   5.462   4.629   2.639 -0.1433  0.7397  0.1788
   21MOL   C292 6732   5.395   4.747   2.675  0.1811 -0.6460 -0.2039
   21MOL   C293 6733   5.456   4.830   2.776 -0.3920  0.0192 -0.1852
   21MOL   C294 6734   5.587   4.796   2.824  0.2386 -0.2809  0.0650
   21MOL  Cl295 6735   5.660   4.892   2.947  0.0594  0.2803 -0.0183
   21MOL   C296 6736   5.648   4.674   2.792  0.5600  0.0175  0.5471
   21MOL   C297 6737   5.582   4.591   2.704 -0.8727 -0.2766 -0.1626
   21MOL   C298 6738   5.265   4.478   2.582  0.1744 -0.5661 -0.1888
   21MOL   H299 6739   5.470   4.465   2.499 -1.1606 -1.5358  1.4397
   21MOL   H300 6740   5.299   4.779   2.635 -0.8522 -0.8910  2.0072
   21MOL   H301 6741   5.404   4.917   2.813 -0.9245 -0.3973  0.0523
   21MOL   H302 6742   5.744   4.656   2.838  0.5909  0.8375  0.8282
   21MOL   H303 6743   5.631   4.499   2.676 -0.6739 -0.0924 -0.4219
   21MOL   H304 6744   5.187   4.551   2.601  0.6153 -0.6105  1.9120
   21MOL   H305 6745   5.232   4.418   2.497 -1.2572 -2.2689  1.5162
   21MOL   C306 6746   5.265   4.404   2.718  0.0982  0.0506 -0.2566
   21MOL   C307 6747   5.130   4.328   2.726 -0.0633  0.4771 -0.2215
   21MOL   C308 6748   5.087   4.229   2.631 -0.3368 -0.3361  0.3853
   21MOL   C309 6749   4.967   4.164   2.651  0.5678  0.7621 -0.3342
   21MOL   C310 6750   4.881   4.186   2.758  0.3948  0.1530 -0.1110
   21MOL  Cl311 6751   4.731   4.120   2.777  0.0200  0.0501  0.1682
   21MOL   C312 6752   4.919   4.286   2.851  0.7731 -0.2866  0.0642
   21MOL   C313 6753   5.040   4.355   2.834  0.3714  0.2315 -0.1268
   21MOL   C314 6754   5.387   4.310   2.753  0.2476 -0.0721  0.1418
   21MOL   H315 6755   5.283   4.481   2.792  2.2464 -1.1850  0.5473
   21MOL   H316 6756   5.163   4.191   2.564  1.4950  0.1328  2.1250
   21MOL   H317 6757   4.934   4.092   2.577 -0.3508  0.6153  0.2014
   21MOL   H318 6758   4.848   4.306   2.930 -1.4168 -1.8560 -1.4495
   21MOL   H319 6759   5.075   4.412   2.918 -0.1502  0.9332 -0.3836
   21MOL   H320 6760   5.480   4.365   2.762  0.2223  0.0883 -0.5292
   21MOL   H321 6761   5.372   4.252   2.844 -0.1826  0.3257  0.3280
   21MOL   H322 6762   5.408   4.236   2.675 -0.1030 -0.2620  0.2253
   22MOL     C1 6763   2.315   0.371   1.321  0.1063 -0.3944  0.2949
   22MOL     C2 6764   2.388   0.503   1.305  0.4266  0.0424  0.3750
   22MOL     C3 6765   2.440   0.542   1.178  0.0603  0.1558  0.3720
   22MOL     C4 6766   2.508   0.664   1.161 -0.2168 -0.3171  0.1797
   22MOL     C5 6767   2.524   0.750   1.269 -0.0279  0.8013 -0.3581
   22MOL    Cl6 6768   2.573   0.913   1.242  0.0843 -0.1111  0.1609
   22MOL     C7 6769   2.479   0.712   1.396 -0.5983  0.2586 -0.2704
   22MOL     C8 6770   2.415   0.585   1.416 -0.6340  0.2989 -0.0846
   22MOL     C9 6771   2.224   0.339   1.201  1.4873  0.6878 -0.2946
   22MOL    H10 6772   2.249   0.372   1.407  0.5232  0.7165  0.6077
   22MOL    H11 6773   2.419   0.485   1.089 -3.5520  0.1868  1.1304
   22MOL    H12 6774   2.547   0.683   1.062  1.3060 -0.0926  0.8181
   22MOL    H13 6775   2.506   0.776   1.479  0.7086 -0.5193 -0.0811
   22MOL    H14 6776   2.389   0.563   1.518  3.0548  0.3332  0.9377
   22MOL    H15 6777   2.169   0.422   1.157 -1.2772 -1.8161 -1.7178
   22MOL    H16 6778   2.296   0.315   1.123 -1.0355 -1.4078 -2.0543
   22MOL    H17 6779   2.383   0.289   1.341  1.0020 -0.0040 -1.0440
   22MOL    C18 6780   2.122   0.222   1.230  0.1269 -0.5270 -0.6445
   22MOL    C19 6781   2.028   0.254   1.347 -0.5811  0.1390  0.4368
   22MOL    C20 6782   2.044   0.209   1.481  0.5277 -0.3192 -0.0476
   22MOL    C21 6783   1.943   0.250   1.573  0.7878 -0.4263 -0.0915
   22MOL    C22 6784   1.845   0.346   1.542 -0.1720 -0.0736  0.1857
   22MOL   Cl23 6785   1.731   0.405   1.660  0.4328 -0.4684 -0.2112
   22MOL    C24 6786   1.842   0.403   1.413  0.2166 -0.1430  0.4803
   22MOL    C25 6787   1.928   0.354   1.316  0.3516  0.0712  0.3655
   22MOL    C26 6788   2.050   0.182   1.095 -0.1374 -1.1941 -0.1194
   22MOL    H27 6789   2.176   0.135   1.268 -3.0281 -1.9164  0.7984
   22MOL    H28 6790   2.120   0.137   1.509 -0.1895 -1.8386 -1.9236
   22MOL    H29 6791   1.941   0.208   1.673 -2.3160 -1.8417 -0.6781
   22MOL    H30 6792   1.758   0.466   1.391 -0.6531 -1.8054 -1.0906
   22MOL    H31 6793   1.912   0.393   1.217 -0.0129  0.6469  0.6537
   22MOL    H32 6794   1.996   0.273   1.070  1.4671 -0.1311  0.2105
   22MOL    H33 6795   2.117   0.174   1.009  2.5598  0.5651  1.7501
   22MOL    C34 6796   1.952   0.060   1.102 -0.3029 -0.2099 -0.2403
   22MOL    C35 6797   1.830   0.089   1.022 -0.5143  0.3441  0.4103
   22MOL    C36 6798   1.815   0.046   0.889 -0.2754  0.0364 -0.7916
   22MOL    C37 6799   1.707   0.070   0.808 -0.4549  0.6826 -0.4286
   22MOL    C38 6800   1.598   0.138   0.868 -0.9742 -0.2346 -0.1414
   22MOL   Cl39 6801   1.454   0.154   0.773 -0.0923  0.1521 -0.4005
   22MOL    C40 6802   1.610   0.189   1.000  0.5705 -0.3742 -0.3514
   22MOL    C41 6803   1.729   0.167   1.074 -0.1080  0.4705  0.2542
   22MOL    C42 6804   2.019   8.367   1.072  0.1790  0.2811  0.2690
   22MOL    H43 6805   1.920   0.053   1.206  2.3149 -3.1519  0.4659
   22MOL    H44 6806   1.892   8.433   0.837 -0.1679 -2.3997  1.8440
   22MOL    H45 6807   1.704   0.042   0.704 -2.5080 -1.7725  0.2247
   22MOL    H46 6808   1.530   0.238   1.055  0.3373 -0.1879 -0.8577
   22MOL    H47 6809   1.742   0.218   1.168 -0.1150  0.2773  0.3595
   22MOL    H48 6810   1.945   8.287   1.069 -0.4396  0.8849 -1.3103
   22MOL    H49 6811   2.071   8.376   0.976  1.1619  2.7820  1.0022
   22MOL    C50 6812   2.131   8.318   1.173 -0.2350 -0.0191 -0.1425
   22MOL    C51 6813   2.123   8.172   1.214 -0.3722 -0.2500 -0.0314
   22MOL    C52 6814   2.141   8.074   1.119 -0.0656  0.9521  0.4917
   22MOL    C53 6815   2.140   7.932   1.144  0.0121 -0.0610  0.0714
   22MOL    C54 6816   2.110   7.892   1.274 -0.4657  0.5846  0.3154
   22MOL   Cl55 6817   2.087   7.725   1.305 -0.6625  0.3432  0.1123
   22MOL    C56 6818   2.093   7.989   1.370 -0.1483  0.4186  0.5348
   22MOL    C57 6819   2.102   8.124   1.346  0.2772 -0.2004  0.7557
   22MOL    C58 6820   2.268   8.350   1.103  0.6439  0.5806 -0.1223
   22MOL    H59 6821   2.104   8.356   1.272 -1.3031 -0.8097 -0.1272
   22MOL    H60 6822   2.166   8.110   1.021 -0.1802  0.0701  0.1342
   22MOL    H61 6823   2.143   7.858   1.065  1.3982  0.7226 -0.6292
   22MOL    H62 6824   2.069   7.969   1.474 -2.0483  2.7482  0.5953
   22MOL    H63 6825   2.083   8.190   1.430 -1.7886 -0.0881  0.2398
   22MOL    H64 6826   2.279   8.295   1.010 -1.8101  0.5146 -0.4245
   22MOL    H65 6827   2.274   0.012   1.074  2.0929  0.7443  0.7398
   22MOL    C66 6828   2.392   8.332   1.191 -0.0831 -0.0388 -0.8630
   22MOL    C67 6829   2.508   8.368   1.101  0.7009 -0.7046  0.2475
   22MOL    C68 6830   2.604   8.275   1.060 -0.4013 -0.1733 -0.1692
   22MOL    C69 6831   2.705   8.311   0.969  0.0264 -1.1654  0.3827
   22MOL    C70 6832   2.720   8.441   0.926  0.7611  0.3158 -0.3677
   22MOL   Cl71 6833   2.847   0.037   0.816  0.1018  0.1821 -0.0143
   22MOL    C72 6834   2.623   0.092   0.956  0.3224  1.0584 -0.0354
   22MOL    C73 6835   2.518   0.060   1.054 -0.7120  0.5286  0.6218
   22MOL    C74 6836   2.393   8.410   1.328 -0.5180 -0.4216  0.2489
   22MOL    H75 6837   2.395   8.226   1.215 -1.4258 -0.5663 -2.8802
   22MOL    H76 6838   2.592   8.178   1.107 -2.2860  0.3898  0.5478
   22MOL    H77 6839   2.767   8.230   0.932  0.4049 -1.8465  2.4174
   22MOL    H78 6840   2.621   0.190   0.910  0.2328 -0.4838 -3.5055
   22MOL    H79 6841   2.453   0.138   1.091  1.1586  2.8512 -0.9347
   22MOL    H80 6842   2.383   0.071   1.294  0.5035 -1.0961 -2.2354
   22MOL    H81 6843   2.305   8.386   1.387 -0.3115  0.1245  0.7852
   22MOL    C82 6844   2.518   8.406   1.411  0.1084  0.1339 -0.5959
   22MOL    C83 6845   2.539   0.099   1.484  0.3856 -0.5454  0.4858
   22MOL    C84 6846   2.450   0.144   1.586 -0.4563  0.0823 -0.6235
   22MOL    C85 6847   2.458   0.272   1.646 -0.0880  0.8797  0.3166
   22MOL    C86 6848   2.568   0.347   1.611  0.0157 -0.6811  0.7715
   22MOL   Cl87 6849   2.595   0.498   1.693 -0.0859 -0.0724 -0.5092
   22MOL    C88 6850   2.653   0.315   1.503  0.3244 -0.4910  0.1605
   22MOL    C89 6851   2.638   0.189   1.437 -0.7374 -0.8492  0.5203
   22MOL    C90 6852   2.522   8.278   1.487 -0.2514 -0.4418 -0.2727
   22MOL    H91 6853   2.599   8.393   1.339 -0.2017  0.2297 -0.9613
   22MOL    H92 6854   2.374   0.074   1.617  0.5759  0.4002  2.8163
   22MOL    H93 6855   2.396   0.290   1.733  0.7890 -2.0565  1.6122
   22MOL    H94 6856   2.722   0.386   1.461  0.7615 -1.6058 -1.0345
   22MOL    H95 6857   2.687   0.175   1.343 -1.0610 -1.6151  0.4548
   22MOL    H96 6858   2.439   8.258   1.554 -0.4748 -0.7855 -0.6484
   22MOL    H97 6859   2.522   8.204   1.407  1.8001  0.1358 -0.8261
   22MOL    C98 6860   2.662   8.254   1.566  0.0932  0.1691 -0.2701
   22MOL    C99 6861   2.672   8.333   1.696  0.0812  0.5385  0.6351
   22MOL   C100 6862   2.564   8.326   1.781 -0.2124 -0.0569  0.5848
   22MOL   C101 6863   2.554   8.414   1.891 -0.3728  0.1891 -0.7460
   22MOL   C102 6864   2.660   0.061   1.916 -0.2191  0.1083  0.0809
   22MOL  Cl103 6865   2.647   0.186   2.039 -0.0774 -0.0414  0.0743
   22MOL   C104 6866   2.766   0.073   1.825  0.1033 -0.8695 -0.0621
   22MOL   C105 6867   2.779   8.427   1.717  0.2237  0.4874 -0.4790
   22MOL   C106 6868   2.687   8.105   1.599  0.4379 -0.3592  0.1169
   22MOL   H107 6869   2.737   8.286   1.493 -0.1095 -0.3853 -0.7276
   22MOL   H108 6870   2.499   8.241   1.772  0.0720 -0.2070 -0.0596
   22MOL   H109 6871   2.468   8.424   1.955 -0.7439  2.7264 -1.5829
   22MOL   H110 6872   2.835   0.152   1.852 -1.6477  0.5447  0.3746
   22MOL   H111 6873   2.864   8.424   1.650 -1.7410  1.0582 -3.0334
   22MOL   H112 6874   2.756   8.104   1.684  0.7512 -1.7958 -0.1286
   22MOL   H113 6875   2.599   8.055   1.640  0.0892  0.3268  0.2100
   22MOL   C114 6876   2.743   8.008   1.489  0.2767 -0.8256 -0.4275
   22MOL   C115 6877   2.859   8.058   1.399  0.5209  0.4895  0.2508
   22MOL   C116 6878   2.985   8.086   1.455  0.1204 -0.3118  0.4534
   22MOL   C117 6879   3.096   8.109   1.369 -0.6232  0.3204 -0.0827
   22MOL   C118 6880   3.071   8.120   1.237 -0.8986 -0.2629  0.0351
   22MOL  Cl119 6881   3.205   8.149   1.135 -0.1619  0.1344 -0.1674
   22MOL   C120 6882   2.945   8.104   1.176 -0.4516  0.1290 -0.7529
   22MOL   C121 6883   2.842   8.073   1.261 -0.0948 -0.1045 -0.0117
   22MOL   C122 6884   2.781   7.872   1.555  0.1760 -0.0078  0.5961
   22MOL   H123 6885   2.662   7.994   1.418 -2.0292 -1.0843  2.1349
   22MOL   H124 6886   2.992   8.092   1.563 -1.3713 -0.1240  0.5409
   22MOL   H125 6887   3.194   8.135   1.407  0.4751 -3.0824 -0.3893
   22MOL   H126 6888   2.937   8.125   1.070  2.3079  1.2735 -0.7638
   22MOL   H127 6889   2.748   8.063   1.209  0.6588 -0.6250 -1.2846
   22MOL   H128 6890   2.875   7.890   1.606  0.1531  0.0356  0.6226
   22MOL   H129 6891   2.708   7.837   1.628 -0.5708  1.0840  0.3849
   22MOL   C130 6892   2.796   7.750   1.464  0.3034 -0.4697 -0.3618
   22MOL   C131 6893   2.915   7.753   1.365 -0.0635  0.1758 -0.1810
   22MOL   C132 6894   2.898   7.724   1.231 -0.2706 -0.2817 -0.0400
   22MOL   C133 6895   3.008   7.718   1.150 -0.2452 -0.1311  0.3282
   22MOL   C134 6896   3.138   7.746   1.192  0.8116  0.6044  0.1859
   22MOL  Cl135 6897   3.270   7.747   1.086  0.2378  0.3131 -0.3271
   22MOL   C136 6898   3.155   7.776   1.331 -0.7160  0.2909  0.4000
   22MOL   C137 6899   3.045   7.780   1.416  0.1756  0.0551 -0.3495
   22MOL   C138 6900   2.797   7.617   1.545 -0.1054  0.2344 -0.0840
   22MOL   H139 6901   2.698   7.745   1.415  0.1082  0.9630 -0.1183
   22MOL   H140 6902   2.798   7.710   1.192  0.3251  2.0950 -2.5753
   22MOL   H141 6903   3.000   7.681   1.049  0.9389 -1.8386  0.8495
   22MOL   H142 6904   3.254   7.772   1.375 -0.5530 -1.2692 -0.0699
   22MOL   H143 6905   3.054   7.808   1.520 -1.8235  1.7081 -0.5916
   22MOL   H144 6906   2.898   7.607   1.586  0.3956  1.1632 -1.0431
   22MOL   H145 6907   2.736   7.611   1.635  0.7435 -0.4392  0.4619
   22MOL   C146 6908   2.777   7.489   1.456 -0.5161  0.6268 -0.6281
   22MOL   C147 6909   2.864   7.371   1.498 -0.1331 -0.7062 -0.5772
   22MOL   C148 6910   2.883   7.346   1.633  0.4384  0.2305 -0.3672
   22MOL   C149 6911   2.966   7.237   1.677 -0.8803 -0.0054  0.0228
   22MOL   C150 6912   3.021   7.154   1.574  0.0732  0.2904 -0.2056
   22MOL  Cl151 6913   3.136   7.032   1.606  0.5103 -0.5880 -0.3282
   22MOL   C152 6914   2.999   7.177   1.440  0.2291 -0.1329 -0.1530
   22MOL   C153 6915   2.918   7.288   1.403 -0.6475  0.3459  0.6141
   22MOL   C154 6916   2.640   7.447   1.415  0.8216 -0.3888  0.0406
   22MOL   H155 6917   2.829   7.514   1.364 -0.6461  0.3691 -0.7713
   22MOL   H156 6918   2.836   7.412   1.703  0.2027  0.5107 -0.7890
   22MOL   H157 6919   2.979   7.216   1.782  1.8425  1.1501 -0.0429
   22MOL   H158 6920   3.038   7.114   1.361 -1.9709 -0.5456 -0.9361
   22MOL   H159 6921   2.909   7.304   1.297  0.9831  0.6199  0.4988
   22MOL   H160 6922   2.607   7.505   1.329 -2.1064  0.1485  1.4361
   22MOL   H161 6923   2.657   7.346   1.377 -0.2485 -0.7247  0.4288
   22MOL   C162 6924   2.537   7.451   1.539 -0.7262 -0.2427  0.0854
   22MOL   C163 6925   2.483   7.594   1.564 -0.3109  0.2826 -0.2483
   22MOL   C164 6926   2.455   7.678   1.454 -0.1559 -0.0400  0.4718
   22MOL   C165 6927   2.413   7.810   1.475 -0.4310 -0.4887  0.2322
   22MOL   C166 6928   2.392   7.859   1.603 -0.4486  0.1746  0.6256
   22MOL  Cl167 6929   2.334   8.020   1.621  0.3113 -0.2656  0.2129
   22MOL   C168 6930   2.415   7.781   1.713  0.1226 -0.0492  0.1521
   22MOL   C169 6931   2.460   7.647   1.697 -0.2434  0.1257  0.0479
   22MOL   C170 6932   2.407   7.378   1.492  0.2620 -0.8785  0.8248
   22MOL   H171 6933   2.591   7.405   1.622 -0.0224 -1.0383 -0.8064
   22MOL   H172 6934   2.465   7.650   1.350  0.1217  1.2430  0.1465
   22MOL   H173 6935   2.392   7.873   1.390 -0.5260 -0.8362 -0.0022
   22MOL   H174 6936   2.387   7.815   1.811 -0.3652  0.6243 -0.2229
   22MOL   H175 6937   2.468   7.590   1.788 -0.9238  0.4590  0.3124
   22MOL   H176 6938   2.333   7.393   1.571 -0.3109  2.8039 -0.2835
   22MOL   H177 6939   2.358   7.423   1.405 -2.2326  0.2356  2.7402
   22MOL   C178 6940   2.426   7.225   1.452 -0.2853  0.3583  0.2807
   22MOL   C179 6941   2.530   7.146   1.527  0.0852 -0.4062  0.5196
   22MOL   C180 6942   2.543   7.149   1.665 -0.5149 -0.2373  0.1554
   22MOL   C181 6943   2.642   7.082   1.728 -0.3385 -0.2999 -0.2699
   22MOL   C182 6944   2.737   6.995   1.660  0.4672 -0.0603  0.6852
   22MOL  Cl183 6945   2.865   6.916   1.748 -0.1176  0.0691 -0.0756
   22MOL   C184 6946   2.731   6.991   1.516  0.2658  0.5089 -0.4436
   22MOL   C185 6947   2.622   7.056   1.455  0.2640 -1.3306  0.8490
   22MOL   C186 6948   2.293   7.150   1.456  0.2683 -0.0943  0.3162
   22MOL   H187 6949   2.466   7.223   1.351 -1.8753 -0.2306 -0.3527
   22MOL   H188 6950   2.479   7.211   1.728 -1.1855  0.1145 -0.8596
   22MOL   H189 6951   2.646   7.086   1.836  0.7527 -1.8846 -0.2354
   22MOL   H190 6952   2.797   6.922   1.465  2.4761  1.0429  1.5717
   22MOL   H191 6953   2.618   7.038   1.349  0.4437  3.2528 -0.0327
   22MOL   H192 6954   2.314   7.046   1.435 -0.2853  0.1522 -1.5611
   22MOL   H193 6955   2.261   7.141   1.560 -1.6471 -0.9802 -0.3294
   22MOL   C194 6956   2.178   7.208   1.369 -0.0746  0.3442 -0.2300
   22MOL   C195 6957   2.213   7.215   1.223  0.0780  0.0865 -0.4269
   22MOL   C196 6958   2.206   7.334   1.150  0.0378  0.1337  0.3898
   22MOL   C197 6959   2.247   7.340   1.016 -0.4765 -0.0298  0.2095
   22MOL   C198 6960   2.306   7.228   0.953 -0.1046  0.3215  0.1883
   22MOL  Cl199 6961   2.349   7.218   0.787 -0.0261  0.2038 -0.3074
   22MOL   C200 6962   2.307   7.108   1.027  0.0736 -0.5835 -0.5604
   22MOL   C201 6963   2.256   7.100   1.162 -0.0860 -0.4837  0.0655
   22MOL   C202 6964   2.042   7.131   1.399 -0.3332  0.0520  0.1885
   22MOL   H203 6965   2.160   7.312   1.395 -1.2919  0.5295 -1.7459
   22MOL   H204 6966   2.178   7.429   1.194  0.0897 -0.0034  0.7180
   22MOL   H205 6967   2.239   7.435   0.964 -0.2575 -0.9464 -1.5448
   22MOL   H206 6968   2.357   7.019   0.991  1.3495 -1.6840  3.6060
   22MOL   H207 6969   2.256   7.012   1.225  0.9425  0.5356  1.4980
   22MOL   H208 6970   1.975   7.153   1.316 -2.5378 -0.2106  1.8760
   22MOL   H209 6971   2.059   7.024   1.390 -1.1190  0.0282 -1.1852
   22MOL   C210 6972   1.964   7.188   1.531 -0.4167 -0.3481 -0.2332
   22MOL   C211 6973   1.924   7.336   1.537 -0.1091  0.2057  0.3757
   22MOL   C212 6974   1.794   7.381   1.494  0.0524 -1.0120  1.0224
   22MOL   C213 6975   1.756   7.518   1.501 -0.0544  0.5014  0.5247
   22MOL   C214 6976   1.843   7.614   1.561  0.1875 -0.6398  0.8681
   22MOL  Cl215 6977   1.796   7.774   1.593 -0.4279  0.1039  0.0743
   22MOL   C216 6978   1.968   7.567   1.616 -0.5807  0.2007  0.6655
   22MOL   C217 6979   2.004   7.426   1.605  0.5970 -0.2586 -0.3622
   22MOL   C218 6980   1.853   7.088   1.570 -0.9552  1.0123 -1.1200
   22MOL   H219 6981   2.036   7.182   1.612 -0.1335  2.4322 -0.2130
   22MOL   H220 6982   1.741   7.303   1.441 -0.3610 -0.5720  0.7929
   22MOL   H221 6983   1.664   7.552   1.456 -1.6000 -1.4180  2.1038
   22MOL   H222 6984   2.037   7.636   1.661 -0.2433 -0.1825  0.7440
   22MOL   H223 6985   2.096   7.393   1.651  0.3779 -0.5982 -0.1662
   22MOL   H224 6986   1.802   7.140   1.651  2.0701  2.4814 -0.0714
   22MOL   H225 6987   1.777   7.070   1.494 -2.5707  1.5677  0.3267
   22MOL   C226 6988   1.897   6.940   1.608  0.0444 -0.8782  0.1770
   22MOL   C227 6989   2.021   6.942   1.695 -0.0097  0.6637  0.4037
   22MOL   C228 6990   2.141   6.878   1.659  0.1398  0.5582  0.2977
   22MOL   C229 6991   2.257   6.879   1.737  0.3553 -0.5354  0.1439
   22MOL   C230 6992   2.253   6.947   1.860 -0.1354  0.4532  0.2609
   22MOL  Cl231 6993   2.395   6.940   1.961 -0.0712 -0.3310 -0.4816
   22MOL   C232 6994   2.135   7.004   1.910 -0.9622  0.2463  0.5339
   22MOL   C233 6995   2.028   7.013   1.815 -0.5235  0.4634  0.1466
   22MOL   C234 6996   1.786   6.855   1.683 -0.5474 -0.4591 -0.0170
   22MOL   H235 6997   1.929   6.892   1.516  1.5203 -0.9133  0.7011
   22MOL   H236 6998   2.147   6.817   1.570  4.2872 -0.7006  1.3200
   22MOL   H237 6999   2.347   6.834   1.698  0.3164  1.0102 -1.7646
   22MOL   H238 7000   2.125   7.042   2.010  0.7670 -0.2964  0.9413
   22MOL   H239 7001   1.943   7.068   1.851 -0.9175  0.5429 -0.9205
   22MOL   H240 7002   1.831   6.761   1.714  0.2497  0.7421  2.5942
   22MOL   H241 7003   1.756   6.903   1.776  2.3767 -0.3545  0.9256
   22MOL   C242 7004   1.669   6.823   1.590 -0.0307  0.0816  0.2051
   22MOL   C243 7005   1.690   6.720   1.479 -0.5311 -0.4123 -0.2202
   22MOL   C244 7006   1.702   6.578   1.506  0.9731 -0.6970 -0.2886
   22MOL   C245 7007   1.717   6.487   1.399  0.4094 -0.5628  0.6147
   22MOL   C246 7008   1.718   6.536   1.264  0.1953  0.0773  0.7188
   22MOL  Cl247 7009   1.732   6.425   1.128  0.2141  0.2248  0.0173
   22MOL   C248 7010   1.728   6.675   1.240  0.5790  0.1782 -0.7588
   22MOL   C249 7011   1.713   6.768   1.349  0.4248  0.4285 -0.0748
   22MOL   C250 7012   1.548   6.772   1.673  0.0160  0.1142 -0.5687
   22MOL   H251 7013   1.638   6.915   1.541 -1.3624  0.1813  1.2250
   22MOL   H252 7014   1.688   6.547   1.609 -0.7978 -0.7822 -0.5311
   22MOL   H253 7015   1.721   6.382   1.423  0.7665 -0.8598 -0.6781
   22MOL   H254 7016   1.740   6.715   1.140  0.9609  3.9704  0.7287
   22MOL   H255 7017   1.710   6.875   1.334 -0.4647  0.3939 -0.1515
   22MOL   H256 7018   1.477   6.729   1.603  0.5631 -1.2107 -0.3129
   22MOL   H257 7019   1.570   6.685   1.734 -0.9605  0.3747  0.1622
   22MOL   C258 7020   1.472   6.882   1.751  0.1255  0.2638  0.2569
   22MOL   C259 7021   1.421   6.992   1.656 -0.1570 -0.2792  0.4405
   22MOL   C260 7022   1.434   7.122   1.698  0.8337  0.1484 -0.3986
   22MOL   C261 7023   1.400   7.228   1.612 -0.7085  0.6683  0.0403
   22MOL   C262 7024   1.341   7.196   1.486  0.3412 -0.2845  0.3330
   22MOL  Cl263 7025   1.280   7.332   1.400 -0.1138 -0.2767 -0.3956
   22MOL   C264 7026   1.329   7.065   1.439 -0.5523 -0.7958 -0.1458
   22MOL   C265 7027   1.365   6.964   1.526  0.5791 -0.3142  0.0633
   22MOL   C266 7028   1.350   6.826   1.828  0.3028 -0.1567 -0.1371
   22MOL   H267 7029   1.528   6.935   1.828  1.3942  0.0716 -0.5092
   22MOL   H268 7030   1.461   7.148   1.799 -1.4146  0.9730  0.0124
   22MOL   H269 7031   1.410   7.329   1.647  1.4107 -0.1973  2.0565
   22MOL   H270 7032   1.293   7.037   1.341  0.4723 -0.8759 -0.5131
   22MOL   H271 7033   1.360   6.862   1.492  0.6072 -0.4785  0.5398
   22MOL   H272 7034   1.288   6.908   1.863  0.5921  0.3034 -0.7056
   22MOL   H273 7035   1.281   6.778   1.758  0.9762 -2.5019  0.7724
   22MOL   C274 7036   1.381   6.724   1.931 -0.8757  0.6451 -1.1365
   22MOL   C275 7037   1.468   6.799   2.029  0.1352 -0.3140  0.3458
   22MOL   C276 7038   1.608   6.774   2.038 -0.1390  0.4331 -0.0947
   22MOL   C277 7039   1.680   6.836   2.146 -0.8049  0.0179 -0.1926
   22MOL   C278 7040   1.622   6.932   2.227 -0.6226  0.1572 -0.5759
   22MOL  Cl279 7041   1.720   7.024   2.339  0.3526  0.0994 -0.3850
   22MOL   C280 7042   1.491   6.975   2.202 -0.3194 -0.1903 -0.9402
   22MOL   C281 7043   1.414   6.911   2.102  0.6140 -0.1259  0.3211
   22MOL   C282 7044   1.264   6.670   2.013 -0.1141 -0.3773 -0.0917
   22MOL   H283 7045   1.431   6.635   1.891 -0.3077 -0.2580  1.5134
   22MOL   H284 7046   1.662   6.705   1.976 -1.7093 -0.4764 -0.4868
   22MOL   H285 7047   1.784   6.813   2.162 -1.0630 -0.9529  0.1431
   22MOL   H286 7048   1.439   7.042   2.268 -1.4056 -2.1965  0.2919
   22MOL   H287 7049   1.309   6.934   2.086  0.1029 -0.3755  2.9971
   22MOL   H288 7050   1.306   6.609   2.092 -0.6368  1.3217  1.5330
   22MOL   H289 7051   1.207   6.747   2.064  0.0918 -1.4159  1.7395
   22MOL   C290 7052   1.154   6.593   1.944  0.2159  0.1058  0.0562
   22MOL   C291 7053   1.202   6.468   1.864  0.2813 -0.1532  0.3399
   22MOL   C292 7054   1.292   6.379   1.925  0.0420  0.6050 -0.1735
   22MOL   C293 7055   1.346   6.273   1.846 -0.6585 -0.2114  0.0984
   22MOL   C294 7056   1.305   6.256   1.712 -0.3969 -0.4281  0.8111
   22MOL  Cl295 7057   1.362   6.111   1.634  0.1696 -0.0238 -0.0081
   22MOL   C296 7058   1.219   6.347   1.647  0.1429 -0.4584 -0.3996
   22MOL   C297 7059   1.167   6.452   1.724 -0.3212 -0.0355  0.0641
   22MOL   C298 7060   1.046   6.561   2.048 -0.2035  0.5903 -0.2488
   22MOL   H299 7061   1.105   6.646   1.862 -1.3000  1.3059  1.6973
   22MOL   H300 7062   1.306   6.383   2.032  2.8112  0.0272 -0.4649
   22MOL   H301 7063   1.415   6.204   1.893 -1.0800  0.7075  2.1370
   22MOL   H302 7064   1.183   6.336   1.546 -0.4542 -0.1932 -0.2132
   22MOL   H303 7065   1.091   6.518   1.684  1.7162  2.0913 -0.4217
   22MOL   H304 7066   0.983   6.490   1.994 -1.3887 -0.7678  2.7653
   22MOL   H305 7067   1.085   6.502   2.131 -2.4576 -0.0606  0.3949
   22MOL   C306 7068   0.962   6.675   2.105  0.3425 -0.2496 -0.3051
   22MOL   C307 7069   0.904   6.767   2.001 -0.0879  0.6535 -0.2354
   22MOL   C308 7070   0.795   6.717   1.924  1.0012  0.1448  1.0819
   22MOL   C309 7071   0.747   6.802   1.818 -0.6881 -0.3189 -0.7670
   22MOL   C310 7072   0.799   6.932   1.798  0.2154 -0.6371 -0.6949
   22MOL  Cl311 7073   0.724   7.037   1.687 -0.0101  0.3044  0.4445
   22MOL   C312 7074   0.910   6.980   1.877 -0.4952  0.1944  0.5328
   22MOL   C313 7075   0.964   6.896   1.977  0.0630  0.2147 -0.1743
   22MOL   C314 7076   0.851   6.632   2.204  0.2906  0.5490 -0.2831
   22MOL   H315 7077   1.030   6.731   2.169  2.9525 -0.5237 -2.7265
   22MOL   H316 7078   0.755   6.617   1.919  1.4808 -0.0326  0.7125
   22MOL   H317 7079   0.660   6.777   1.759 -0.8297 -3.4570  0.6303
   22MOL   H318 7080   0.947   7.079   1.856 -0.9994  0.2148 -0.2691
   22MOL   H319 7081   1.041   6.923   2.047  0.7001 -2.2385  0.1198
   22MOL   H320 7082   0.811   6.722   2.251  1.0081 -0.3985  2.2103
   22MOL   H321 7083   0.764   6.588   2.156  0.2723  0.5363 -0.2388
   22MOL   H322 7084   0.883   6.558   2.278 -1.2473  0.4715  0.3154
   23MOL     C1 7085   1.469   6.775   3.266 -0.2119  0.6085  0.3838
   23MOL     C2 7086   1.508   6.700   3.393  0.1367 -0.2318 -0.0048
   23MOL     C3 7087   1.644   6.696   3.439  0.1331 -0.4783  0.6197
   23MOL     C4 7088   1.673   6.622   3.554 -0.5107 -0.5533  0.2036
   23MOL     C5 7089   1.576   6.549   3.621 -0.3249 -0.0513 -0.3613
   23MOL    Cl6 7090   1.624   6.463   3.767 -0.0223  0.0988 -0.1996
   23MOL     C7 7091   1.444   6.550   3.576  0.1710  0.2031  0.3931
   23MOL     C8 7092   1.410   6.628   3.466 -0.1114  0.4536  0.2719
   23MOL     C9 7093   1.467   6.672   3.146 -0.4650  0.4274  1.4592
   23MOL    H10 7094   1.539   6.857   3.250 -1.0779  1.6751  1.9653
   23MOL    H11 7095   1.721   6.746   3.383  0.5122 -1.6416  0.0950
   23MOL    H12 7096   1.775   6.631   3.588  0.1985 -1.9150 -1.4932
   23MOL    H13 7097   1.360   6.505   3.627 -1.1861  1.7302 -0.4616
   23MOL    H14 7098   1.308   6.644   3.433  0.7760  2.0328 -1.8120
   23MOL    H15 7099   1.567   6.629   3.136 -0.4981  0.4041  1.2361
   23MOL    H16 7100   1.402   6.587   3.165  0.7159 -0.5299  1.3183
   23MOL    H17 7101   1.374   6.826   3.277  0.4369  2.7026 -3.0403
   23MOL    C18 7102   1.413   6.731   3.008 -0.2081 -0.2855  0.5032
   23MOL    C19 7103   1.269   6.768   3.018  0.3395  0.1989  0.4699
   23MOL    C20 7104   1.237   6.900   3.055  0.7310  0.0814  0.9212
   23MOL    C21 7105   1.100   6.927   3.067  0.3435 -0.6973 -0.2056
   23MOL    C22 7106   0.998   6.842   3.026  0.3634 -0.4107 -0.3706
   23MOL   Cl23 7107   0.832   6.887   3.042  0.3335  0.2743  0.0236
   23MOL    C24 7108   1.038   6.724   2.965  0.2055  0.9986  0.0768
   23MOL    C25 7109   1.169   6.678   2.974  0.4278  0.2807  0.2399
   23MOL    C26 7110   1.509   6.835   2.939  1.0373  0.4101  0.7921
   23MOL    H27 7111   1.410   6.640   2.947  0.1459  0.1589 -0.1770
   23MOL    H28 7112   1.312   6.971   3.084  3.1988 -1.7243 -0.8310
   23MOL    H29 7113   1.080   7.024   3.109  0.7862 -0.0261 -1.5126
   23MOL    H30 7114   0.972   6.654   2.917 -0.4805  1.1796  0.7522
   23MOL    H31 7115   1.183   6.578   2.936  1.1147  1.8439 -3.8446
   23MOL    H32 7116   1.446   6.900   2.878 -0.9628 -0.2991  2.0246
   23MOL    H33 7117   1.550   6.907   3.010  0.8232  1.2502  0.0630
   23MOL    C34 7118   1.627   6.770   2.862 -0.1692 -0.0906  0.5065
   23MOL    C35 7119   1.585   6.708   2.729  0.3492 -0.3338  0.1698
   23MOL    C36 7120   1.618   6.576   2.693  0.2350 -0.9082 -0.9974
   23MOL    C37 7121   1.584   6.519   2.570  0.2885  0.2458 -0.2810
   23MOL    C38 7122   1.528   6.603   2.481  0.1511 -0.2772 -0.0255
   23MOL   Cl39 7123   1.481   6.544   2.333  0.2186 -0.0153  0.2434
   23MOL    C40 7124   1.493   6.737   2.508 -0.0500 -0.6148  0.1374
   23MOL    C41 7125   1.523   6.787   2.633  0.4882  0.6146  0.5431
   23MOL    C42 7126   1.747   6.870   2.852  0.0472 -0.2905 -0.1368
   23MOL    H43 7127   1.664   6.683   2.916 -2.6920 -2.1265 -0.9208
   23MOL    H44 7128   1.675   6.519   2.766 -0.3663 -1.7881 -1.2096
   23MOL    H45 7129   1.618   6.419   2.546  2.0044  0.8816 -0.5386
   23MOL    H46 7130   1.443   6.790   2.428 -1.8560 -1.1323  0.9205
   23MOL    H47 7131   1.499   6.890   2.651 -2.1893 -0.1660  1.6729
   23MOL    H48 7132   1.829   6.828   2.794 -0.3750 -0.3771 -0.6807
   23MOL    H49 7133   1.716   6.967   2.815  0.8197  0.2664  0.6537
   23MOL    C50 7134   1.811   6.883   2.993 -0.0864  0.5859 -0.5684
   23MOL    C51 7135   1.924   6.775   3.018  0.0561 -0.3223 -0.1357
   23MOL    C52 7136   1.899   6.668   3.109 -0.3558  1.0900 -0.2125
   23MOL    C53 7137   2.000   6.570   3.129  0.2734 -0.5178 -0.4398
   23MOL    C54 7138   2.126   6.587   3.070  1.5280 -0.7848  0.2575
   23MOL   Cl55 7139   2.244   6.464   3.108 -0.0185 -0.2856 -0.4348
   23MOL    C56 7140   2.151   6.699   2.987  0.6476  0.0268  0.5476
   23MOL    C57 7141   2.056   6.792   2.960 -0.0302  0.1611  0.3596
   23MOL    C58 7142   1.859   7.028   3.021  0.9417  0.0438 -0.5834
   23MOL    H59 7143   1.737   6.858   3.069 -0.6274  2.4710 -0.4438
   23MOL    H60 7144   1.804   6.661   3.159  0.6675  1.4878  1.8436
   23MOL    H61 7145   1.996   6.492   3.205 -0.7395  0.8604  0.9669
   23MOL    H62 7146   2.254   6.709   2.955  0.9657  1.5187  1.9582
   23MOL    H63 7147   2.069   6.884   2.905  0.1024  1.1400  1.9984
   23MOL    H64 7148   1.951   7.048   2.966  0.3322  0.0891 -1.6024
   23MOL    H65 7149   1.798   7.100   2.966  0.8042 -0.2743 -0.8529
   23MOL    C66 7150   1.873   7.072   3.172  0.4459 -0.1502  0.4244
   23MOL    C67 7151   1.961   7.199   3.185  0.3226 -0.5577  0.4906
   23MOL    C68 7152   1.940   7.308   3.099 -0.0933  0.1599 -0.3170
   23MOL    C69 7153   2.021   7.418   3.101 -0.1653  1.2815  0.3350
   23MOL    C70 7154   2.110   7.437   3.208 -0.0286 -0.5253  0.6283
   23MOL   Cl71 7155   2.204   7.581   3.210 -0.1501 -0.0805 -0.1804
   23MOL    C72 7156   2.116   7.339   3.308 -0.1280 -0.2846  0.1308
   23MOL    C73 7157   2.047   7.215   3.290 -0.1031 -0.2549  0.0003
   23MOL    C74 7158   1.734   7.092   3.238 -0.2691 -0.4140 -0.2412
   23MOL    H75 7159   1.931   7.005   3.235 -0.8705  0.0110  1.8536
   23MOL    H76 7160   1.866   7.296   3.021 -0.0474  0.5493 -0.4208
   23MOL    H77 7161   2.008   7.492   3.023  1.4520  1.2810  0.0596
   23MOL    H78 7162   2.181   7.361   3.391  0.2896 -0.5010 -0.1363
   23MOL    H79 7163   2.066   7.133   3.357  0.6065 -1.2923 -1.4427
   23MOL    H80 7164   1.660   7.136   3.172 -1.4963 -2.0451 -0.0028
   23MOL    H81 7165   1.694   6.991   3.253 -1.6390  0.0130 -0.9507
   23MOL    C82 7166   1.721   7.181   3.367  0.5408  0.2733  0.0054
   23MOL    C83 7167   1.570   7.208   3.384 -0.1788  0.2729  0.0217
   23MOL    C84 7168   1.482   7.105   3.416  0.3583  0.1567  0.2621
   23MOL    C85 7169   1.345   7.128   3.431 -0.6967  0.2710 -0.9327
   23MOL    C86 7170   1.291   7.260   3.425 -0.8925  0.1290 -0.3010
   23MOL   Cl87 7171   1.122   7.295   3.438  0.3179  0.3184 -0.2233
   23MOL    C88 7172   1.382   7.365   3.386  0.1019  0.2270 -0.6034
   23MOL    C89 7173   1.521   7.338   3.366  0.2332 -0.0623 -0.0616
   23MOL    C90 7174   1.766   7.091   3.492  0.3456 -0.1443  0.2282
   23MOL    H91 7175   1.774   7.274   3.344 -1.0105  1.4568  1.1361
   23MOL    H92 7176   1.522   7.005   3.419 -1.0889 -0.4912 -1.3376
   23MOL    H93 7177   1.277   7.047   3.453 -1.5134  2.2530  4.6606
   23MOL    H94 7178   1.343   7.466   3.390  0.0746  0.1677  1.2670
   23MOL    H95 7179   1.582   7.422   3.338 -0.8013  1.3405  1.7504
   23MOL    H96 7180   1.718   6.994   3.483 -1.3561  0.6440  0.5726
   23MOL    H97 7181   1.874   7.078   3.480  0.3629 -1.0925  1.4191
   23MOL    C98 7182   1.735   7.154   3.629 -0.3201  0.0792 -0.5322
   23MOL    C99 7183   1.664   7.050   3.713 -0.4950  0.2039  0.0654
   23MOL   C100 7184   1.738   6.935   3.753 -0.3172  0.4164  0.3391
   23MOL   C101 7185   1.680   6.826   3.828 -0.0629 -0.4204  0.7473
   23MOL   C102 7186   1.550   6.839   3.862  0.3587  0.0252  0.3070
   23MOL  Cl103 7187   1.485   6.719   3.958  0.3915  0.2191  0.1825
   23MOL   C104 7188   1.477   6.955   3.830 -0.2667  0.2955  0.8517
   23MOL   C105 7189   1.532   7.056   3.753 -0.8526 -1.1787 -0.1553
   23MOL   C106 7190   1.863   7.206   3.697 -0.4547 -0.3477 -0.1745
   23MOL   H107 7191   1.665   7.237   3.615 -0.1586  0.7692  2.5238
   23MOL   H108 7192   1.840   6.942   3.721 -0.8226  0.4204 -1.3114
   23MOL   H109 7193   1.744   6.744   3.856 -0.7215 -1.2547 -0.1461
   23MOL   H110 7194   1.373   6.967   3.856 -0.6487 -0.9426 -0.0289
   23MOL   H111 7195   1.470   7.142   3.730  0.6156 -0.2339 -0.6816
   23MOL   H112 7196   1.824   7.234   3.795  1.5617  0.2990  0.4748
   23MOL   H113 7197   1.938   7.129   3.718 -1.3605 -1.1108  0.2769
   23MOL   C114 7198   1.927   7.319   3.624 -0.3783  0.5294  0.7766
   23MOL   C115 7199   1.839   7.444   3.593 -0.2265 -0.0938  0.7710
   23MOL   C116 7200   1.840   7.514   3.466 -0.5708  0.0083 -0.6759
   23MOL   C117 7201   1.769   7.634   3.444 -0.0576 -0.2792 -0.0437
   23MOL   C118 7202   1.686   7.681   3.547 -0.0221 -0.3288 -0.9746
   23MOL  Cl119 7203   1.625   7.840   3.525 -0.2408  0.0389 -0.4821
   23MOL   C120 7204   1.674   7.612   3.672  0.5357  0.0155  0.0661
   23MOL   C121 7205   1.749   7.495   3.692 -0.2909  0.3925 -0.5243
   23MOL   C122 7206   2.071   7.369   3.672 -0.0973 -0.0429 -0.1149
   23MOL   H123 7207   1.945   7.274   3.526 -1.7739  0.7433  0.4250
   23MOL   H124 7208   1.902   7.475   3.387  1.3173  0.6033  0.4960
   23MOL   H125 7209   1.765   7.684   3.348  0.8461 -0.7212 -0.3164
   23MOL   H126 7210   1.610   7.643   3.753  1.8105  0.9931  0.7243
   23MOL   H127 7211   1.750   7.451   3.791 -0.5870  1.4925 -0.0259
   23MOL   H128 7212   2.139   7.284   3.673 -0.0687 -0.0471  2.0475
   23MOL   H129 7213   2.109   7.447   3.606 -1.8456 -0.7127 -1.9373
   23MOL   C130 7214   2.078   7.427   3.820 -0.4431 -0.3595  0.1684
   23MOL   C131 7215   2.049   7.329   3.928  0.1926  0.0243  0.4353
   23MOL   C132 7216   1.964   7.369   4.038  0.1446  0.1889  0.1420
   23MOL   C133 7217   1.925   7.273   4.137 -0.7942  0.3227 -0.4145
   23MOL   C134 7218   1.984   7.141   4.132  0.2058 -0.6928 -0.0440
   23MOL  Cl135 7219   1.945   7.033   4.256 -0.0192  0.1778  0.0661
   23MOL   C136 7220   2.078   7.103   4.034 -0.0385 -0.6204 -0.6167
   23MOL   C137 7221   2.112   7.201   3.933  0.3292  0.9885 -0.0626
   23MOL   C138 7222   2.210   7.513   3.848  0.2634 -0.0325 -0.3344
   23MOL   H139 7223   2.000   7.502   3.826  0.5230  0.7221 -0.5040
   23MOL   H140 7224   1.919   7.467   4.043 -0.5263 -0.0325 -1.2175
   23MOL   H141 7225   1.856   7.299   4.216 -0.2651 -0.5288  0.3419
   23MOL   H142 7226   2.129   7.008   4.036  3.9643  1.4382  2.4350
   23MOL   H143 7227   2.166   7.163   3.847  1.8648  1.0691  0.8537
   23MOL   H144 7228   2.244   7.506   3.952 -1.6028  2.8157  0.4991
   23MOL   H145 7229   2.293   7.471   3.790  0.5036 -1.6164  1.1119
   23MOL   C146 7230   2.196   7.664   3.813 -0.8621  0.0518  0.9879
   23MOL   C147 7231   2.082   7.728   3.886 -0.0669  0.0358  0.1545
   23MOL   C148 7232   1.969   7.768   3.803  0.5229 -0.3505 -0.7326
   23MOL   C149 7233   1.869   7.846   3.866  0.6095  0.3584  0.1563
   23MOL   C150 7234   1.870   7.878   4.005  0.3876  0.3473  0.9251
   23MOL  Cl151 7235   1.729   7.962   4.072 -0.1765 -0.0308 -0.1129
   23MOL   C152 7236   1.981   7.840   4.083  0.3341 -0.4449 -0.3603
   23MOL   C153 7237   2.092   7.760   4.027  0.6572 -0.2175  0.2480
   23MOL   C154 7238   2.330   7.740   3.836  0.1654 -0.6500 -0.6449
   23MOL   H155 7239   2.179   7.684   3.707  2.0956 -2.5560 -0.0418
   23MOL   H156 7240   1.972   7.754   3.696 -0.7873  1.4900 -1.0405
   23MOL   H157 7241   1.794   7.882   3.798  0.1145 -1.5196 -0.3089
   23MOL   H158 7242   1.977   7.863   4.188  0.4579 -0.5378 -0.3358
   23MOL   H159 7243   2.179   7.731   4.085  0.1633 -1.0033  0.6090
   23MOL   H160 7244   2.355   7.772   3.938  0.0347  2.8189 -1.6170
   23MOL   H161 7245   2.408   7.673   3.800  0.3913 -0.7608  0.0369
   23MOL   C162 7246   2.359   7.869   3.756  0.2717  0.3069  0.2705
   23MOL   C163 7247   2.274   7.991   3.800 -0.1081  0.1150  0.0445
   23MOL   C164 7248   2.178   8.037   3.712  0.6913 -0.3460  0.5550
   23MOL   C165 7249   2.080   8.127   3.753  0.0269  0.1638  0.3993
   23MOL   C166 7250   2.093   8.186   3.878  0.0279 -0.0142  0.3802
   23MOL  Cl167 7251   1.989   8.313   3.934  0.0596  0.4386  0.1661
   23MOL   C168 7252   2.205   8.150   3.972 -0.1874  0.3314  0.2923
   23MOL   C169 7253   2.292   8.051   3.927  0.5343  0.7380  0.3150
   23MOL   C170 7254   2.501   7.904   3.758  0.6763 -0.6088  0.3103
   23MOL   H171 7255   2.336   7.841   3.653  2.4473  0.4554 -0.2924
   23MOL   H172 7256   2.153   7.990   3.618  0.4360 -0.3751  0.6369
   23MOL   H173 7257   2.008   8.149   3.676  0.4280 -3.6456 -1.1801
   23MOL   H174 7258   2.230   8.188   4.070  2.6823  0.6422 -0.4919
   23MOL   H175 7259   2.356   8.006   4.002 -1.3244  0.3174  1.6893
   23MOL   H176 7260   2.525   7.944   3.856  1.2718 -2.0521  0.7788
   23MOL   H177 7261   2.560   7.812   3.756  0.5136 -0.7205  0.7781
   23MOL   C178 7262   2.551   7.999   3.646  0.2130 -0.2718  0.2877
   23MOL   C179 7263   2.690   8.070   3.675  0.5798  0.5515  0.5305
   23MOL   C180 7264   2.813   7.996   3.659  0.2964  0.0091 -1.0410
   23MOL   C181 7265   2.935   8.054   3.702  1.1180  0.6292 -0.2397
   23MOL   C182 7266   2.944   8.186   3.753  0.2887  0.2091 -0.4754
   23MOL  Cl183 7267   3.092   8.251   3.813  0.0141  0.0859  0.0615
   23MOL   C184 7268   2.819   8.261   3.765 -0.1954 -0.3184  0.1509
   23MOL   C185 7269   2.698   8.204   3.722 -0.4020  0.5970 -0.0598
   23MOL   C186 7270   2.563   7.938   3.505  0.3204  0.2418 -0.0497
   23MOL   H187 7271   2.475   8.077   3.644  1.0194  0.5662  1.5108
   23MOL   H188 7272   2.811   7.896   3.617 -0.5450 -0.2544 -0.4076
   23MOL   H189 7273   3.028   7.999   3.701  0.5920 -0.2742 -0.0008
   23MOL   H190 7274   2.817   8.354   3.819  1.8351 -0.9770  1.4163
   23MOL   H191 7275   2.608   8.263   3.725 -0.6358  0.3198 -1.3119
   23MOL   H192 7276   2.623   7.847   3.497  0.4178  0.3687 -0.7967
   23MOL   H193 7277   2.465   7.896   3.484  0.2532  0.6260 -0.5017
   23MOL   C194 7278   2.614   8.026   3.377 -0.3174 -0.5072  0.6875
   23MOL   C195 7279   2.635   7.935   3.258 -1.0000 -0.4784  0.3685
   23MOL   C196 7280   2.535   7.846   3.212 -0.4881 -0.7083  0.9039
   23MOL   C197 7281   2.554   7.778   3.090 -0.6167 -0.1106 -0.3783
   23MOL   C198 7282   2.667   7.793   3.013 -0.3090  0.7996 -0.4729
   23MOL  Cl199 7283   2.677   7.721   2.858 -0.5489  0.0342 -0.0082
   23MOL   C200 7284   2.772   7.873   3.061 -0.2393  0.1520 -0.4094
   23MOL   C201 7285   2.754   7.946   3.183 -0.0559 -0.3643  0.0686
   23MOL   C202 7286   2.519   8.145   3.334 -0.3305  0.6964 -0.1621
   23MOL   H203 7287   2.716   8.059   3.399  0.5672 -2.6221 -0.0892
   23MOL   H204 7288   2.440   7.822   3.258  0.0857 -0.7383  2.0902
   23MOL   H205 7289   2.475   7.720   3.046 -0.2147 -1.5437  0.7570
   23MOL   H206 7290   2.862   7.887   3.003  0.8424  0.5809  1.3283
   23MOL   H207 7291   2.835   8.013   3.209 -0.2754  0.4593 -1.3344
   23MOL   H208 7292   2.496   8.135   3.227 -2.1614 -0.3249  0.3029
   23MOL   H209 7293   2.419   8.126   3.373  0.1237 -0.9735  0.2567
   23MOL   C210 7294   2.576   8.286   3.361 -0.4704  0.6163  0.6331
   23MOL   C211 7295   2.714   8.303   3.305 -0.9205 -0.1800  0.1798
   23MOL   C212 7296   2.816   8.359   3.384  0.2115  0.4823  0.0206
   23MOL   C213 7297   2.952   8.369   3.340 -0.4956 -0.1578 -0.3718
   23MOL   C214 7298   2.989   8.333   3.209 -1.1394 -0.1286 -0.0470
   23MOL  Cl215 7299   3.148   8.374   3.160  0.0005  0.3537  0.1944
   23MOL   C216 7300   2.882   8.292   3.124 -0.4886 -0.2900  0.3410
   23MOL   C217 7301   2.745   8.277   3.169  0.2688  0.3253 -0.2199
   23MOL   C218 7302   2.479   8.395   3.309  0.1202 -0.1160  0.5093
   23MOL   H219 7303   2.575   8.307   3.468 -2.8936 -0.4118  0.8261
   23MOL   H220 7304   2.798   8.384   3.487 -3.0417  1.6057 -0.7835
   23MOL   H221 7305   3.026   8.405   3.410 -0.4116 -1.8645  0.4430
   23MOL   H222 7306   2.906   8.276   3.020 -0.0833  2.3338  0.0040
   23MOL   H223 7307   2.669   8.255   3.095 -0.0861 -1.5227  0.6597
   23MOL   H224 7308   2.531   0.048   3.309 -0.1252  0.0833 -2.6762
   23MOL   H225 7309   2.469   8.376   3.202  1.3356  3.3163 -0.2699
   23MOL   C226 7310   2.346   8.398   3.383 -0.1831  0.2731 -0.3791
   23MOL   C227 7311   2.362   0.011   3.526  0.4633 -0.3193  0.6501
   23MOL   C228 7312   2.329   8.374   3.638  0.0433  0.0872 -0.1552
   23MOL   C229 7313   2.329   8.423   3.772  0.3811  0.1927 -0.4907
   23MOL   C230 7314   2.365   0.113   3.789 -0.6396 -0.6305  0.7055
   23MOL  Cl231 7315   2.342   0.187   3.939  0.2537 -0.2273  0.5483
   23MOL   C232 7316   2.408   0.191   3.683  0.0960  0.1928  0.7582
   23MOL   C233 7317   2.410   0.140   3.552 -0.1895 -0.0001 -0.2393
   23MOL   C234 7318   2.238   0.034   3.304 -0.1270  0.0556 -0.3933
   23MOL   H235 7319   2.310   8.296   3.396  1.0354 -0.3017 -1.4084
   23MOL   H236 7320   2.297   8.271   3.630  1.2627 -0.4956  1.8581
   23MOL   H237 7321   2.312   8.369   3.863  2.7472  0.7169  0.3044
   23MOL   H238 7322   2.428   0.297   3.695  2.8894 -0.5765  3.6305
   23MOL   H239 7323   2.436   0.212   3.476  0.8502  0.5480  0.6203
   23MOL   H240 7324   2.152   0.056   3.367  0.7378  2.2631  0.0799
   23MOL   H241 7325   2.270   0.136   3.286 -1.3832  0.8897  1.8832
   23MOL   C242 7326   2.177   8.408   3.181  0.0248  0.1819 -0.2166
   23MOL   C243 7327   2.137   8.268   3.214  0.4306  0.4608  0.7941
   23MOL   C244 7328   2.037   8.241   3.311 -0.2290  0.1345  1.4731
   23MOL   C245 7329   1.990   8.114   3.348 -1.0098  0.7808 -0.1945
   23MOL   C246 7330   2.064   8.003   3.291  0.3372 -0.0016 -0.0064
   23MOL  Cl247 7331   2.008   7.845   3.330  0.1517  0.1729  0.0114
   23MOL   C248 7332   2.167   8.024   3.201  0.5242 -0.7802  1.2754
   23MOL   C249 7333   2.200   8.155   3.163 -0.1084  0.2210  0.4684
   23MOL   C250 7334   2.067   0.048   3.123  0.1099  0.0723  0.0477
   23MOL   H251 7335   2.256   8.401   3.105 -1.1334 -0.5535 -1.3714
   23MOL   H252 7336   1.988   8.330   3.348  0.2662  0.4438  1.3989
   23MOL   H253 7337   1.909   8.092   3.416 -0.3166  0.6633  0.6068
   23MOL   H254 7338   2.223   7.939   3.164  2.8185  1.9259 -1.8084
   23MOL   H255 7339   2.280   8.169   3.092 -1.1873 -0.7080 -0.9605
   23MOL   H256 7340   1.977   0.050   3.185 -0.4544 -0.0739 -0.7413
   23MOL   H257 7341   2.101   0.152   3.127  0.5436 -0.1346  2.0706
   23MOL   C258 7342   2.010   0.001   2.984 -0.1243 -0.0312  0.0951
   23MOL   C259 7343   1.891   0.092   2.934 -0.0658 -0.0789 -0.2958
   23MOL   C260 7344   1.861   0.215   2.994 -0.1034 -0.4280  0.6001
   23MOL   C261 7345   1.751   0.292   2.963 -0.7600 -0.2528  0.3291
   23MOL   C262 7346   1.667   0.249   2.860  0.0862 -0.8186 -0.4097
   23MOL  Cl263 7347   1.527   0.332   2.816 -0.2807 -0.2290  0.1180
   23MOL   C264 7348   1.694   0.129   2.795 -0.0727 -0.3731 -0.4230
   23MOL   C265 7349   1.800   0.046   2.843  0.0698 -0.6889 -0.6539
   23MOL   C266 7350   2.110   8.421   2.872 -0.0417  0.0793 -0.3455
   23MOL   H267 7351   1.977   8.343   3.008 -1.0226  0.0940 -0.5839
   23MOL   H268 7352   1.933   0.259   3.061  2.2041  0.3236 -2.2677
   23MOL   H269 7353   1.734   0.389   3.006 -2.3982 -0.4992  0.2688
   23MOL   H270 7354   1.633   0.092   2.714  1.4748 -4.6662  0.2384
   23MOL   H271 7355   1.816   8.394   2.793  1.7536 -1.0434  0.5207
   23MOL   H272 7356   2.189   8.349   2.895  0.4100  0.2842 -1.2311
   23MOL   H273 7357   2.053   8.377   2.790  2.1467  0.6118 -2.1952
   23MOL   C274 7358   2.173   0.103   2.809 -0.5242 -0.5517  0.4104
   23MOL   C275 7359   2.317   0.128   2.858 -0.0867  0.0711 -0.4398
   23MOL   C276 7360   2.411   0.023   2.841 -0.0669 -0.0797  0.5630
   23MOL   C277 7361   2.547   0.040   2.878  0.2523 -0.2693 -0.4797
   23MOL   C278 7362   2.580   0.151   2.963 -0.7091  0.0748 -0.3593
   23MOL  Cl279 7363   2.732   0.167   3.037 -0.0991 -0.1841  0.6835
   23MOL   C280 7364   2.481   0.256   2.983  1.0362 -0.2281  0.6161
   23MOL   C281 7365   2.354   0.246   2.922  0.0864 -0.1762  0.1509
   23MOL   C282 7366   2.170   0.108   2.653 -0.0071 -0.0902  0.5776
   23MOL   H283 7367   2.118   0.189   2.847  0.9339  0.5437  0.0906
   23MOL   H284 7368   2.373   8.374   2.801 -1.3735  1.3246 -1.5663
   23MOL   H285 7369   2.618   8.403   2.875 -0.7047 -1.0844 -2.0867
   23MOL   H286 7370   2.505   0.340   3.047 -1.0211  0.2677  0.7839
   23MOL   H287 7371   2.281   0.326   2.930  1.7802  1.3486  0.7267
   23MOL   H288 7372   2.240   0.035   2.613 -0.7343 -2.1756  2.9960
   23MOL   H289 7373   2.077   0.071   2.609  0.6144  0.8639 -1.6204
   23MOL   C290 7374   2.187   0.250   2.591 -0.2483  0.5717  0.5021
   23MOL   C291 7375   2.209   0.243   2.439  0.1380  0.2932 -0.0820
   23MOL   C292 7376   2.336   0.264   2.382 -0.0220 -0.2163 -0.1947
   23MOL   C293 7377   2.357   0.275   2.248 -0.0049  0.7007 -0.0501
   23MOL   C294 7378   2.246   0.260   2.161  0.0463  0.0245  0.4457
   23MOL  Cl295 7379   2.272   0.279   1.989  0.3206 -0.1566 -0.3277
   23MOL   C296 7380   2.120   0.235   2.212  0.6633 -0.1093  0.9207
   23MOL   C297 7381   2.101   0.216   2.350 -0.0306 -0.0904 -0.9372
   23MOL   C298 7382   2.070   0.345   2.628  0.7097 -0.1948 -0.8056
   23MOL   H299 7383   2.275   0.298   2.635  2.0860 -2.0177 -1.1641
   23MOL   H300 7384   2.425   0.268   2.443  0.1839 -0.7114 -0.4604
   23MOL   H301 7385   2.459   0.291   2.217  0.6453 -2.0551  0.5274
   23MOL   H302 7386   2.037   0.233   2.143  1.5363 -0.4001 -0.1385
   23MOL   H303 7387   2.005   0.188   2.390  0.5455 -0.0697  0.4901
   23MOL   H304 7388   1.976   0.289   2.622 -0.2572  1.2246  0.7148
   23MOL   H305 7389   2.086   0.372   2.733  2.1989  0.8405 -1.2914
   23MOL   C306 7390   2.053   0.475   2.545 -0.2009 -0.7572  0.6411
   23MOL   C307 7391   1.916   0.534   2.565  0.3267  0.5192  0.6070
   23MOL   C308 7392   1.833   0.529   2.452 -0.5975 -0.1835 -0.2769
   23MOL   C309 7393   1.700   0.574   2.449  0.6008  0.2636  0.4376
   23MOL   C310 7394   1.649   0.637   2.569  0.5170 -0.6784 -0.4369
   23MOL  Cl311 7395   1.484   0.711   2.570  0.0466 -0.0882  0.5393
   23MOL   C312 7396   1.731   0.638   2.683 -0.5972  0.5653 -0.0552
   23MOL   C313 7397   1.860   0.586   2.684  0.1578 -0.6379 -0.0003
   23MOL   C314 7398   2.165   0.573   2.590 -0.1472  0.5019  0.0930
   23MOL   H315 7399   2.071   0.460   2.438 -0.5991  0.5962  0.3740
   23MOL   H316 7400   1.871   0.490   2.359  1.4742 -0.3133  0.6005
   23MOL   H317 7401   1.641   0.573   2.359 -2.0230 -0.7637  2.1093
   23MOL   H318 7402   1.701   0.686   2.775  0.3783 -0.5464  0.8700
   23MOL   H319 7403   1.921   0.593   2.774  1.8741 -0.1516 -1.1791
   23MOL   H320 7404   2.167   0.660   2.524  2.2591  0.4548  0.0518
   23MOL   H321 7405   2.148   0.616   2.688  2.7807  2.7739 -0.3438
   23MOL   H322 7406   2.263   0.526   2.599 -0.2331  0.3097  0.0255
   24MOL     C1 7407   3.004   0.512   7.657 -0.1420  0.2556  0.4499
   24MOL     C2 7408   3.136   0.440   7.622 -0.4107 -0.6728  0.1466
   24MOL     C3 7409   3.162   0.395   7.495  0.0200  0.1672  0.6214
   24MOL     C4 7410   3.287   0.362   7.457 -0.3651  0.6181 -0.2365
   24MOL     C5 7411   3.396   0.371   7.544 -0.0579  0.1662  0.5089
   24MOL    Cl6 7412   3.555   0.337   7.491 -0.1872 -0.2517 -0.0841
   24MOL     C7 7413   3.370   0.405   7.680  0.0922  0.3809 -0.0296
   24MOL     C8 7414   3.235   0.442   7.724 -0.6105  1.0656 -0.3538
   24MOL     C9 7415   2.886   0.414   7.662  0.0022 -0.3074 -0.0369
   24MOL    H10 7416   2.999   0.599   7.592  1.3758 -1.0261 -1.4687
   24MOL    H11 7417   3.084   0.397   7.420  0.7794  1.7239 -0.1461
   24MOL    H12 7418   3.312   0.335   7.355 -1.8244 -0.1221 -0.4122
   24MOL    H13 7419   3.452   0.411   7.750  0.0517 -0.1402  0.0684
   24MOL    H14 7420   3.223   0.475   7.826  2.7033  0.7906  0.1607
   24MOL    H15 7421   2.790   0.463   7.679  0.2425 -0.5247  2.0942
   24MOL    H16 7422   2.878   0.369   7.563  3.0036  1.3373 -1.1149
   24MOL    H17 7423   3.016   0.555   7.756 -0.3443  0.3867  0.4155
   24MOL    C18 7424   2.898   0.301   7.768  0.2994  0.6815 -0.1902
   24MOL    C19 7425   2.912   0.364   7.911  0.2560 -0.9598 -0.0436
   24MOL    C20 7426   3.030   0.342   7.986 -0.4465 -0.4351  0.0031
   24MOL    C21 7427   3.044   0.391   8.120 -0.3573  0.6788 -0.7890
   24MOL    C22 7428   2.938   0.467   8.179 -0.2004 -0.2848  0.4040
   24MOL   Cl23 7429   2.943   0.519   8.345  0.3003  0.2889 -0.0626
   24MOL    C24 7430   2.823   0.498   8.105 -0.3647  0.3992 -0.2135
   24MOL    C25 7431   2.811   0.438   7.974  0.0508 -0.2773 -0.4058
   24MOL    C26 7432   2.774   0.209   7.763  0.2898 -0.5278  0.0495
   24MOL    H27 7433   2.993   0.252   7.746  0.7732  1.4025  0.2139
   24MOL    H28 7434   3.106   0.282   7.938  0.1860 -0.1378  0.6109
   24MOL    H29 7435   3.136   0.368   8.170  0.0905 -0.7326 -2.2046
   24MOL    H30 7436   2.742   0.557   8.146  1.0992  3.4212 -1.4584
   24MOL    H31 7437   2.725   0.452   7.910 -0.0935  1.6521  0.1852
   24MOL    H32 7438   2.684   0.269   7.773 -0.0200 -0.8219 -0.8773
   24MOL    H33 7439   2.768   0.160   7.665  0.6492  1.2088 -0.8700
   24MOL    C34 7440   2.771   0.099   7.872  0.2287  0.3691  0.7628
   24MOL    C35 7441   2.645   0.014   7.844 -0.2018 -0.0926  0.1173
   24MOL    C36 7442   2.524   0.055   7.893  0.9828  0.1283  0.3274
   24MOL    C37 7443   2.406   8.431   7.851 -0.2544  0.3161  0.3319
   24MOL    C38 7444   2.414   8.324   7.761  0.4458  0.0347 -0.2231
   24MOL   Cl39 7445   2.277   8.224   7.732 -0.4267  0.0173 -0.0857
   24MOL    C40 7446   2.537   8.278   7.717 -0.1013  0.3104 -1.0142
   24MOL    C41 7447   2.658   8.338   7.759  0.3518 -0.2842 -0.5157
   24MOL    C42 7448   2.903   0.011   7.887  0.2016  0.4067  0.4203
   24MOL    H43 7449   2.752   0.143   7.970 -0.2585  0.1892  0.7505
   24MOL    H44 7450   2.513   0.138   7.961 -3.2899  0.7402 -0.9400
   24MOL    H45 7451   2.310   0.019   7.890  0.3565  0.2251  1.9543
   24MOL    H46 7452   2.547   8.188   7.658  1.4840  1.2250 -2.1610
   24MOL    H47 7453   2.752   8.314   7.711  0.2634 -0.2815 -0.6907
   24MOL    H48 7454   2.934   8.411   7.792  1.6614  0.5756  0.8057
   24MOL    H49 7455   2.984   0.077   7.918 -0.4324  0.8920  1.0653
   24MOL    C50 7456   2.887   8.322   7.973 -0.5743  0.0747 -0.4889
   24MOL    C51 7457   3.000   8.228   7.941 -0.3717 -0.2781  0.5241
   24MOL    C52 7458   3.130   8.271   7.911  0.1765 -0.0545  0.2302
   24MOL    C53 7459   3.234   8.183   7.873 -0.1988  0.3801 -0.5120
   24MOL    C54 7460   3.204   8.045   7.846 -0.2004 -0.2568 -0.4144
   24MOL   Cl55 7461   3.326   7.946   7.771 -0.0353  0.5388  0.1919
   24MOL    C56 7462   3.076   7.997   7.876  0.0823 -0.3792 -0.3684
   24MOL    C57 7463   2.973   8.089   7.920 -0.4966 -0.6332 -0.2130
   24MOL    C58 7464   2.854   8.351   8.129  0.6449  0.4606  0.8485
   24MOL    H59 7465   2.802   8.258   7.949  0.1640 -1.1811  0.1761
   24MOL    H60 7466   3.153   8.376   7.909  0.2474 -0.0925 -2.6066
   24MOL    H61 7467   3.329   8.233   7.859 -0.3361  1.2381  1.5087
   24MOL    H62 7468   3.059   7.893   7.851 -0.0638 -0.8232  1.4895
   24MOL    H63 7469   2.877   8.050   7.949 -0.2071 -0.3873  1.0946
   24MOL    H64 7470   2.937   8.309   8.186  1.1636 -1.1820 -1.0601
   24MOL    H65 7471   2.854   0.014   8.157  1.3447  0.8145 -0.4743
   24MOL    C66 7472   2.720   8.297   8.178  0.8399  0.1281  0.1171
   24MOL    C67 7473   2.677   8.154   8.133  0.3232  0.5164  0.8041
   24MOL    C68 7474   2.574   8.135   8.037  0.6698 -0.3713 -0.5786
   24MOL    C69 7475   2.538   8.007   7.996  0.3355 -0.1061  0.6794
   24MOL    C70 7476   2.612   7.894   8.038  0.6483  0.0975  0.1282
   24MOL   Cl71 7477   2.600   7.740   7.970  0.0865  0.1254 -0.0780
   24MOL    C72 7478   2.699   7.912   8.151  0.6948 -0.6024 -0.9526
   24MOL    C73 7479   2.739   8.041   8.193 -0.6567  0.0588  0.6806
   24MOL    C74 7480   2.701   8.313   8.332 -0.1688 -0.1381  0.1911
   24MOL    H75 7481   2.643   8.364   8.140 -1.4561 -1.2989  2.1239
   24MOL    H76 7482   2.513   8.219   8.009  0.3342  0.0530  1.3764
   24MOL    H77 7483   2.463   7.998   7.919 -0.5408 -1.2237  1.6523
   24MOL    H78 7484   2.742   7.827   8.203  0.5789  1.0421  1.9371
   24MOL    H79 7485   2.822   8.054   8.261 -0.0909 -0.0784  0.0184
   24MOL    H80 7486   2.785   8.261   8.378 -0.6689 -2.6635 -1.6576
   24MOL    H81 7487   2.716   8.420   8.347  2.5899 -0.7781  2.5811
   24MOL    C82 7488   2.579   8.262   8.406 -0.2097 -0.2936  0.7201
   24MOL    C83 7489   2.594   8.277   0.114 -0.0071 -1.1454  0.1250
   24MOL    C84 7490   2.551   8.170   0.197  0.1759  0.4983 -0.5849
   24MOL    C85 7491   2.562   8.192   0.334 -0.0251  0.4211  0.7801
   24MOL    C86 7492   2.588   8.317   0.392  0.0335 -0.4870 -0.2783
   24MOL   Cl87 7493   2.579   8.349   0.558 -0.5561  0.2530 -0.3657
   24MOL    C88 7494   2.631   8.419   0.307 -0.7230  0.2793 -0.9031
   24MOL    C89 7495   2.634   8.400   0.166 -0.4040 -0.1329  0.0383
   24MOL    C90 7496   2.446   8.316   8.351 -0.3523  0.1565 -0.0007
   24MOL    H91 7497   2.571   8.154   8.394  0.8392 -0.2982  0.0725
   24MOL    H92 7498   2.508   8.079   0.159  0.5012 -0.2208  0.7410
   24MOL    H93 7499   2.541   8.107   0.397  0.1086 -1.5854 -1.8016
   24MOL    H94 7500   2.660   0.074   0.341 -0.0960 -0.3649  0.4335
   24MOL    H95 7501   2.665   0.038   0.102 -0.4921  0.8813  1.2733
   24MOL    H96 7502   2.439   8.421   8.380  1.0882  0.7701 -1.7682
   24MOL    H97 7503   2.443   8.308   8.243 -0.0580 -1.7296  0.1213
   24MOL    C98 7504   2.317   8.234   8.393 -0.2254  0.1280  0.2324
   24MOL    C99 7505   2.195   8.333   8.396  0.6346 -0.5947 -0.0803
   24MOL   C100 7506   2.158   8.395   8.271 -0.5110  0.3194  0.0639
   24MOL   C101 7507   2.037   0.028   8.265 -0.3890 -0.1350 -0.4248
   24MOL   C102 7508   1.946   0.028   8.370 -0.4495  1.3430  0.3772
   24MOL  Cl103 7509   1.794   0.118   8.361  0.2463 -0.1074  0.0979
   24MOL   C104 7510   1.980   8.405   0.050 -0.1502 -0.2675  0.2004
   24MOL   C105 7511   2.103   8.334   0.064  0.3376 -0.6145  0.4867
   24MOL   C106 7512   2.296   8.118   8.290 -0.0074 -0.0106  0.2879
   24MOL   H107 7513   2.339   8.193   0.049  1.8357  0.1546 -0.1856
   24MOL   H108 7514   2.224   8.390   8.186  2.0773  0.6572  1.9732
   24MOL   H109 7515   2.014   0.091   8.181  0.4548 -0.1994 -0.7111
   24MOL   H110 7516   1.910   8.395   0.131  0.4075 -3.3839  0.3960
   24MOL   H111 7517   2.129   8.275   0.150  2.3319  1.3347  1.2588
   24MOL   H112 7518   2.272   8.160   8.192  2.0318 -0.0928 -0.2827
   24MOL   H113 7519   2.389   8.062   8.281  0.6196  0.9773  0.5756
   24MOL   C114 7520   2.179   8.024   8.318  0.5438 -0.4457 -0.5792
   24MOL   C115 7521   2.146   7.948   8.190  0.1498  1.2202  0.5072
   24MOL   C116 7522   2.020   7.970   8.120  0.6310 -0.2690  0.2759
   24MOL   C117 7523   1.985   7.893   7.999 -0.2179  0.0242 -0.3257
   24MOL   C118 7524   2.088   7.818   7.939 -0.5614  0.2436  0.4674
   24MOL  Cl119 7525   2.043   7.719   7.803  0.3431 -0.2524  0.0688
   24MOL   C120 7526   2.218   7.803   7.999 -0.3151  0.3621  0.0502
   24MOL   C121 7527   2.242   7.862   8.129  0.0179  0.7147 -0.6392
   24MOL   C122 7528   2.205   7.936   8.443  0.1181 -0.2470 -0.1132
   24MOL   H123 7529   2.093   8.083   8.351  0.4165 -0.8810 -0.1326
   24MOL   H124 7530   1.936   8.026   8.159  0.2961 -1.2221  0.9403
   24MOL   H125 7531   1.885   7.904   7.961 -0.7005 -1.1516  0.5738
   24MOL   H126 7532   2.294   7.754   7.940  1.0582  0.0422  2.0415
   24MOL   H127 7533   2.335   7.853   8.183  0.2976 -1.9435 -1.4804
   24MOL   H128 7534   2.281   7.863   8.414 -0.3989 -0.2386 -1.5237
   24MOL   H129 7535   2.233   7.996   0.087  1.0861  0.0017 -0.5870
   24MOL   C130 7536   2.084   7.842   0.041  0.1316 -0.2883  0.0321
   24MOL   C131 7537   2.060   7.721   8.392  0.3718 -0.4649 -1.1698
   24MOL   C132 7538   2.162   7.622   8.375 -0.0080 -0.6486 -0.0448
   24MOL   C133 7539   2.138   7.520   8.282  0.1348  0.6965 -0.5772
   24MOL   C134 7540   2.018   7.502   8.214 -0.6153 -0.1913 -0.3753
   24MOL  Cl135 7541   2.003   7.373   8.097 -0.6676 -0.3908  0.0834
   24MOL   C136 7542   1.919   7.601   8.231 -0.8345 -0.1127  0.4229
   24MOL   C137 7543   1.944   7.709   8.321 -0.4739 -0.0305 -0.1298
   24MOL   C138 7544   2.113   7.792   0.185 -0.5524  0.9291 -0.0008
   24MOL   H139 7545   1.997   7.907   0.051 -0.0860 -0.7531  1.2456
   24MOL   H140 7546   2.260   7.632   8.418  0.0839  0.0502 -0.4034
   24MOL   H141 7547   2.204   7.438   8.261 -0.3554  0.0230  0.5143
   24MOL   H142 7548   1.825   7.605   8.178 -1.2875  0.1811  1.2419
   24MOL   H143 7549   1.873   7.789   8.334 -1.9495 -1.1673 -1.1029
   24MOL   H144 7550   2.073   7.693   0.208  0.8840  0.6756  1.4444
   24MOL   H145 7551   2.221   7.776   0.190 -0.4961  1.7478  1.7831
   24MOL   C146 7552   2.062   7.881   0.299 -0.3003 -0.3318 -0.1267
   24MOL   C147 7553   1.911   7.888   0.307 -0.1680 -0.3216 -0.0657
   24MOL   C148 7554   1.845   8.019   0.313  0.1971 -0.3908 -0.0409
   24MOL   C149 7555   1.700   8.032   0.308  0.4761  0.3407  0.0216
   24MOL   C150 7556   1.627   7.913   0.278 -0.3402  0.3865  0.7375
   24MOL  Cl151 7557   1.455   7.927   0.274  0.0824  0.0196  0.4753
   24MOL   C152 7558   1.689   7.788   0.283  0.7499  0.2679  0.3833
   24MOL   C153 7559   1.833   7.775   0.296  0.0030 -0.0302 -0.3883
   24MOL   C154 7560   2.128   7.861   0.440  0.4416 -0.0139 -0.0968
   24MOL   H155 7561   2.100   7.980   0.273  2.3404 -0.8736  1.5413
   24MOL   H156 7562   1.903   8.107   0.334  0.0275 -0.4121  0.5139
   24MOL   H157 7563   1.659   8.132   0.309  0.5314  0.4017  3.5944
   24MOL   H158 7564   1.628   7.699   0.284 -0.1634  0.8813 -0.1116
   24MOL   H159 7565   1.889   7.684   0.310  1.0058  0.6129 -0.1595
   24MOL   H160 7566   2.064   7.897   0.521 -1.0661 -1.5461 -0.5815
   24MOL   H161 7567   2.128   7.757   0.472 -0.6569 -0.2910 -0.9718
   24MOL   C162 7568   2.266   7.924   0.457  0.0354  0.4123  0.1927
   24MOL   C163 7569   2.251   8.060   0.520  0.0487 -0.0729 -0.2606
   24MOL   C164 7570   2.248   8.078   0.659  0.6883  0.0961 -0.1128
   24MOL   C165 7571   2.237   8.204   0.723  0.0877  0.3586  0.0536
   24MOL   C166 7572   2.224   8.317   0.639 -0.4440 -0.2080 -0.4901
   24MOL  Cl167 7573   2.207   0.025   0.716  0.5786  0.4169 -0.0682
   24MOL   C168 7574   2.224   8.311   0.501  0.1066 -0.0580  0.4516
   24MOL   C169 7575   2.239   8.185   0.438 -0.3002  0.1175  0.7124
   24MOL   C170 7576   2.356   7.823   0.536 -0.0644  0.3219  0.2992
   24MOL   H171 7577   2.318   7.950   0.364  1.4246 -2.0503  0.2411
   24MOL   H172 7578   2.264   7.999   0.731  0.4851  0.2674  0.1212
   24MOL   H173 7579   2.245   8.204   0.830  0.6180  0.0134  0.0189
   24MOL   H174 7580   2.205   8.398   0.440  0.6347 -0.3423 -0.1368
   24MOL   H175 7581   2.234   8.173   0.331  0.1471  2.8971  0.3547
   24MOL   H176 7582   2.440   7.873   0.583  0.6986 -0.5771 -0.1103
   24MOL   H177 7583   2.292   7.792   0.619 -3.0844 -0.7441 -2.3163
   24MOL   C178 7584   2.419   7.712   0.450  0.1045  0.3183 -0.3462
   24MOL   C179 7585   2.525   7.748   0.347  0.1993  0.1864  0.6033
   24MOL   C180 7586   2.638   7.825   0.374 -0.4435 -0.4615 -0.5538
   24MOL   C181 7587   2.732   7.850   0.272 -0.0656 -0.1062 -0.4738
   24MOL   C182 7588   2.713   7.801   0.143  0.7142  0.1869 -0.1644
   24MOL  Cl183 7589   2.825   7.833   0.013  0.1100  0.1959 -0.2616
   24MOL   C184 7590   2.610   7.710   0.120 -0.2555  0.0708  0.2162
   24MOL   C185 7591   2.514   7.689   0.219 -0.2339  0.8949 -0.0306
   24MOL   C186 7592   2.464   7.581   0.531 -0.4557  0.6045  0.4273
   24MOL   H187 7593   2.332   7.673   0.395  0.2914  0.2066 -0.5635
   24MOL   H188 7594   2.657   7.858   0.476 -3.0214 -1.5502  0.3211
   24MOL   H189 7595   2.821   7.906   0.295  0.2116 -0.4764 -0.6476
   24MOL   H190 7596   2.593   7.660   0.026 -0.8559 -2.6129  1.6862
   24MOL   H191 7597   2.434   7.619   0.199 -0.4888  1.1416  0.1163
   24MOL   H192 7598   2.387   7.545   0.600  1.3179 -0.9675  1.6663
   24MOL   H193 7599   2.477   7.510   0.449  0.8396 -0.1240  1.2516
   24MOL   C194 7600   2.589   7.581   0.619  0.2498 -0.6786  0.3169
   24MOL   C195 7601   2.564   7.656   0.749  0.1927  0.7857  0.0193
   24MOL   C196 7602   2.614   7.789   0.774  0.1396  0.4056  0.4677
   24MOL   C197 7603   2.593   7.859   0.891 -0.3760  0.0596  0.0376
   24MOL   C198 7604   2.508   7.801   0.989 -0.1337 -0.2878 -0.9194
   24MOL  Cl199 7605   2.488   7.870   1.146 -0.3824 -0.1067 -0.2610
   24MOL   C200 7606   2.454   7.668   0.966 -0.0921  0.2272 -0.3465
   24MOL   C201 7607   2.484   7.599   0.852 -0.8795 -0.5411  0.0511
   24MOL   C202 7608   2.645   7.436   0.641 -0.0268 -0.3537  0.6316
   24MOL   H203 7609   2.673   7.623   0.563  0.1548  0.8043  1.2650
   24MOL   H204 7610   2.672   7.829   0.692  0.8797 -0.3009  0.6346
   24MOL   H205 7611   2.654   7.948   0.905 -0.5737  0.4889 -1.7083
   24MOL   H206 7612   2.390   7.624   1.041 -0.1072  0.6133 -0.1331
   24MOL   H207 7613   2.452   7.496   0.848  0.4244 -0.8981 -2.5306
   24MOL   H208 7614   2.553   7.379   0.657  2.1413 -4.4464 -0.9790
   24MOL   H209 7615   2.675   7.376   0.555  2.8571 -0.7351  1.8732
   24MOL   C210 7616   2.748   7.423   0.758 -0.0848 -0.0603  0.2090
   24MOL   C211 7617   2.718   7.299   0.841  0.4954  0.6760  0.2488
   24MOL   C212 7618   2.711   7.176   0.774 -1.1110 -0.1443 -0.4907
   24MOL   C213 7619   2.679   7.061   0.847 -0.3523  0.5740 -0.1303
   24MOL   C214 7620   2.656   7.072   0.984  0.4624  0.2390  0.6971
   24MOL  Cl215 7621   2.616   6.924   1.058 -0.4467 -0.5156 -0.1124
   24MOL   C216 7622   2.655   7.193   1.052 -0.0125  0.5152  0.6618
   24MOL   C217 7623   2.693   7.310   0.983  0.0091  0.0179  0.1040
   24MOL   C218 7624   2.890   7.421   0.710 -0.6854  0.4989  0.1807
   24MOL   H219 7625   2.745   7.505   0.830  0.6365 -0.2148  0.4166
   24MOL   H220 7626   2.729   7.174   0.667  2.5440  1.9164 -0.0055
   24MOL   H221 7627   2.671   6.966   0.797 -0.9147 -0.0311  1.1015
   24MOL   H222 7628   2.640   7.189   1.159  0.5737 -0.7260  0.7145
   24MOL   H223 7629   2.716   7.403   1.033  1.5787  0.2228 -0.9573
   24MOL   H224 7630   2.967   7.428   0.788  0.7062 -2.5273 -0.8259
   24MOL   H225 7631   2.900   7.318   0.674 -0.4319  1.5846 -2.9664
   24MOL   C226 7632   2.947   7.516   0.599  0.2184 -1.1319  0.2585
   24MOL   C227 7633   2.955   7.665   0.641 -0.8827 -0.2158 -0.5553
   24MOL   C228 7634   2.940   7.761   0.540  0.1532  0.0531 -0.2176
   24MOL   C229 7635   2.932   7.897   0.573 -0.0347  0.1576 -0.1217
   24MOL   C230 7636   2.945   7.940   0.708  0.0009  0.1736 -0.4017
   24MOL  Cl231 7637   2.936   8.113   0.739  0.4709 -0.0039  0.1230
   24MOL   C232 7638   2.964   7.844   0.812  0.7683  0.1030 -0.6368
   24MOL   C233 7639   2.962   7.708   0.780  0.0740 -0.6792 -0.3169
   24MOL   C234 7640   3.082   7.468   0.555  0.6677 -0.0653 -0.2058
   24MOL   H235 7641   2.870   7.509   0.522 -0.4329  0.8405  0.6898
   24MOL   H236 7642   2.931   7.727   0.437  1.1349  0.4899 -0.4535
   24MOL   H237 7643   2.935   7.959   0.485  1.0633 -0.0870 -0.2695
   24MOL   H238 7644   2.960   7.873   0.916 -3.2018 -1.0840 -0.3851
   24MOL   H239 7645   2.959   7.641   0.865  1.5768 -0.1919  0.1450
   24MOL   H240 7646   3.130   7.551   0.502  1.1667  0.2490  0.7138
   24MOL   H241 7647   3.152   7.460   0.639  0.2491  0.3394  0.1907
   24MOL   C242 7648   3.085   7.340   0.463  0.4563  0.3528 -0.3679
   24MOL   C243 7649   2.987   7.340   0.354 -0.2793  0.4618  1.0732
   24MOL   C244 7650   2.986   7.448   0.264 -0.1968 -0.2830 -0.1134
   24MOL   C245 7651   2.884   7.469   0.166 -0.8485 -0.5373 -0.4925
   24MOL   C246 7652   2.780   7.372   0.157 -0.1998  0.5925 -0.0676
   24MOL  Cl247 7653   2.660   7.382   0.037  0.5315 -0.5380 -0.0112
   24MOL   C248 7654   2.773   7.271   0.254  0.3792 -0.4167 -0.5979
   24MOL   C249 7655   2.878   7.250   0.346 -0.4233 -1.1187 -0.0507
   24MOL   C250 7656   3.224   7.297   0.425 -0.2486  0.0980 -0.1212
   24MOL   H251 7657   3.051   7.265   0.535  0.9404 -1.3307 -1.8400
   24MOL   H252 7658   3.064   7.522   0.272  0.9913 -1.4335 -0.7814
   24MOL   H253 7659   2.890   7.554   0.100 -0.5637 -0.5336 -0.4650
   24MOL   H254 7660   2.689   7.204   0.241 -0.9952  0.8951  1.2641
   24MOL   H255 7661   2.883   7.164   0.411  2.7235 -1.1087 -0.2149
   24MOL   H256 7662   3.253   7.378   0.359 -1.7096  1.6334  1.0783
   24MOL   H257 7663   3.295   7.309   0.508 -0.4058  2.1292 -0.2543
   24MOL   C258 7664   3.240   7.156   0.361  0.1883  0.4046 -0.0524
   24MOL   C259 7665   3.241   7.163   0.208 -0.5301 -0.5164  0.5386
   24MOL   C260 7666   3.147   7.084   0.128  0.4657 -0.8890 -0.2561
   24MOL   C261 7667   3.149   7.087   8.437 -0.4800  0.2656 -0.4134
   24MOL   C262 7668   3.230   7.185   8.371 -0.1882  0.1138 -0.7169
   24MOL  Cl263 7669   3.243   7.173   8.200 -0.1801  0.0335  0.0575
   24MOL   C264 7670   3.322   7.256   0.000  0.5150  0.0314 -0.9509
   24MOL   C265 7671   3.328   7.255   0.141 -0.5875  0.6720 -0.0801
   24MOL   C266 7672   3.357   7.074   0.414 -0.3016  0.0469 -0.0812
   24MOL   H267 7673   3.145   7.107   0.378  0.2744  0.4080  0.4270
   24MOL   H268 7674   3.074   7.021   0.176  0.8804 -1.1403  0.0432
   24MOL   H269 7675   3.083   7.031   8.373  0.5154  0.2060 -1.4193
   24MOL   H270 7676   3.380   7.330   8.389 -0.1997  0.3360 -1.2964
   24MOL   H271 7677   3.391   7.325   0.193  0.3541 -0.6633  0.5825
   24MOL   H272 7678   3.374   6.980   0.361  0.1930 -0.4570  0.9531
   24MOL   H273 7679   3.453   7.125   0.408  0.8088 -1.4787  3.5994
   24MOL   C274 7680   3.339   7.032   0.559 -0.6957  0.6427 -0.0685
   24MOL   C275 7681   3.209   6.964   0.590 -0.7495  0.6238  0.3627
   24MOL   C276 7682   3.178   6.836   0.535 -0.4985  0.1662  0.3706
   24MOL   C277 7683   3.061   6.764   0.573  0.3395  0.0853  0.2958
   24MOL   C278 7684   2.970   6.827   0.657 -0.9998  0.2170  0.1051
   24MOL  Cl279 7685   2.814   6.780   0.687  0.1225 -0.2653  0.5249
   24MOL   C280 7686   3.001   6.950   0.720  0.4480 -0.2600  0.0205
   24MOL   C281 7687   3.117   7.016   0.686  0.7417  0.1236 -0.4749
   24MOL   C282 7688   3.460   6.950   0.604  0.1243 -0.0532  0.3878
   24MOL   H283 7689   3.340   7.130   0.608 -1.8857  0.8009 -0.3575
   24MOL   H284 7690   3.244   6.786   0.466  0.9238  0.8548  1.2090
   24MOL   H285 7691   3.036   6.662   0.548  0.8748  0.2733 -1.0370
   24MOL   H286 7692   2.940   7.009   0.787 -0.1389 -0.8307 -0.0072
   24MOL   H287 7693   3.140   7.112   0.728  0.5732  0.5152 -1.2600
   24MOL   H288 7694   3.466   6.850   0.562  3.6217 -0.0285  0.6884
   24MOL   H289 7695   3.556   6.993   0.574 -0.4366  0.3697 -0.7992
   24MOL   C290 7696   3.453   6.917   0.760  0.4725  0.1074  0.6068
   24MOL   C291 7697   3.468   6.770   0.795  0.7420 -0.2172 -1.1611
   24MOL   C292 7698   3.584   6.700   0.768  0.8000  0.7215 -0.2627
   24MOL   C293 7699   3.599   6.561   0.811  0.0947 -0.0772  0.4036
   24MOL   C294 7700   3.496   6.504   0.886 -0.5375 -0.5333  0.4312
   24MOL  Cl295 7701   3.524   6.357   0.965 -0.3224  0.2470  0.1577
   24MOL   C296 7702   3.377   6.573   0.906 -0.8019  0.4751  0.0345
   24MOL   C297 7703   3.367   6.708   0.868  0.3883  0.1085 -0.0132
   24MOL   C298 7704   3.557   6.996   0.838 -0.6497 -0.1646  0.5286
   24MOL   H299 7705   3.357   6.944   0.804 -0.9445 -0.9413 -1.7916
   24MOL   H300 7706   3.667   6.750   0.720  2.5936 -3.8184 -2.1813
   24MOL   H301 7707   3.686   6.505   0.780  1.0364  0.6195  1.7537
   24MOL   H302 7708   3.296   6.527   0.961  1.2127 -0.6749  2.1274
   24MOL   H303 7709   3.279   6.761   0.901 -0.6627 -0.4995 -1.8047
   24MOL   H304 7710   3.556   6.964   0.942  1.9254 -0.9464  0.3563
   24MOL   H305 7711   3.659   6.981   0.802 -0.3019 -0.7347  1.7326
   24MOL   C306 7712   3.545   7.151   0.840  0.0189 -0.0050 -0.5481
   24MOL   C307 7713   3.423   7.206   0.914  0.6258  0.2054 -0.2085
   24MOL   C308 7714   3.341   7.138   1.004 -1.2173 -0.0371  0.7726
   24MOL   C309 7715   3.221   7.193   1.053  0.6746 -0.2444 -0.3803
   24MOL   C310 7716   3.187   7.324   1.022  0.2098 -0.2908  0.2655
   24MOL  Cl311 7717   3.032   7.387   1.067  0.1580  0.4891  0.0952
   24MOL   C312 7718   3.272   7.395   0.939  0.5109  0.2457 -0.2198
   24MOL   C313 7719   3.382   7.338   0.880 -0.4425  0.8084 -0.1019
   24MOL   C314 7720   3.672   7.211   0.898  1.3452 -0.3788 -0.3927
   24MOL   H315 7721   3.534   7.176   0.734  0.2306 -1.6055 -0.9606
   24MOL   H316 7722   3.362   7.036   1.032 -0.0639  0.0101  0.1035
   24MOL   H317 7723   3.149   7.132   1.105  1.7250 -0.5092  0.7743
   24MOL   H318 7724   3.247   7.496   0.910 -3.0409 -0.3744  0.4802
   24MOL   H319 7725   3.452   7.395   0.820  1.4652 -1.8956 -0.5751
   24MOL   H320 7726   3.684   7.166   0.997 -0.7023  0.9351  0.5062
   24MOL   H321 7727   3.765   7.185   0.848  0.7850 -0.2502 -1.5127
   24MOL   H322 7728   3.655   7.318   0.914  0.3893 -0.6929  0.7560
   25MOL     C1 7729   5.877   5.772   7.849 -0.0887  0.5451  0.4852
   25MOL     C2 7730   5.991   5.810   7.942  0.5545  0.1812  0.6914
   25MOL     C3 7731   6.002   5.948   7.989 -0.6160 -0.1238 -0.0253
   25MOL     C4 7732   6.113   5.981   8.071 -0.1030  0.5558 -0.3721
   25MOL     C5 7733   6.212   5.886   8.111  0.4500  0.7559 -0.5173
   25MOL    Cl6 7734   6.354   5.954   8.183  0.1943 -0.1582 -0.1086
   25MOL     C7 7735   6.192   5.753   8.077  0.0843 -0.1352  0.7494
   25MOL     C8 7736   6.087   5.716   7.985  0.8046  0.1906 -0.3755
   25MOL     C9 7737   5.922   5.709   7.715  0.7129 -0.3738  0.3557
   25MOL    H10 7738   5.820   5.859   7.818 -0.4367 -0.0898 -0.6968
   25MOL    H11 7739   5.929   6.022   7.959 -0.3131  0.1028 -0.2086
   25MOL    H12 7740   6.128   6.084   8.098  1.0781  0.1346  0.6032
   25MOL    H13 7741   6.256   5.675   8.116 -0.2999  0.2649  2.2189
   25MOL    H14 7742   6.071   5.614   7.954  0.2278  0.2791 -0.3586
   25MOL    H15 7743   5.974   5.793   7.669  1.7278 -1.6231 -0.7959
   25MOL    H16 7744   5.992   5.626   7.726  0.6510 -0.3105  1.2602
   25MOL    H17 7745   5.813   5.700   7.900 -1.4707  0.7903 -0.8535
   25MOL    C18 7746   5.811   5.656   7.621 -0.1840  0.7999 -0.2013
   25MOL    C19 7747   5.710   5.762   7.593  0.0919 -0.1798  0.3087
   25MOL    C20 7748   5.582   5.721   7.622  0.4426 -0.1705  0.2821
   25MOL    C21 7749   5.476   5.817   7.608  0.0717  0.0882  0.5060
   25MOL    C22 7750   5.507   5.950   7.565  0.4412 -0.1365 -0.4288
   25MOL   Cl23 7751   5.375   6.061   7.549  0.2657  0.4769  0.1326
   25MOL    C24 7752   5.642   5.982   7.537 -0.3570 -0.2256  0.1123
   25MOL    C25 7753   5.745   5.894   7.544  0.4545  0.9457  0.2697
   25MOL    C26 7754   5.864   5.603   7.482  0.2758  0.5597  0.0255
   25MOL    H27 7755   5.761   5.571   7.668 -2.1182  1.5072 -0.9401
   25MOL    H28 7756   5.554   5.622   7.655 -1.9797  0.2721 -0.3362
   25MOL    H29 7757   5.375   5.780   7.623 -0.2725  1.2861  1.2165
   25MOL    H30 7758   5.650   6.081   7.495 -1.0424 -1.2030 -2.3970
   25MOL    H31 7759   5.840   5.919   7.499 -0.1902  0.3435 -1.4598
   25MOL    H32 7760   5.779   5.600   7.414 -0.0603  0.4630  0.4450
   25MOL    H33 7761   5.914   5.694   7.450  0.3360  0.1773 -0.9720
   25MOL    C34 7762   5.947   5.474   7.480 -0.5657  0.1031  0.0519
   25MOL    C35 7763   5.854   5.347   7.473  0.0527  0.1070 -0.3885
   25MOL    C36 7764   5.859   5.257   7.580  0.1411  0.1322  0.5104
   25MOL    C37 7765   5.780   5.140   7.581  0.0464 -0.0369  0.1489
   25MOL    C38 7766   5.695   5.116   7.471  0.5154 -0.1930  0.2282
   25MOL   Cl39 7767   5.609   4.967   7.461  0.3540  0.0830 -0.0985
   25MOL    C40 7768   5.688   5.206   7.363  0.1989 -0.2051  0.0532
   25MOL    C41 7769   5.766   5.319   7.363 -0.4375 -0.0163  0.4882
   25MOL    C42 7770   6.051   5.478   7.360 -0.0319 -0.1039  0.6891
   25MOL    H43 7771   6.008   5.470   7.571  0.9924 -1.9110 -1.0465
   25MOL    H44 7772   5.918   5.287   7.665  0.1347  2.0566 -0.1375
   25MOL    H45 7773   5.778   5.074   7.667 -3.4748  0.6347  0.6580
   25MOL    H46 7774   5.629   5.182   7.276  1.3166  1.0274 -1.0733
   25MOL    H47 7775   5.762   5.388   7.280  0.5008 -0.3158  0.1811
   25MOL    H48 7776   6.092   5.381   7.333  5.5082  2.6484 -1.6101
   25MOL    H49 7777   5.996   5.515   7.274 -3.2936 -1.0736  2.2659
   25MOL    C50 7778   6.173   5.564   7.392 -0.0167  0.2561 -0.0991
   25MOL    C51 7779   6.286   5.474   7.431 -0.4125  0.3401  0.6433
   25MOL    C52 7780   6.395   5.448   7.345 -0.3673 -0.1373  0.3457
   25MOL    C53 7781   6.509   5.375   7.386  0.9724 -0.4095  0.2313
   25MOL    C54 7782   6.512   5.325   7.517 -0.0627  0.2180  1.0127
   25MOL   Cl55 7783   6.656   5.237   7.562  0.1960  0.3551 -0.0218
   25MOL    C56 7784   6.402   5.336   7.603  0.1111 -0.2730  0.9296
   25MOL    C57 7785   6.295   5.427   7.568  0.8634  0.5831 -0.0353
   25MOL    C58 7786   6.202   5.658   7.272 -0.3294 -0.0477  0.3063
   25MOL    H59 7787   6.141   5.626   7.475 -1.6472 -0.9228  0.1797
   25MOL    H60 7788   6.395   5.496   7.248 -1.9030  0.7309  0.7718
   25MOL    H61 7789   6.587   5.366   7.312  0.4674 -0.3462 -0.3080
   25MOL    H62 7790   6.412   5.300   7.704  0.4775 -1.1255  0.5956
   25MOL    H63 7791   6.221   5.456   7.641 -1.0890 -2.1934 -0.8200
   25MOL    H64 7792   6.234   5.610   7.179 -2.0332  1.1071 -0.9049
   25MOL    H65 7793   6.110   5.695   7.225  0.0466  0.1746 -0.2560
   25MOL    C66 7794   6.308   5.767   7.295  0.4274 -0.0516 -0.0902
   25MOL    C67 7795   6.311   5.855   7.164 -0.6525  1.0892 -0.8963
   25MOL    C68 7796   6.196   5.927   7.120  0.4095  0.2111  0.2702
   25MOL    C69 7797   6.206   6.012   7.004 -0.8804  0.5819  0.0381
   25MOL    C70 7798   6.329   6.024   6.936 -1.5107 -0.6399  0.2752
   25MOL   Cl71 7799   6.337   6.132   6.801  0.7928 -0.3494  0.3332
   25MOL    C72 7800   6.443   5.962   6.987 -0.0169  0.1290  0.1918
   25MOL    C73 7801   6.435   5.873   7.095 -0.1263  0.7936  0.3108
   25MOL    C74 7802   6.277   5.859   7.417  0.4237 -0.0432  0.0903
   25MOL    H75 7803   6.405   5.722   7.315  0.0774  0.0057  1.8094
   25MOL    H76 7804   6.107   5.914   7.180  0.3538 -0.3758  0.0666
   25MOL    H77 7805   6.116   6.057   6.965 -1.0979  0.4449  0.3803
   25MOL    H78 7806   6.542   5.976   6.946  0.7067 -0.3286  1.7271
   25MOL    H79 7807   6.527   5.828   7.128  0.3488  0.4752 -1.4431
   25MOL    H80 7808   6.308   5.958   7.385 -1.2308  1.4494  2.9621
   25MOL    H81 7809   6.169   5.872   7.425  0.3501 -1.7765  2.3742
   25MOL    C82 7810   6.338   5.822   7.560  0.4142 -0.7986 -0.3044
   25MOL    C83 7811   6.490   5.805   7.557  0.2065  0.1555 -0.1166
   25MOL    C84 7812   6.547   5.707   7.647  0.7970 -0.4071  0.8284
   25MOL    C85 7813   6.686   5.680   7.654  0.1003  0.1435  0.1135
   25MOL    C86 7814   6.770   5.733   7.555  0.4260  0.1842 -0.5490
   25MOL   Cl87 7815   6.931   5.675   7.535  0.2553  0.0788  0.8293
   25MOL    C88 7816   6.717   5.822   7.460  1.3768 -0.0743  0.3944
   25MOL    C89 7817   6.580   5.861   7.461 -0.3495 -0.3320 -0.0484
   25MOL    C90 7818   6.293   5.920   7.673  0.1713  0.2300  0.3438
   25MOL    H91 7819   6.313   5.719   7.581  0.7228 -0.7739  0.2105
   25MOL    H92 7820   6.487   5.651   7.717  2.3324 -1.7691  1.0653
   25MOL    H93 7821   6.721   5.600   7.718  0.5579  0.6544  0.5035
   25MOL    H94 7822   6.788   5.854   7.386 -0.2466  0.2465 -1.0567
   25MOL    H95 7823   6.544   5.941   7.397  0.9327  1.0853  0.9724
   25MOL    H96 7824   6.185   5.904   7.677  0.5287 -2.4786  0.0436
   25MOL    H97 7825   6.336   5.882   7.766 -1.3888  1.3264  1.5403
   25MOL    C98 7826   6.335   6.068   7.668 -0.1300 -0.4517  0.1349
   25MOL    C99 7827   6.277   6.136   7.550  0.3134  0.4796  0.7504
   25MOL   C100 7828   6.357   6.213   7.457 -0.7759  0.3219  1.0626
   25MOL   C101 7829   6.292   6.277   7.347  0.3440 -0.1977  0.9397
   25MOL   C102 7830   6.161   6.245   7.313  0.5509  0.4241  0.0015
   25MOL  Cl103 7831   6.089   6.321   7.173  0.3019  0.0345 -0.2605
   25MOL   C104 7832   6.082   6.173   7.403 -0.1943 -0.3612  0.6925
   25MOL   C105 7833   6.139   6.121   7.522  0.0601 -0.3423 -0.2854
   25MOL   C106 7834   6.283   6.148   7.798  0.0639  0.0203 -0.6496
   25MOL   H107 7835   6.444   6.073   7.662 -0.0264  1.1728  2.5982
   25MOL   H108 7836   6.461   6.223   7.482 -0.8140  1.5095  0.7845
   25MOL   H109 7837   6.348   6.344   7.283  2.3846 -0.9488  1.8841
   25MOL   H110 7838   5.979   6.162   7.372 -0.3797  2.9272 -0.0663
   25MOL   H111 7839   6.071   6.070   7.588 -2.1088  0.5756 -1.7506
   25MOL   H112 7840   6.176   6.149   7.777 -0.0529  2.0168 -0.0723
   25MOL   H113 7841   6.310   6.098   7.891 -2.2501  0.2411  0.1693
   25MOL   C114 7842   6.322   6.292   7.808 -0.4912  0.5188  0.6136
   25MOL   C115 7843   6.243   6.363   7.925 -0.0606  0.3447  0.2942
   25MOL   C116 7844   6.271   6.340   8.056  0.6865 -0.2864  0.1756
   25MOL   C117 7845   6.202   6.412   8.156  0.0835  0.0618 -0.3162
   25MOL   C118 7846   6.102   6.508   8.121 -0.0185  0.1912 -0.9551
   25MOL  Cl119 7847   6.019   6.598   8.243 -0.2387 -0.0569  0.3422
   25MOL   C120 7848   6.076   6.536   7.985  0.0920  0.1168  0.6730
   25MOL   C121 7849   6.142   6.456   7.889  0.3603 -0.2473  0.3252
   25MOL   C122 7850   6.472   6.309   7.830 -0.1571  0.2806  0.1682
   25MOL   H123 7851   6.300   6.341   7.713  0.9496  1.0629  0.5522
   25MOL   H124 7852   6.342   6.267   8.092  0.9543  0.2814  0.8069
   25MOL   H125 7853   6.229   6.395   8.259 -1.3279 -0.8558 -0.0902
   25MOL   H126 7854   6.013   6.618   7.954  2.6347  1.0521 -2.4017
   25MOL   H127 7855   6.118   6.479   7.786 -0.6712  0.2213  0.6682
   25MOL   H128 7856   6.488   6.258   7.925  0.0904  1.8860  0.9902
   25MOL   H129 7857   6.536   6.262   7.755 -0.8324 -1.5954  0.7217
   25MOL   C130 7858   6.517   6.460   7.845 -0.5889 -0.2566 -0.3199
   25MOL   C131 7859   6.640   6.474   7.930 -0.3980 -0.6104 -0.0583
   25MOL   C132 7860   6.730   6.369   7.945  0.0165  0.9714 -0.5391
   25MOL   C133 7861   6.828   6.385   8.039  0.6753  0.2894 -0.1824
   25MOL   C134 7862   6.845   6.506   8.108  0.0019 -1.6687  0.3474
   25MOL  Cl135 7863   6.973   6.515   8.221 -0.2698 -0.0614  0.4844
   25MOL   C136 7864   6.761   6.617   8.083  0.1227  0.2200 -0.6760
   25MOL   C137 7865   6.656   6.598   7.987 -0.1617  0.3527  0.1344
   25MOL   C138 7866   6.529   6.525   7.709 -0.4555 -0.4654  0.2891
   25MOL   H139 7867   6.439   6.513   7.900 -0.5569 -0.2769 -0.2551
   25MOL   H140 7868   6.707   6.273   7.903 -1.1616  0.6108  0.9016
   25MOL   H141 7869   6.884   6.300   8.075  0.3532  1.0763  2.3171
   25MOL   H142 7870   6.775   6.715   8.126 -0.0805 -0.2753  0.5207
   25MOL   H143 7871   6.593   6.685   7.970  0.2901  0.5509 -0.5200
   25MOL   H144 7872   6.613   6.595   7.712 -1.8587  1.3559 -1.6160
   25MOL   H145 7873   6.569   6.451   7.639  0.5451 -1.4489  1.8809
   25MOL   C146 7874   6.406   6.620   7.674  0.1411 -0.3110 -0.6019
   25MOL   C147 7875   6.424   6.758   7.747 -0.3979  0.0775  0.6161
   25MOL   C148 7876   6.519   6.859   7.710  0.0353 -0.2041 -0.2038
   25MOL   C149 7877   6.541   6.971   7.796  0.3817 -0.3241 -0.0560
   25MOL   C150 7878   6.444   6.998   7.895  0.1771  0.9519 -0.2675
   25MOL  Cl151 7879   6.453   7.142   7.996 -0.2514  0.0415 -0.2531
   25MOL   C152 7880   6.340   6.903   7.919  0.1343 -0.9823  0.2876
   25MOL   C153 7881   6.337   6.778   7.854  0.0725  0.2362 -0.4993
   25MOL   C154 7882   6.399   6.624   7.518 -0.6361  0.8590 -0.5338
   25MOL   H155 7883   6.315   6.572   7.708 -0.8461  2.1410  0.3047
   25MOL   H156 7884   6.590   6.840   7.630 -0.5390  1.2493 -1.0701
   25MOL   H157 7885   6.621   7.036   7.763 -0.6608  0.8323 -0.3604
   25MOL   H158 7886   6.286   6.932   8.008  2.4652  0.3187  1.3196
   25MOL   H159 7887   6.269   6.701   7.888 -1.0996  1.9724  1.2430
   25MOL   H160 7888   6.488   6.671   7.477  0.5471 -0.5930  0.3185
   25MOL   H161 7889   6.408   6.522   7.480  1.7318  0.8163  0.0893
   25MOL   C162 7890   6.269   6.690   7.467 -0.2119 -0.1313  0.3193
   25MOL   C163 7891   6.283   6.755   7.325  0.3265  0.0763  0.2962
   25MOL   C164 7892   6.307   6.896   7.314  0.4991 -0.3945 -0.2513
   25MOL   C165 7893   6.336   6.954   7.191 -0.4684  0.3272 -0.5315
   25MOL   C166 7894   6.344   6.876   7.076 -0.4350  0.8447  0.0210
   25MOL  Cl167 7895   6.377   6.949   6.917 -0.1754  0.2604  0.1724
   25MOL   C168 7896   6.318   6.743   7.087 -0.0542 -0.5931  0.1779
   25MOL   C169 7897   6.276   6.680   7.207 -0.1817  0.0477 -0.5529
   25MOL   C170 7898   6.141   6.609   7.478 -0.0584  0.6085  0.0510
   25MOL   H171 7899   6.255   6.768   7.541  0.8449  0.4961 -0.1274
   25MOL   H172 7900   6.317   6.957   7.403  0.7518 -0.6569 -0.0999
   25MOL   H173 7901   6.351   7.061   7.185 -2.9024  0.5763 -3.1416
   25MOL   H174 7902   6.322   6.679   7.000  0.8748 -1.0688  0.5632
   25MOL   H175 7903   6.250   6.575   7.210  0.1748 -0.0840 -1.7388
   25MOL   H176 7904   6.125   6.546   7.390 -1.4811  2.0954 -0.7814
   25MOL   H177 7905   6.137   6.552   7.571 -0.9836  0.1870 -0.2400
   25MOL   C178 7906   6.000   6.672   7.475 -0.1585 -0.2370  0.2394
   25MOL   C179 7907   5.958   6.754   7.595 -0.2506 -0.6488  0.2522
   25MOL   C180 7908   6.016   6.878   7.616 -0.0073  0.5691 -0.3143
   25MOL   C181 7909   5.993   6.952   7.732 -0.5863 -0.4794  0.2561
   25MOL   C182 7910   5.898   6.906   7.824  0.4454 -0.3102 -0.0443
   25MOL  Cl183 7911   5.865   6.998   7.964 -0.2465  0.1645 -0.2938
   25MOL   C184 7912   5.843   6.775   7.809 -0.4239 -0.5753  0.4889
   25MOL   C185 7913   5.886   6.701   7.696  0.3122  0.1988 -0.3745
   25MOL   C186 7914   5.967   6.747   7.344  0.0927 -0.6458  0.7155
   25MOL   H187 7915   5.937   6.583   7.484 -1.1420  0.7133  3.2635
   25MOL   H188 7916   6.081   6.923   7.542 -0.0945  1.0182 -0.1172
   25MOL   H189 7917   6.035   7.050   7.753 -0.9703 -0.7030  2.1458
   25MOL   H190 7918   5.777   6.720   7.874 -0.3102 -0.2492  0.8800
   25MOL   H191 7919   5.843   6.602   7.691  1.0895 -0.1817  0.4843
   25MOL   H192 7920   6.031   6.835   7.337  2.0560 -2.2083 -2.8576
   25MOL   H193 7921   5.986   6.691   7.252 -1.3970 -2.1574  1.2992
   25MOL   C194 7922   5.825   6.802   7.317  0.6182 -0.7447 -0.5289
   25MOL   C195 7923   5.830   6.911   7.211  0.2969  0.1392  0.2325
   25MOL   C196 7924   5.768   7.037   7.233 -0.5789  0.3741 -0.2641
   25MOL   C197 7925   5.754   7.125   7.126  0.3954  0.0379  0.6631
   25MOL   C198 7926   5.813   7.107   7.003 -0.2676 -0.4529 -0.1604
   25MOL  Cl199 7927   5.826   7.235   6.889  0.2429  0.1053  0.2862
   25MOL   C200 7928   5.886   6.986   6.986 -0.9755 -0.4522 -0.2512
   25MOL   C201 7929   5.889   6.881   7.085 -0.0004 -0.4561 -0.4537
   25MOL   C202 7930   5.709   6.704   7.293  0.4056  0.2421 -0.5812
   25MOL   H203 7931   5.801   6.856   7.408 -0.9860 -2.6464  0.2138
   25MOL   H204 7932   5.724   7.056   7.330 -0.8018 -0.5745 -0.1659
   25MOL   H205 7933   5.707   7.220   7.149  1.1842  1.0510 -1.7572
   25MOL   H206 7934   5.940   6.968   6.894 -0.1227 -3.9629  0.8676
   25MOL   H207 7935   5.925   6.781   7.064 -0.6399 -0.8833  0.4744
   25MOL   H208 7936   5.653   6.756   7.216  0.4715  0.3201 -0.5769
   25MOL   H209 7937   5.738   6.614   7.238  0.9414 -0.9195  1.5466
   25MOL   C210 7938   5.610   6.685   7.410 -0.3560  0.4360 -0.5549
   25MOL   C211 7939   5.548   6.820   7.449 -0.6251  0.6511 -1.3039
   25MOL   C212 7940   5.464   6.891   7.357  0.2796  0.0619  0.0598
   25MOL   C213 7941   5.422   7.026   7.393 -0.3363  0.7927  0.2854
   25MOL   C214 7942   5.468   7.082   7.516  0.0562  0.4081 -0.1448
   25MOL  Cl215 7943   5.416   7.237   7.571 -0.4681  0.2322 -0.2901
   25MOL   C216 7944   5.560   7.013   7.602  0.5576 -0.7372 -0.2318
   25MOL   C217 7945   5.592   6.883   7.568 -0.2721  0.3009  0.2151
   25MOL   C218 7946   5.500   6.569   7.388 -0.1666 -0.3903 -0.8870
   25MOL   H219 7947   5.663   6.646   7.498  1.4244 -1.1290 -2.2745
   25MOL   H220 7948   5.438   6.848   7.262  1.7754 -0.2177 -0.2372
   25MOL   H221 7949   5.354   7.077   7.327 -2.2098 -0.0776  1.4982
   25MOL   H222 7950   5.579   7.049   7.702 -0.0524  0.6230 -0.5968
   25MOL   H223 7951   5.648   6.819   7.635 -1.4618 -1.1663 -0.1803
   25MOL   H224 7952   5.433   6.563   7.473  2.7754 -1.9344  1.4500
   25MOL   H225 7953   5.432   6.593   7.307  0.0549 -1.0988 -1.2847
   25MOL   C226 7954   5.564   6.430   7.368  0.1356 -0.2322  0.1607
   25MOL   C227 7955   5.638   6.376   7.491 -0.9442  0.2126 -0.1325
   25MOL   C228 7956   5.569   6.361   7.613  0.0947 -0.8338 -0.1484
   25MOL   C229 7957   5.636   6.318   7.730  0.4629 -0.1131  0.2832
   25MOL   C230 7958   5.773   6.299   7.723  0.2748 -0.1826  0.3735
   25MOL  Cl231 7959   5.848   6.267   7.873  0.1493 -0.1590  0.2186
   25MOL   C232 7960   5.845   6.319   7.603 -0.5854 -0.5976  0.3095
   25MOL   C233 7961   5.777   6.351   7.484 -0.3475 -0.3410  0.7404
   25MOL   C234 7962   5.450   6.329   7.320 -0.2987 -1.0092  0.1879
   25MOL   H235 7963   5.637   6.424   7.287 -0.5907 -1.4935 -0.4125
   25MOL   H236 7964   5.462   6.372   7.616  0.2730  0.7917  1.7978
   25MOL   H237 7965   5.575   6.309   7.818 -2.7485 -0.0305 -1.8286
   25MOL   H238 7966   5.952   6.304   7.598 -0.2522  1.6193  0.0661
   25MOL   H239 7967   5.829   6.348   7.389 -1.5848  1.7157 -0.0415
   25MOL   H240 7968   5.451   6.245   7.390  1.6105 -1.7308 -0.6629
   25MOL   H241 7969   5.351   6.372   7.335  0.8776  2.1460 -0.6848
   25MOL   C242 7970   5.465   6.290   7.167 -0.0293 -0.1655 -0.7653
   25MOL   C243 7971   5.574   6.179   7.163  0.1711  0.1710  0.1944
   25MOL   C244 7972   5.540   6.053   7.222 -0.3085  0.5975  0.5961
   25MOL   C245 7973   5.634   5.943   7.215  1.1348  0.1363 -0.5377
   25MOL   C246 7974   5.759   5.964   7.159 -0.2801 -0.2056 -0.5035
   25MOL  Cl247 7975   5.871   5.845   7.154 -0.1541  0.0685 -0.0471
   25MOL   C248 7976   5.793   6.087   7.103  0.6394 -0.4618 -0.0190
   25MOL   C249 7977   5.701   6.196   7.099  0.6929  0.6915  0.0450
   25MOL   C250 7978   5.328   6.251   7.105 -0.0683 -0.4692 -0.0167
   25MOL   H251 7979   5.504   6.381   7.121 -0.9880  0.0071 -1.2605
   25MOL   H252 7980   5.446   6.040   7.274  0.8507  0.1033  2.6497
   25MOL   H253 7981   5.604   5.847   7.255  1.8660 -1.3427 -3.3718
   25MOL   H254 7982   5.886   6.104   7.052  0.3435  0.2223 -0.3432
   25MOL   H255 7983   5.724   6.281   7.036 -2.5938  0.3322 -1.7352
   25MOL   H256 7984   5.290   6.166   7.162  1.0570 -0.3860  0.8663
   25MOL   H257 7985   5.256   6.332   7.115  1.5635  0.7428  2.1716
   25MOL   C258 7986   5.324   6.214   6.953  0.1371 -0.0040  0.2146
   25MOL   C259 7987   5.194   6.162   6.890  0.3086  0.2185 -0.2822
   25MOL   C260 7988   5.184   6.130   6.751  0.3061 -0.1955 -0.4601
   25MOL   C261 7989   5.071   6.078   6.694  0.1037 -0.3008  1.0233
   25MOL   C262 7990   4.955   6.062   6.772  0.3782  0.0821 -0.4435
   25MOL  Cl263 7991   4.813   6.002   6.700  0.3601  0.0792  0.1410
   25MOL   C264 7992   4.963   6.098   6.911 -1.0843  0.3445 -0.4399
   25MOL   C265 7993   5.081   6.157   6.972  0.0358 -0.1241 -0.1047
   25MOL   C266 7994   5.386   6.328   6.865 -0.6146 -0.4067 -0.2242
   25MOL   H267 7995   5.385   6.124   6.947  1.0114  0.7637 -3.3786
   25MOL   H268 7996   5.274   6.136   6.692  2.0593 -1.8418  1.9679
   25MOL   H269 7997   5.063   6.044   6.592  1.4092  2.2196  0.0366
   25MOL   H270 7998   4.876   6.089   6.975 -1.0242 -0.5633 -0.4832
   25MOL   H271 7999   5.076   6.184   7.077  1.5416  0.0923 -0.0685
   25MOL   H272 8000   5.488   6.341   6.903  0.0401  0.4738 -2.2073
   25MOL   H273 8001   5.406   6.308   6.760  2.4508  0.4778  0.1341
   25MOL   C274 8002   5.337   6.475   6.888  0.4474 -0.0847 -0.6096
   25MOL   C275 8003   5.438   6.581   6.846  0.0923 -0.6077  0.1699
   25MOL   C276 8004   5.485   6.673   6.943 -0.1734 -0.0071 -0.5888
   25MOL   C277 8005   5.576   6.772   6.903 -0.3923  0.3701 -0.3088
   25MOL   C278 8006   5.624   6.779   6.769 -0.6890  0.4970 -0.7510
   25MOL  Cl279 8007   5.741   6.903   6.720  0.3398 -0.3347  0.2684
   25MOL   C280 8008   5.578   6.690   6.674  1.2173  0.4857  0.7409
   25MOL   C281 8009   5.489   6.587   6.715  0.6321 -0.1334  0.4010
   25MOL   C282 8010   5.199   6.511   6.819 -0.0136  0.2535 -0.0048
   25MOL   H283 8011   5.326   6.492   6.996  0.0714 -2.6833 -0.2050
   25MOL   H284 8012   5.455   6.657   7.046 -2.2022  1.2894 -0.9608
   25MOL   H285 8013   5.614   6.844   6.974  0.6521 -1.6815  1.2735
   25MOL   H286 8014   5.612   6.705   6.572 -0.3540  0.7841  0.2429
   25MOL   H287 8015   5.460   6.514   6.640 -0.7883 -0.4163  1.2169
   25MOL   H288 8016   5.203   6.606   6.766 -1.0040 -0.1505 -0.8240
   25MOL   H289 8017   5.182   6.441   6.737 -1.7968  0.4087  0.2228
   25MOL   C290 8018   5.074   6.508   6.909 -0.8368  0.2357 -0.6095
   25MOL   C291 8019   5.087   6.600   7.023 -0.1507  0.4022 -0.1538
   25MOL   C292 8020   5.126   6.733   6.998 -0.0113 -0.5815  0.0909
   25MOL   C293 8021   5.114   6.833   7.098  0.3743 -0.1719 -0.0471
   25MOL   C294 8022   5.089   6.804   7.231  0.4186  0.2225  0.2267
   25MOL  Cl295 8023   5.102   6.914   7.364  0.2740  0.2402 -0.6190
   25MOL   C296 8024   5.052   6.667   7.260 -0.2620 -0.4377 -0.5374
   25MOL   C297 8025   5.047   6.564   7.156 -0.8430  0.7370 -0.1261
   25MOL   C298 8026   4.948   6.539   6.827 -0.4095  0.1030  0.1469
   25MOL   H299 8027   5.073   6.408   6.953  0.6028  0.9537  1.0799
   25MOL   H300 8028   5.141   6.765   6.896 -1.2519 -0.0298  0.0669
   25MOL   H301 8029   5.147   6.934   7.080 -1.2214  0.3538 -0.0551
   25MOL   H302 8030   5.026   6.643   7.362 -1.7506 -0.6391 -0.9593
   25MOL   H303 8031   5.004   6.468   7.178  0.5858  0.3495  1.0510
   25MOL   H304 8032   4.962   6.638   6.785 -0.0532  0.2166  0.5274
   25MOL   H305 8033   4.943   6.471   6.742 -2.5237  1.8309 -1.1780
   25MOL   C306 8034   4.818   6.539   6.913  0.4097  0.6165 -0.1438
   25MOL   C307 8035   4.718   6.631   6.841 -0.0622 -0.1217 -0.0208
   25MOL   C308 8036   4.686   6.601   6.706  0.0046 -0.5609 -0.0131
   25MOL   C309 8037   4.600   6.689   6.633 -0.6651  0.3320  0.7349
   25MOL   C310 8038   4.544   6.803   6.703 -0.1891  0.5773  0.2901
   25MOL  Cl311 8039   4.411   6.889   6.635 -0.0219  0.5600  0.0083
   25MOL   C312 8040   4.584   6.830   6.831  0.1423  0.1378  0.2656
   25MOL   C313 8041   4.670   6.744   6.904 -0.9537 -0.5867 -0.1098
   25MOL   C314 8042   4.758   6.396   6.933 -0.2957  0.2437  0.0460
   25MOL   H315 8043   4.826   6.587   7.010  0.9060 -0.0873  0.1611
   25MOL   H316 8044   4.726   6.517   6.651  0.1880  0.1632 -0.9915
   25MOL   H317 8045   4.577   6.661   6.531  1.3185  1.1004  0.0366
   25MOL   H318 8046   4.547   6.923   6.871  1.3679  0.7387  0.0222
   25MOL   H319 8047   4.695   6.765   7.007  0.0520 -1.7647 -0.1103
   25MOL   H320 8048   4.661   6.405   6.981  1.1380  1.7484  2.7658
   25MOL   H321 8049   4.736   6.347   6.838 -0.6818 -1.2728  0.9004
   25MOL   H322 8050   4.823   6.328   6.987  1.9659  0.9311 -1.7390
   26MOL     C1 8051   4.715   3.170   8.121 -0.0505 -0.2463 -0.1620
   26MOL     C2 8052   4.575   3.145   8.069 -0.0078 -0.4866 -0.5017
   26MOL     C3 8053   4.532   3.138   7.935  0.1979  0.0350 -0.0167
   26MOL     C4 8054   4.401   3.118   7.898 -0.3269  0.0493 -0.2602
   26MOL     C5 8055   4.301   3.114   7.992  0.6297  0.8235  0.3913
   26MOL    Cl6 8056   4.141   3.087   7.943 -0.1030 -0.1147  0.4994
   26MOL     C7 8057   4.340   3.116   8.129 -0.1153 -0.3764  0.1295
   26MOL     C8 8058   4.479   3.135   8.163  0.0893 -0.2939 -0.1117
   26MOL     C9 8059   4.771   3.055   8.211  0.6712 -0.4393 -0.0494
   26MOL    H10 8060   4.734   3.271   8.157 -1.6550 -0.4595  1.3640
   26MOL    H11 8061   4.608   3.150   7.859 -1.5619  1.4158 -1.5945
   26MOL    H12 8062   4.381   3.096   7.794 -1.9609 -0.4061  0.1396
   26MOL    H13 8063   4.264   3.115   8.205  1.1533 -0.7916  1.4113
   26MOL    H14 8064   4.510   3.163   8.263  1.6641 -1.5948 -0.2084
   26MOL    H15 8065   4.723   3.064   8.308 -3.2750 -2.1398 -1.7101
   26MOL    H16 8066   4.748   2.955   8.174  2.1337 -0.8051 -0.0173
   26MOL    H17 8067   4.772   3.177   8.029  0.0789  0.8964 -0.0035
   26MOL    C18 8068   4.926   3.069   8.231 -0.2365 -0.8063 -0.3345
   26MOL    C19 8069   4.965   3.195   8.315  0.1207  0.3248  0.3566
   26MOL    C20 8070   4.876   3.274   8.392 -0.5599 -0.0095  0.4435
   26MOL    C21 8071   4.918   3.382   0.022 -0.7581  0.5124 -0.3629
   26MOL    C22 8072   5.048   3.425   0.020  0.1018 -0.0012  0.1707
   26MOL   Cl23 8073   5.095   3.571   0.099 -0.4680  0.1284 -0.3865
   26MOL    C24 8074   5.146   3.353   8.383 -0.3298  0.2458  0.5600
   26MOL    C25 8075   5.101   3.236   8.313  0.8051 -0.2137  0.9567
   26MOL    C26 8076   4.990   2.946   8.296 -0.1180  0.2258  0.0379
   26MOL    H27 8077   4.972   3.087   8.133 -0.9048 -3.2403 -1.1428
   26MOL    H28 8078   4.770   3.255   8.387  0.0151 -3.0489 -1.5176
   26MOL    H29 8079   4.841   3.423   0.086  0.2308  1.5780  0.1610
   26MOL    H30 8080   5.250   3.380   8.394 -0.4822  0.1617  2.3871
   26MOL    H31 8081   5.165   3.171   8.255 -1.5297 -1.4202 -0.3817
   26MOL    H32 8082   5.098   2.950   8.284 -0.3173 -1.1714 -2.5817
   26MOL    H33 8083   4.975   2.934   8.403  2.9562 -1.2257  0.3588
   26MOL    C34 8084   4.977   2.817   8.226  0.0549  0.5183 -0.2134
   26MOL    C35 8085   5.037   2.817   8.085 -1.4936  0.5778 -0.1867
   26MOL    C36 8086   4.958   2.817   7.966 -0.5052  0.5640 -1.1622
   26MOL    C37 8087   5.020   2.819   7.835 -0.5892 -0.2005  1.0072
   26MOL    C38 8088   5.158   2.812   7.827 -0.1490  0.7053 -0.5615
   26MOL   Cl39 8089   5.223   2.796   7.672  0.3326 -0.2489 -0.2193
   26MOL    C40 8090   5.239   2.814   7.941 -0.0057  0.3071  0.3110
   26MOL    C41 8091   5.177   2.822   8.072 -0.0177 -0.6752 -0.4103
   26MOL    C42 8092   5.020   2.697   8.317  0.1575 -0.0080  0.2578
   26MOL    H43 8093   4.871   2.806   8.205  0.2327  0.3072 -1.0088
   26MOL    H44 8094   4.853   2.826   7.988  0.4655  3.0789  3.0893
   26MOL    H45 8095   4.960   2.823   7.745  0.6594  3.6636  0.2626
   26MOL    H46 8096   5.345   2.805   7.922  0.1565 -1.2074  1.7455
   26MOL    H47 8097   5.238   2.828   8.161  0.4576 -1.4779 -0.6713
   26MOL    H48 8098   5.126   2.710   8.338  0.0535 -0.7778  1.2808
   26MOL    H49 8099   4.978   2.706   8.417  0.4604  4.5223  0.0736
   26MOL    C50 8100   4.997   2.560   8.248  0.6612  0.9688 -0.2029
   26MOL    C51 8101   5.093   2.453   8.289 -1.2080  0.0604 -0.4690
   26MOL    C52 8102   5.090   2.410   8.419  1.0198  0.1279  0.1670
   26MOL    C53 8103   5.180   2.307   0.008 -0.6516 -0.8862 -0.6091
   26MOL    C54 8104   5.283   2.257   8.361  0.3820  0.0402 -0.3130
   26MOL   Cl55 8105   5.398   2.143   8.413 -0.0365  0.2418  0.2754
   26MOL    C56 8106   5.287   2.314   8.231 -0.4406 -0.3589 -0.8678
   26MOL    C57 8107   5.191   2.408   8.193  0.0921 -0.3562 -0.7480
   26MOL    C58 8108   4.844   2.514   8.271  0.0892 -0.1616  0.0139
   26MOL    H59 8109   5.023   2.575   8.143 -0.1660  1.8480 -0.2920
   26MOL    H60 8110   5.013   2.444   0.044  0.2581 -0.5053 -0.3565
   26MOL    H61 8111   5.162   2.248   0.097  0.3008 -2.0887 -1.1954
   26MOL    H62 8112   5.370   2.283   8.169  2.0441 -0.3267  2.3128
   26MOL    H63 8113   5.191   2.439   8.089 -1.1257 -0.2945 -0.7354
   26MOL    H64 8114   4.828   2.483   8.374 -1.7018 -2.9362 -1.0530
   26MOL    H65 8115   4.770   2.593   8.260  0.8753  0.6085  0.1608
   26MOL    C66 8116   4.799   2.399   8.164  0.0565 -0.2640 -0.3025
   26MOL    C67 8117   4.688   2.304   8.212  0.0697 -0.1063 -0.0071
   26MOL    C68 8118   4.567   2.349   8.264 -0.6218 -0.3880 -0.2174
   26MOL    C69 8119   4.470   2.254   8.314 -0.6651 -0.3191 -0.0175
   26MOL    C70 8120   4.489   2.118   8.299 -0.2873  0.3276  0.1145
   26MOL   Cl71 8121   4.361   2.011   8.350  0.0921  0.1276  0.4708
   26MOL    C72 8122   4.615   2.074   8.253 -0.1991  0.4413 -0.8937
   26MOL    C73 8123   4.709   2.167   8.208  0.4714  0.1168 -0.2016
   26MOL    C74 8124   4.766   2.463   8.027  0.3137  0.7033  0.5442
   26MOL    H75 8125   4.885   2.332   8.156  0.9706  1.1606 -2.5925
   26MOL    H76 8126   4.549   2.453   8.284 -0.0199 -0.3095 -0.0762
   26MOL    H77 8127   4.373   2.282   8.353 -0.8474  1.2531 -1.5733
   26MOL    H78 8128   4.637   1.969   8.241 -2.8537 -0.2757  0.2285
   26MOL    H79 8129   4.799   2.126   8.164  1.6796  1.8494  0.6107
   26MOL    H80 8130   4.668   2.511   8.029  0.4093  0.9669 -0.7583
   26MOL    H81 8131   4.836   2.545   8.011 -0.4041  1.1907 -0.1671
   26MOL    C82 8132   4.761   2.367   7.906 -0.0435 -0.0421  0.0299
   26MOL    C83 8133   4.631   2.298   7.869  0.3475 -0.3579 -0.5202
   26MOL    C84 8134   4.527   2.375   7.820 -0.1825 -0.6966  0.9723
   26MOL    C85 8135   4.404   2.312   7.807  0.1143 -0.4717 -0.3548
   26MOL    C86 8136   4.381   2.170   7.832 -0.1899 -0.1209 -0.0110
   26MOL   Cl87 8137   4.225   2.099   7.812 -0.1787  0.0902  0.6114
   26MOL    C88 8138   4.490   2.095   7.862 -0.2302  0.3204  0.6355
   26MOL    C89 8139   4.614   2.160   7.889 -0.1378  0.3438  1.2565
   26MOL    C90 8140   4.815   2.447   7.785 -0.2522 -0.4704 -0.2584
   26MOL    H91 8141   4.840   2.293   7.924 -0.4549 -0.2001  1.2328
   26MOL    H92 8142   4.531   2.476   7.782  0.0746 -0.6786  1.0493
   26MOL    H93 8143   4.320   2.370   7.771  1.2468 -2.0110 -6.1327
   26MOL    H94 8144   4.481   1.991   7.890  1.4014 -0.2202 -0.6892
   26MOL    H95 8145   4.699   2.102   7.922  0.3515  0.5401  0.3345
   26MOL    H96 8146   4.755   2.538   7.779  1.3000  0.9331  3.9570
   26MOL    H97 8147   4.914   2.478   7.818  0.4884 -2.1517 -0.8487
   26MOL    C98 8148   4.827   2.379   7.646 -0.5487  0.2783  0.4082
   26MOL    C99 8149   4.883   2.472   7.537  0.3364 -0.1471  0.6909
   26MOL   C100 8150   4.803   2.500   7.423  0.2604  0.2622  0.8384
   26MOL   C101 8151   4.858   2.583   7.324 -0.7290  0.2338  0.1083
   26MOL   C102 8152   4.980   2.643   7.339  0.0293 -0.6241  0.6580
   26MOL  Cl103 8153   5.028   2.762   7.230 -0.0369  0.3301  0.4959
   26MOL   C104 8154   5.061   2.613   7.448 -0.1778 -0.4356 -0.1148
   26MOL   C105 8155   5.013   2.524   7.543  1.2121 -0.3684  0.0107
   26MOL   C106 8156   4.909   2.250   7.647 -0.1508  0.5292  0.6486
   26MOL   H107 8157   4.728   2.346   7.617 -0.9893  0.9151  1.1822
   26MOL   H108 8158   4.712   2.449   7.397  1.1074 -1.4591  1.1664
   26MOL   H109 8159   4.790   2.597   7.242  0.3932 -0.0122 -0.8645
   26MOL   H110 8160   5.153   2.664   7.471 -0.0103 -1.4396  1.4914
   26MOL   H111 8161   5.072   2.515   7.633 -0.2977  0.9275  1.1744
   26MOL   H112 8162   5.010   2.273   7.681  0.2222  0.1317 -0.1689
   26MOL   H113 8163   4.863   2.192   7.727 -0.2909 -0.7995 -0.3834
   26MOL   C114 8164   4.926   2.169   7.518  0.7727  0.1706 -0.3602
   26MOL   C115 8165   5.020   2.065   7.552  0.0647  0.1857 -0.7304
   26MOL   C116 8166   5.162   2.099   7.553 -0.3681 -1.0184 -0.2039
   26MOL   C117 8167   5.263   2.001   7.578  0.7580 -0.1256 -0.3574
   26MOL   C118 8168   5.227   1.868   7.598 -0.3955 -0.7092 -0.1367
   26MOL  Cl119 8169   5.355   1.748   7.605 -0.2026  0.0189 -0.6301
   26MOL   C120 8170   5.091   1.830   7.601  0.2509  0.1963  0.2612
   26MOL   C121 8171   4.991   1.927   7.580  0.1341 -0.0936 -0.2866
   26MOL   C122 8172   4.784   2.115   7.471  0.1983  0.1501 -0.0626
   26MOL   H123 8173   4.964   2.235   7.440 -0.6525 -1.3633 -2.4070
   26MOL   H124 8174   5.189   2.200   7.528 -0.4472 -0.4319  2.0218
   26MOL   H125 8175   5.368   2.022   7.564  0.2438  2.1513 -0.9553
   26MOL   H126 8176   5.059   1.727   7.602  0.6357  0.0803  1.2877
   26MOL   H127 8177   4.888   1.897   7.571 -0.1224  0.7412 -0.2138
   26MOL   H128 8178   4.746   2.060   7.557  0.6586 -0.0020  0.0476
   26MOL   H129 8179   4.715   2.199   7.466  0.8869  0.6817 -0.7098
   26MOL   C130 8180   4.789   2.030   7.334  0.2855 -0.5899 -0.3769
   26MOL   C131 8181   4.675   1.931   7.344 -0.4167 -0.4931 -0.2731
   26MOL   C132 8182   4.545   1.973   7.375 -0.3809 -0.1651 -0.6583
   26MOL   C133 8183   4.433   1.883   7.361 -0.4148 -0.2630 -0.2763
   26MOL   C134 8184   4.449   1.749   7.324  0.4428 -0.2666  0.2642
   26MOL  Cl135 8185   4.313   1.645   7.325 -0.3287  0.3098 -0.2239
   26MOL   C136 8186   4.581   1.702   7.305  0.0938  0.0221 -0.0548
   26MOL   C137 8187   4.695   1.791   7.319  0.1137  0.9831 -0.6726
   26MOL   C138 8188   4.770   2.117   7.206 -0.1383  0.0751  0.4341
   26MOL   H139 8189   4.880   1.970   7.331  1.9547  1.9221 -1.2497
   26MOL   H140 8190   4.520   2.076   7.397 -0.0478 -0.3205  0.4891
   26MOL   H141 8191   4.337   1.931   7.372 -0.5749 -0.2249 -1.7163
   26MOL   H142 8192   4.601   1.596   7.310 -1.8946 -0.4685 -1.6915
   26MOL   H143 8193   4.793   1.748   7.304 -0.8434 -1.5063 -0.0826
   26MOL   H144 8194   4.715   2.051   7.138 -0.6138  1.4315 -0.5250
   26MOL   H145 8195   4.693   2.190   7.232  0.2401  0.5530  0.1973
   26MOL   C146 8196   4.905   2.161   7.141 -0.7652  0.9846 -0.3747
   26MOL   C147 8197   5.018   2.053   7.140  0.1031  0.3017  0.4690
   26MOL   C148 8198   5.144   2.077   7.204 -0.1447 -0.4709 -0.0407
   26MOL   C149 8199   5.228   1.966   7.222 -0.0571 -0.2583 -0.0065
   26MOL   C150 8200   5.201   1.838   7.177 -0.0583 -0.3630  0.0587
   26MOL  Cl151 8201   5.314   1.718   7.204 -0.3296 -0.1139  0.1540
   26MOL   C152 8202   5.078   1.814   7.115  0.0885  1.0092  0.0963
   26MOL   C153 8203   4.988   1.921   7.097  0.1624  0.1106 -0.3704
   26MOL   C154 8204   4.884   2.215   6.999  0.5038 -0.1408 -0.1453
   26MOL   H155 8205   4.944   2.243   7.201 -1.7726  1.2909 -0.1307
   26MOL   H156 8206   5.166   2.179   7.230 -0.7566 -0.8590  2.0503
   26MOL   H157 8207   5.321   1.994   7.271  0.2207 -1.8351  0.3894
   26MOL   H158 8208   5.060   1.718   7.068 -2.3916  1.0031  1.0241
   26MOL   H159 8209   4.897   1.904   7.042  0.1636  0.1999 -0.4004
   26MOL   H160 8210   4.876   2.135   6.925 -0.5864 -1.7230  1.6515
   26MOL   H161 8211   4.786   2.261   7.008 -0.2701 -1.8700  0.4891
   26MOL   C162 8212   4.999   2.305   6.943  0.1334 -0.0907 -0.7436
   26MOL   C163 8213   5.002   2.301   6.789  0.3472  0.8020 -0.5067
   26MOL   C164 8214   4.902   2.375   6.722  0.2086 -0.0726 -0.2739
   26MOL   C165 8215   4.892   2.369   6.581 -0.0480  0.6403  0.4325
   26MOL   C166 8216   4.978   2.283   6.509  0.0766 -0.3131  0.0469
   26MOL  Cl167 8217   4.951   2.265   6.342  0.4531 -0.5069  0.1134
   26MOL   C168 8218   5.078   2.208   6.580  0.1633  0.4240 -0.0423
   26MOL   C169 8219   5.093   2.224   6.717  0.3314 -0.0446 -0.0912
   26MOL   C170 8220   4.994   2.443   6.996  0.2032  0.2473  0.4129
   26MOL   H171 8221   5.094   2.257   6.965  0.8587  0.7385 -1.9952
   26MOL   H172 8222   4.830   2.431   6.780  1.9140  0.1311  1.6789
   26MOL   H173 8223   4.818   2.430   6.533  0.1460  0.4477 -0.1183
   26MOL   H174 8224   5.141   2.133   6.534 -0.6899 -0.5663  0.3812
   26MOL   H175 8225   5.166   2.163   6.767  0.4908  0.8368  0.7693
   26MOL   H176 8226   4.919   2.510   6.954 -0.9677 -0.7908  0.8443
   26MOL   H177 8227   4.964   2.440   7.101 -1.6326  1.3703 -0.0565
   26MOL   C178 8228   5.125   2.515   6.964  0.3276 -0.5537 -0.6655
   26MOL   C179 8229   5.249   2.450   7.023  0.0159  0.2355 -0.9851
   26MOL   C180 8230   5.250   2.450   7.163 -0.3523 -0.2702 -0.8985
   26MOL   C181 8231   5.362   2.392   7.229  0.1206 -0.0078 -0.0096
   26MOL   C182 8232   5.464   2.341   7.151 -1.0162  0.3265  0.5152
   26MOL  Cl183 8233   5.586   2.261   7.252  0.2725 -0.0609 -0.1852
   26MOL   C184 8234   5.471   2.339   7.011 -0.8934 -0.4872  0.0358
   26MOL   C185 8235   5.355   2.393   6.947 -0.6487  0.4052 -0.7171
   26MOL   C186 8236   5.133   2.573   6.817  0.0737 -0.6221 -0.5182
   26MOL   H187 8237   5.122   2.607   7.022  2.7486  0.2320 -1.7150
   26MOL   H188 8238   5.168   2.479   7.227  1.0123  2.4705 -0.3410
   26MOL   H189 8239   5.359   2.392   7.337 -1.2509  1.7988 -0.0110
   26MOL   H190 8240   5.541   2.285   6.950  1.3693  0.3638  1.8013
   26MOL   H191 8241   5.338   2.393   6.841 -1.5195 -1.6844 -0.5991
   26MOL   H192 8242   5.175   2.494   6.754 -0.3594  0.1105 -1.7456
   26MOL   H193 8243   5.028   2.581   6.787 -0.6382  0.5471  2.1608
   26MOL   C194 8244   5.199   2.718   6.816 -0.3340 -0.1544  0.4307
   26MOL   C195 8245   5.354   2.710   6.810  0.0107 -0.1806 -0.2518
   26MOL   C196 8246   5.409   2.637   6.704 -0.3994  0.2127  0.0825
   26MOL   C197 8247   5.545   2.616   6.700 -0.9239  0.1655 -0.9328
   26MOL   C198 8248   5.628   2.666   6.803  0.2903  0.1421  0.1042
   26MOL  Cl199 8249   5.803   2.651   6.795 -0.2208 -0.1518 -0.0114
   26MOL   C200 8250   5.573   2.733   6.909 -0.5324  0.6687  0.2389
   26MOL   C201 8251   5.440   2.762   6.911  0.4226 -0.8295  0.3371
   26MOL   C202 8252   5.156   2.810   6.701  0.0033  0.2408  0.6651
   26MOL   H203 8253   5.169   2.767   6.909 -0.7305  0.1323  0.1548
   26MOL   H204 8254   5.339   2.594   6.634 -0.5951 -3.5461  2.4275
   26MOL   H205 8255   5.594   2.569   6.616 -1.7758 -3.5960  0.5854
   26MOL   H206 8256   5.638   2.776   6.983  1.2194 -1.8655  0.2172
   26MOL   H207 8257   5.400   2.811   6.999 -1.4762 -2.8570  0.6626
   26MOL   H208 8258   5.239   2.877   6.679 -0.7929  1.0900  0.2045
   26MOL   H209 8259   5.142   2.750   6.611 -0.0043  0.4931  0.4967
   26MOL   C210 8260   5.032   2.915   6.717 -0.0847  0.0097  0.4276
   26MOL   C211 8261   5.048   3.014   6.835  1.0661  0.0610  0.4426
   26MOL   C212 8262   5.170   3.074   6.869  0.1011 -0.0890  0.2571
   26MOL   C213 8263   5.175   3.175   6.967 -0.1643  0.2860  0.1897
   26MOL   C214 8264   5.061   3.204   7.048 -0.0950 -0.4310 -0.1197
   26MOL  Cl215 8265   5.058   3.323   7.171 -0.0308  0.0449  0.1829
   26MOL   C216 8266   4.941   3.133   7.023  0.0330  0.2411  0.0999
   26MOL   C217 8267   4.933   3.042   6.916 -0.5221  0.0159 -0.2383
   26MOL   C218 8268   5.004   2.991   6.585  0.3307 -0.1438  0.0775
   26MOL   H219 8269   4.950   2.844   6.732  0.6252 -1.1656 -1.1272
   26MOL   H220 8270   5.261   3.060   6.813 -0.4941  1.5075 -1.1742
   26MOL   H221 8271   5.262   3.238   6.976 -0.3378  0.6008 -0.3106
   26MOL   H222 8272   4.858   3.159   7.087 -2.7733 -1.8029 -2.6338
   26MOL   H223 8273   4.835   2.999   6.899 -0.4488  0.1059 -0.8861
   26MOL   H224 8274   4.975   3.088   6.625  1.0366 -0.2159  0.7904
   26MOL   H225 8275   5.093   3.007   6.524  0.7395  0.4614  0.8221
   26MOL   C226 8276   4.897   2.913   6.499 -1.0885  0.6757 -0.7134
   26MOL   C227 8277   4.765   2.905   6.577 -0.3924  0.2311  0.0148
   26MOL   C228 8278   4.710   2.783   6.617  0.4202  0.0237 -0.4327
   26MOL   C229 8279   4.594   2.783   6.698 -0.1720 -1.0126 -0.8815
   26MOL   C230 8280   4.534   2.908   6.729  0.2142 -0.1526  0.0109
   26MOL  Cl231 8281   4.387   2.910   6.807  0.1898 -0.2485  0.3312
   26MOL   C232 8282   4.588   3.032   6.689 -0.2160  0.3295  0.1450
   26MOL   C233 8283   4.693   3.023   6.609 -0.4388 -0.2814  0.4473
   26MOL   C234 8284   4.888   2.983   6.356 -0.3293 -0.5126 -0.2630
   26MOL   H235 8285   4.934   2.814   6.474  3.1594  2.1503 -0.5773
   26MOL   H236 8286   4.744   2.683   6.592 -0.4148 -0.8417  1.7559
   26MOL   H237 8287   4.543   2.694   6.732 -0.9232 -0.4107 -0.4188
   26MOL   H238 8288   4.535   3.123   6.712 -1.9501 -0.8161  0.7776
   26MOL   H239 8289   4.735   3.116   6.576 -0.5809 -0.1741  0.5724
   26MOL   H240 8290   4.894   3.090   6.373  1.3945 -1.0073  2.5788
   26MOL   H241 8291   4.981   2.968   6.302  1.1665  0.9083  1.8443
   26MOL   C242 8292   4.775   2.946   6.251 -0.4038 -0.6911  0.1954
   26MOL   C243 8293   4.641   3.001   6.294  0.0529  0.5256  0.4998
   26MOL   C244 8294   4.526   2.916   6.312 -0.2411  0.6443  0.5501
   26MOL   C245 8295   4.410   2.972   6.362  0.2921  0.6050  0.3630
   26MOL   C246 8296   4.399   3.108   6.381  0.6718 -0.7700 -0.9609
   26MOL  Cl247 8297   4.264   3.176   6.462  0.3664 -0.1195  0.2672
   26MOL   C248 8298   4.508   3.188   6.360  0.5527  0.7870  0.3715
   26MOL   C249 8299   4.631   3.137   6.313 -0.0647  0.2932  0.0929
   26MOL   C250 8300   4.810   2.987   6.108 -0.7435 -0.1025 -0.1671
   26MOL   H251 8301   4.775   2.837   6.247 -1.9188 -0.6306 -1.7818
   26MOL   H252 8302   4.520   2.808   6.306 -0.5562  0.6876  0.0346
   26MOL   H253 8303   4.328   2.908   6.390  0.6621 -0.0623 -0.0559
   26MOL   H254 8304   4.492   3.290   6.392  0.4934  0.2830  2.0021
   26MOL   H255 8305   4.711   3.209   6.305 -0.8098  1.0687 -0.6015
   26MOL   H256 8306   4.826   3.092   6.084 -1.8840 -0.2607 -1.7197
   26MOL   H257 8307   4.907   2.946   6.082 -0.0755  1.1869  0.2446
   26MOL   C258 8308   4.719   2.945   5.992 -0.3561  0.6122 -0.4280
   26MOL   C259 8309   4.791   2.981   5.864 -0.4127 -0.3093 -0.0576
   26MOL   C260 8310   4.735   3.081   5.783 -0.6362  1.0019 -0.3173
   26MOL   C261 8311   4.800   3.129   5.671 -0.4614  0.0696 -0.2830
   26MOL   C262 8312   4.918   3.063   5.634  0.0872 -0.1285  0.0375
   26MOL  Cl263 8313   5.002   3.119   5.494  0.2590 -0.1098 -0.3488
   26MOL   C264 8314   4.969   2.954   5.707  0.0603 -0.9265 -0.4651
   26MOL   C265 8315   4.911   2.914   5.828  0.2498  0.0899 -0.2958
   26MOL   C266 8316   4.680   2.792   5.992 -0.3362 -0.3318 -0.5715
   26MOL   H267 8317   4.628   3.005   5.995 -0.1866  0.8741 -0.5749
   26MOL   H268 8318   4.636   3.120   5.801 -1.0736 -1.0507  1.9918
   26MOL   H269 8319   4.769   3.219   5.620  1.4254  1.2433  0.5740
   26MOL   H270 8320   5.053   2.900   5.666  0.6976 -1.3636  1.3519
   26MOL   H271 8321   4.957   2.829   5.876  0.4040  0.2142 -0.2234
   26MOL   H272 8322   4.766   2.736   6.031  0.5642  0.4944 -1.3326
   26MOL   H273 8323   4.601   2.783   6.066  1.2173 -0.5186  1.1160
   26MOL   C274 8324   4.640   2.727   5.860  0.2314  0.2040  0.6024
   26MOL   C275 8325   4.627   2.575   5.872  0.6489 -0.1755  0.3510
   26MOL   C276 8326   4.674   2.493   5.771 -1.0464  0.1539 -0.5793
   26MOL   C277 8327   4.644   2.355   5.767 -0.0046 -0.0890  0.6742
   26MOL   C278 8328   4.562   2.301   5.867 -0.6130 -0.0805  0.6227
   26MOL  Cl279 8329   4.513   2.138   5.860 -0.2103 -0.1676  0.2284
   26MOL   C280 8330   4.511   2.385   5.972 -0.2865 -0.6186 -0.1573
   26MOL   C281 8331   4.536   2.521   5.968 -0.8474 -0.5781 -1.4269
   26MOL   C282 8332   4.512   2.792   5.798  0.1919 -0.6836  0.4264
   26MOL   H283 8333   4.724   2.724   5.790 -0.0224 -2.6169  0.3445
   26MOL   H284 8334   4.738   2.538   5.695 -0.4218  0.6473  0.2338
   26MOL   H285 8335   4.673   2.301   5.679  0.3612 -1.3193  1.5320
   26MOL   H286 8336   4.452   2.341   6.051 -2.4426  1.8874 -0.3286
   26MOL   H287 8337   4.500   2.587   6.045  2.5659 -0.4178  0.0933
   26MOL   H288 8338   4.430   2.746   5.853 -3.0410  0.9541 -2.7961
   26MOL   H289 8339   4.517   2.900   5.806 -0.2025 -0.6807  0.6464
   26MOL   C290 8340   4.482   2.761   5.651  0.6784  0.1858  0.4517
   26MOL   C291 8341   4.332   2.765   5.625 -0.3311  0.7013  0.6343
   26MOL   C292 8342   4.275   2.667   5.549 -0.5332 -0.0442 -0.2018
   26MOL   C293 8343   4.138   2.667   5.511 -0.0967 -0.4106 -0.0121
   26MOL   C294 8344   4.059   2.764   5.570 -0.3371 -0.3602  0.1200
   26MOL  Cl295 8345   3.889   2.759   5.538 -0.3508  0.1471 -0.2111
   26MOL   C296 8346   4.115   2.866   5.651  0.2652  0.8961 -0.0953
   26MOL   C297 8347   4.256   2.871   5.679 -0.3339 -0.0694  0.2546
   26MOL   C298 8348   4.562   2.850   5.553 -0.2102  0.0517 -0.2657
   26MOL   H299 8349   4.523   2.664   5.621 -1.8119 -0.3934 -1.2215
   26MOL   H300 8350   4.344   2.587   5.523 -1.8220 -1.3764  0.4285
   26MOL   H301 8351   4.100   2.591   5.444  0.4874  0.1947 -1.0486
   26MOL   H302 8352   4.051   2.948   5.678 -1.2108 -1.2413  3.2427
   26MOL   H303 8353   4.300   2.953   5.734 -0.9419  0.7427 -0.4401
   26MOL   H304 8354   4.517   2.948   5.568 -0.8549 -0.5070  1.5130
   26MOL   H305 8355   4.667   2.863   5.580 -0.1023  1.5368 -1.3279
   26MOL   C306 8356   4.562   2.784   5.408  0.0367  0.0315  0.0053
   26MOL   C307 8357   4.561   2.879   5.289  0.0539 -0.1386 -0.5554
   26MOL   C308 8358   4.649   2.994   5.292 -0.5200  0.3426  0.3411
   26MOL   C309 8359   4.663   3.068   5.176  0.3550  0.4891  0.4794
   26MOL   C310 8360   4.601   3.031   5.054  0.5113  0.3602  0.5534
   26MOL  Cl311 8361   4.636   3.122   4.906  0.1692  0.0705 -0.4617
   26MOL   C312 8362   4.519   2.920   5.048 -0.1708 -0.0800 -0.3100
   26MOL   C313 8363   4.499   2.843   5.167 -0.1317  0.1407  0.2513
   26MOL   C314 8364   4.674   2.682   5.381 -0.0702 -0.4220 -0.1163
   26MOL   H315 8365   4.468   2.730   5.392  1.2100 -2.0826 -0.0077
   26MOL   H316 8366   4.703   3.019   5.382  0.2278 -4.1541  1.2373
   26MOL   H317 8367   4.714   3.163   5.181  1.4695 -0.0440 -0.4421
   26MOL   H318 8368   4.470   2.882   4.960  0.0268 -1.2639  0.0781
   26MOL   H319 8369   4.435   2.758   5.149  0.7031 -0.7041  1.1577
   26MOL   H320 8370   4.769   2.735   5.385 -0.1516 -0.1815 -1.2029
   26MOL   H321 8371   4.679   2.603   5.457 -1.9905 -0.3752  0.0880
   26MOL   H322 8372   4.657   2.635   5.284  0.9767 -1.2139  0.0754
   27MOL     C1 8373   1.308   5.896   5.836 -0.1121  0.7750 -0.1350
   27MOL     C2 8374   1.328   5.830   5.698 -0.1634 -0.5333  0.2089
   27MOL     C3 8375   1.412   5.715   5.688 -0.3528 -0.0252  0.3809
   27MOL     C4 8376   1.435   5.663   5.561  0.0225 -0.3473  0.6516
   27MOL     C5 8377   1.362   5.712   5.446 -0.6539  0.4350 -0.6129
   27MOL    Cl6 8378   1.398   5.647   5.292 -0.3613  0.0812  0.1786
   27MOL     C7 8379   1.279   5.820   5.463  0.6549  0.5656 -0.4969
   27MOL     C8 8380   1.261   5.887   5.586 -0.1423  0.1033 -0.1019
   27MOL     C9 8381   1.435   5.911   5.922 -0.0009 -0.1908  0.1949
   27MOL    H10 8382   1.234   5.826   5.875 -0.2209  0.2640 -1.2298
   27MOL    H11 8383   1.458   5.667   5.773 -1.5935 -0.3901  0.8566
   27MOL    H12 8384   1.510   5.586   5.551 -0.8387 -1.0803 -0.2225
   27MOL    H13 8385   1.227   5.864   5.379 -1.8062 -2.3552 -0.5838
   27MOL    H14 8386   1.195   5.972   5.596 -0.0053  0.0948  0.9100
   27MOL    H15 8387   1.459   5.806   5.939  0.4018  0.2761  2.7183
   27MOL    H16 8388   1.517   5.964   5.873  0.3764 -1.6974 -0.8373
   27MOL    H17 8389   1.258   5.991   5.820 -0.4093  0.4083 -1.5303
   27MOL    C18 8390   1.406   5.982   6.058  0.9009  0.3378  0.3820
   27MOL    C19 8391   1.271   5.942   6.124 -0.0686  0.1234 -0.2269
   27MOL    C20 8392   1.155   6.018   6.085  0.2920  0.1094  0.4679
   27MOL    C21 8393   1.030   5.988   6.143 -0.3952  0.0451 -0.1747
   27MOL    C22 8394   1.021   5.874   6.231 -0.7009 -0.2225  0.6258
   27MOL   Cl23 8395   0.871   5.825   6.300  0.4959 -0.0920  0.5133
   27MOL    C24 8396   1.134   5.796   6.267 -0.0124  0.1128  0.9252
   27MOL    C25 8397   1.257   5.830   6.210 -0.5210 -0.0417 -0.2831
   27MOL    C26 8398   1.522   5.962   6.161  0.3983 -0.5850  0.2790
   27MOL    H27 8399   1.398   6.089   6.042  1.6948  0.5984  1.6948
   27MOL    H28 8400   1.173   6.097   6.014 -0.2540 -0.5800 -0.4384
   27MOL    H29 8401   0.936   6.038   6.124 -0.2439  1.1475  1.9110
   27MOL    H30 8402   1.124   5.712   6.335  1.1457 -1.3845 -0.7045
   27MOL    H31 8403   1.340   5.768   6.240 -1.4372 -1.1416  0.0494
   27MOL    H32 8404   1.491   6.009   6.254 -0.2274 -2.0438  0.8200
   27MOL    H33 8405   1.532   5.854   6.176  0.6444 -0.6143 -0.0835
   27MOL    C34 8406   1.656   6.016   6.124 -1.0594  0.3439  0.2915
   27MOL    C35 8407   1.647   6.162   6.097  0.1561  0.2109 -0.9441
   27MOL    C36 8408   1.677   6.216   5.972  0.2801 -0.5293  0.0528
   27MOL    C37 8409   1.667   6.351   5.946  0.4986 -0.3938  0.3423
   27MOL    C38 8410   1.607   6.435   6.039 -0.8709 -0.2535  0.4978
   27MOL   Cl39 8411   1.587   6.606   6.025 -0.2385  0.1690 -0.0504
   27MOL    C40 8412   1.576   6.384   6.166  0.3273  0.1304 -0.0849
   27MOL    C41 8413   1.589   6.247   6.194  0.6310  0.3846  0.0001
   27MOL    C42 8414   1.762   5.969   6.229  0.7240 -0.5231 -0.2841
   27MOL    H43 8415   1.686   5.967   6.031  1.6872  0.4870  1.0605
   27MOL    H44 8416   1.716   6.151   5.895 -0.4057  1.8794 -2.4136
   27MOL    H45 8417   1.691   6.404   5.855 -0.9449 -0.6518 -0.1956
   27MOL    H46 8418   1.551   6.449   6.248  0.8307 -0.0993  0.2541
   27MOL    H47 8419   1.570   6.210   6.294 -2.2722 -1.2154 -1.0959
   27MOL    H48 8420   1.716   5.993   6.325  3.1433  1.7475  0.3527
   27MOL    H49 8421   1.780   5.862   6.219 -0.9178 -0.8390  0.0212
   27MOL    C50 8422   1.898   6.054   6.224 -0.3094  0.3464 -0.0360
   27MOL    C51 8423   1.967   6.026   6.362  0.0720  0.1032  0.3396
   27MOL    C52 8424   1.963   6.117   6.465 -0.2232 -0.0625 -0.5024
   27MOL    C53 8425   2.005   6.081   6.592 -0.6153 -0.4377  0.4634
   27MOL    C54 8426   2.040   5.944   6.618 -0.0711  0.0491  0.5255
   27MOL   Cl55 8427   2.059   5.901   6.786  0.3390 -0.2982 -0.0715
   27MOL    C56 8428   2.051   5.850   6.517  0.0320 -0.0129  0.5383
   27MOL    C57 8429   2.012   5.897   6.387 -0.1172  0.3603  0.6870
   27MOL    C58 8430   1.973   6.020   6.094 -0.4339  0.2894  0.4117
   27MOL    H59 8431   1.865   6.158   6.223  0.7578  0.6876 -0.0902
   27MOL    H60 8432   1.926   6.218   6.459 -1.1460 -0.4047 -0.7453
   27MOL    H61 8433   1.997   6.148   6.676 -0.3907  1.0308 -0.6709
   27MOL    H62 8434   2.081   5.748   6.532 -1.1220 -0.4473 -0.0640
   27MOL    H63 8435   2.015   5.824   6.308  0.4426 -0.3172  1.3345
   27MOL    H64 8436   2.052   5.950   6.121  0.3990  1.4877  1.1242
   27MOL    H65 8437   1.913   5.957   6.029  0.7306  0.7117 -1.1092
   27MOL    C66 8438   2.010   6.150   6.020  0.1501  0.1098  0.0115
   27MOL    C67 8439   2.069   6.263   6.107  0.1885 -0.0253  0.1405
   27MOL    C68 8440   2.190   6.232   6.175  0.2954  0.6613  0.1931
   27MOL    C69 8441   2.249   6.329   6.257  0.2697  0.6513  0.3425
   27MOL    C70 8442   2.198   6.455   6.266 -0.4698  0.2370 -0.4070
   27MOL   Cl71 8443   2.287   6.579   6.356  0.2275 -0.2925  0.0739
   27MOL    C72 8444   2.075   6.489   6.199 -0.3079 -0.0613  0.0423
   27MOL    C73 8445   2.009   6.389   6.123  0.5265 -0.7004 -0.4365
   27MOL    C74 8446   2.099   6.125   5.899  0.3232 -0.2651  0.8158
   27MOL    H75 8447   1.917   6.184   5.976 -0.5272 -0.2212  1.1703
   27MOL    H76 8448   2.244   6.139   6.168 -2.3401 -1.0573  2.0953
   27MOL    H77 8449   2.331   6.300   6.320 -2.3039 -2.2923  2.4797
   27MOL    H78 8450   2.044   6.592   6.206  3.4313  1.0703  1.4863
   27MOL    H79 8451   1.922   6.414   6.065  0.9054 -0.3723 -0.8675
   27MOL    H80 8452   2.115   6.222   5.852  0.9411  0.0038  1.5691
   27MOL    H81 8453   2.201   6.095   5.924 -0.2242 -2.0910  0.9200
   27MOL    C82 8454   2.049   6.028   5.787 -0.8553 -0.0465  0.6102
   27MOL    C83 8455   1.909   6.074   5.733 -0.8052  0.5233  0.4972
   27MOL    C84 8456   1.807   5.981   5.704  0.0777 -0.3988 -0.2826
   27MOL    C85 8457   1.684   6.024   5.650  0.1699  0.4796  0.3486
   27MOL    C86 8458   1.669   6.158   5.612  0.1412 -0.2355  0.0809
   27MOL   Cl87 8459   1.512   6.214   5.559 -0.1227 -0.4284 -0.0096
   27MOL    C88 8460   1.776   6.248   5.620  0.1835 -0.6176 -0.1707
   27MOL    C89 8461   1.899   6.210   5.686 -0.8163 -0.9526  0.1972
   27MOL    C90 8462   2.149   6.020   5.666 -0.9022 -0.4685  0.3705
   27MOL    H91 8463   2.042   5.928   5.832 -2.3360 -0.5807 -0.7731
   27MOL    H92 8464   1.823   5.876   5.723  0.6046 -0.4620 -1.0661
   27MOL    H93 8465   1.605   5.952   5.633 -0.8900  1.7136 -0.0628
   27MOL    H94 8466   1.752   6.347   5.586  3.7931  1.2189  2.3199
   27MOL    H95 8467   1.988   6.271   5.690 -1.3435 -0.1351 -0.3102
   27MOL    H96 8468   2.112   5.980   5.572 -2.0570  2.3050 -0.4082
   27MOL    H97 8469   2.185   6.122   5.654 -1.7324 -0.0114  1.6952
   27MOL    C98 8470   2.271   5.928   5.696  0.4780 -0.4298 -1.0871
   27MOL    C99 8471   2.225   5.787   5.724  0.0168 -0.3761  0.4314
   27MOL   C100 8472   2.143   5.715   5.637 -0.1394  0.4662 -0.1302
   27MOL   C101 8473   2.116   5.579   5.666  0.7578 -0.1047 -0.0506
   27MOL   C102 8474   2.185   5.514   5.772  0.4406 -0.7875 -0.3069
   27MOL  Cl103 8475   2.188   5.343   5.769 -0.0482 -0.7170 -0.2221
   27MOL   C104 8476   2.269   5.587   5.856  0.6504 -0.0139 -0.1203
   27MOL   C105 8477   2.288   5.721   5.829 -0.2658 -0.2508 -0.2127
   27MOL   C106 8478   2.381   5.910   5.588 -0.3597 -0.2645 -0.0506
   27MOL   H107 8479   2.314   5.952   5.793 -1.5954 -0.4208 -0.1360
   27MOL   H108 8480   2.110   5.755   5.543  0.8361 -0.7028 -0.9903
   27MOL   H109 8481   2.058   5.518   5.599 -0.6452  0.1370  0.9249
   27MOL   H110 8482   2.315   5.521   5.928 -0.8026 -1.0538 -0.1236
   27MOL   H111 8483   2.347   5.779   5.899 -1.7851  1.7220 -0.5127
   27MOL   H112 8484   2.424   5.810   5.587 -2.2257 -1.0811 -1.3206
   27MOL   H113 8485   2.329   5.922   5.493  0.4646  1.0146 -0.3520
   27MOL   C114 8486   2.493   6.015   5.597  0.2789  0.7832  1.0486
   27MOL   C115 8487   2.567   6.020   5.726  0.2146 -0.3417  0.0645
   27MOL   C116 8488   2.551   6.128   5.810  0.0368  0.1632  0.3631
   27MOL   C117 8489   2.619   6.139   5.930 -2.0887 -0.0245  0.0398
   27MOL   C118 8490   2.705   6.033   5.967  0.3844 -0.3292  0.4422
   27MOL  Cl119 8491   2.778   6.032   6.130 -0.3220 -0.3308  0.2509
   27MOL   C120 8492   2.735   5.932   5.878  0.7159  0.1759 -0.3145
   27MOL   C121 8493   2.654   5.919   5.761  0.1119 -0.3353 -0.2737
   27MOL   C122 8494   2.586   5.999   5.471  0.1686 -0.1097 -0.2696
   27MOL   H123 8495   2.446   6.111   5.577  0.1009  0.3868 -0.4810
   27MOL   H124 8496   2.480   6.204   5.782  0.8611  0.4027 -1.1322
   27MOL   H125 8497   2.595   6.217   6.001 -0.4436  0.7427 -0.2267
   27MOL   H126 8498   2.804   5.858   5.916  0.2871 -0.3891 -0.6307
   27MOL   H127 8499   2.673   5.843   5.687 -1.0413 -0.7749 -0.1202
   27MOL   H128 8500   2.616   5.896   5.454 -1.1450 -0.4995 -0.2281
   27MOL   H129 8501   2.521   6.020   5.386 -3.2963  2.8872  2.9357
   27MOL   C130 8502   2.707   6.102   5.472 -0.2691  0.2455  0.2873
   27MOL   C131 8503   2.769   6.089   5.330  0.1003 -0.7484  0.1131
   27MOL   C132 8504   2.889   6.024   5.308  0.0337 -0.3033  0.1715
   27MOL   C133 8505   2.934   6.003   5.177  1.2253  0.2400 -1.0644
   27MOL   C134 8506   2.865   6.057   5.073  0.4188  0.2783 -0.0502
   27MOL  Cl135 8507   2.926   6.028   4.919  0.0265 -0.1177 -0.0779
   27MOL   C136 8508   2.744   6.129   5.085  0.2392 -0.4970 -0.1566
   27MOL   C137 8509   2.696   6.143   5.220 -0.3592  0.1249  0.5169
   27MOL   C138 8510   2.673   6.249   5.507  0.6132  0.1223 -0.5355
   27MOL   H139 8511   2.791   6.070   5.533 -0.2678 -0.4850 -0.0931
   27MOL   H140 8512   2.954   5.988   5.386 -0.8666  1.3489  1.7232
   27MOL   H141 8513   3.026   5.951   5.154 -0.2049 -1.4020 -3.2493
   27MOL   H142 8514   2.689   6.165   4.999 -2.0698 -2.8729  0.2534
   27MOL   H143 8515   2.604   6.195   5.239 -1.7242 -1.6063 -1.1881
   27MOL   H144 8516   2.594   6.294   5.448 -1.8628 -0.0496  2.5242
   27MOL   H145 8517   2.638   6.257   5.610  1.6007 -0.0436 -0.1750
   27MOL   C146 8518   2.786   6.353   5.484 -0.2472 -0.2287  0.3483
   27MOL   C147 8519   2.729   6.500   5.500 -0.5973 -0.0403  0.0577
   27MOL   C148 8520   2.684   6.551   5.620  0.1035 -0.4265 -1.1711
   27MOL   C149 8521   2.644   6.681   5.633 -0.1446 -0.2239  0.2127
   27MOL   C150 8522   2.633   6.763   5.522  0.1080 -0.0796 -0.8239
   27MOL  Cl151 8523   2.569   6.922   5.539 -0.1473 -0.0153  0.2752
   27MOL   C152 8524   2.676   6.712   5.397  0.5608 -0.7314 -0.9140
   27MOL   C153 8525   2.727   6.581   5.386 -0.6591  0.3126  0.3718
   27MOL   C154 8526   2.913   6.320   5.568 -0.6206 -0.4487 -0.3502
   27MOL   H155 8527   2.820   6.352   5.380  0.7179 -1.0286  0.6636
   27MOL   H156 8528   2.683   6.489   5.708 -1.7202 -0.7774 -1.4109
   27MOL   H157 8529   2.630   6.716   5.735  3.0419 -2.1424  1.3842
   27MOL   H158 8530   2.662   6.769   5.307  0.4803 -0.3723 -0.6750
   27MOL   H159 8531   2.753   6.544   5.288  2.0100  0.6221  0.9211
   27MOL   H160 8532   2.878   6.324   5.671  3.7426 -0.6471  1.2678
   27MOL   H161 8533   2.962   6.224   5.557 -3.1311 -1.6813 -1.0481
   27MOL   C162 8534   3.024   6.428   5.548  0.3621 -0.6708 -0.2370
   27MOL   C163 8535   3.062   6.479   5.686  0.0456 -0.0077 -0.6939
   27MOL   C164 8536   3.142   6.409   5.777 -0.3021 -0.5308 -0.2055
   27MOL   C165 8537   3.172   6.461   5.906  0.0492  0.4232 -0.2063
   27MOL   C166 8538   3.142   6.593   5.943 -0.5560 -0.3752  0.4944
   27MOL  Cl167 8539   3.183   6.658   6.095 -0.3945 -0.3346  0.1467
   27MOL   C168 8540   3.072   6.668   5.846  0.4825  0.0214  0.4472
   27MOL   C169 8541   3.032   6.610   5.723 -0.1752  0.7974 -0.6388
   27MOL   C170 8542   3.152   6.396   5.468  1.0500 -0.0346 -0.7353
   27MOL   H171 8543   2.987   6.520   5.502 -0.3432  0.5720  2.6772
   27MOL   H172 8544   3.185   6.311   5.760 -2.1435 -1.4211  0.1847
   27MOL   H173 8545   3.230   6.397   5.970 -0.2774 -0.9298 -1.2404
   27MOL   H174 8546   3.047   6.768   5.876  0.7756  0.2311 -0.0125
   27MOL   H175 8547   2.967   6.668   5.659 -1.4101  0.5966  0.4235
   27MOL   H176 8548   3.210   6.488   5.472  0.1952  0.5502 -1.4688
   27MOL   H177 8549   3.203   6.315   5.520  1.7423 -0.8775 -2.6706
   27MOL   C178 8550   3.151   6.367   5.314 -0.0729 -0.8906 -0.0550
   27MOL   C179 8551   3.057   6.457   5.228  0.4132 -0.4693 -0.5617
   27MOL   C180 8552   3.062   6.597   5.247 -0.5392  0.7033  0.2589
   27MOL   C181 8553   2.978   6.684   5.175  0.2605 -0.2305  0.2657
   27MOL   C182 8554   2.902   6.636   5.074 -0.1589 -0.1329  0.1150
   27MOL  Cl183 8555   2.798   6.751   4.994  0.5387  0.3914 -0.7262
   27MOL   C184 8556   2.908   6.496   5.045  0.2572 -0.7407 -0.0461
   27MOL   C185 8557   2.983   6.408   5.118 -0.6404  0.4631 -0.0870
   27MOL   C186 8558   3.302   6.376   5.263  0.0123  0.0174 -0.0577
   27MOL   H187 8559   3.124   6.262   5.299 -1.1557 -0.1432 -4.0064
   27MOL   H188 8560   3.126   6.630   5.328  0.9898  1.9109 -1.4035
   27MOL   H189 8561   2.963   6.787   5.204  0.9532  0.1821 -0.8074
   27MOL   H190 8562   2.848   6.460   4.962  0.6189 -1.5996  0.0562
   27MOL   H191 8563   2.992   6.303   5.094  1.0384  0.8145 -1.1075
   27MOL   H192 8564   3.292   6.378   5.155  0.0933  0.5502 -0.0541
   27MOL   H193 8565   3.348   6.471   5.290  1.3022 -0.2871 -1.1386
   27MOL   C194 8566   3.385   6.258   5.304  1.0843  1.1046  0.4629
   27MOL   C195 8567   3.346   6.126   5.232  0.1850  0.3265 -1.0174
   27MOL   C196 8568   3.310   6.120   5.094 -0.0228 -0.3018 -0.0939
   27MOL   C197 8569   3.274   5.998   5.034 -0.3389 -0.7746  0.4199
   27MOL   C198 8570   3.267   5.882   5.111  0.1308  0.3385 -0.3910
   27MOL  Cl199 8571   3.231   5.735   5.035 -0.1779  0.4096  0.3333
   27MOL   C200 8572   3.297   5.887   5.250 -0.0763 -0.1037  0.0416
   27MOL   C201 8573   3.342   6.005   5.302  0.0310 -0.2916 -0.0904
   27MOL   C202 8574   3.531   6.276   5.263 -0.1214  0.7344 -1.0065
   27MOL   H203 8575   3.370   6.239   5.410  1.6614  0.5302  0.4420
   27MOL   H204 8576   3.331   6.206   5.032 -1.0357  1.5018  2.0084
   27MOL   H205 8577   3.252   6.004   4.928 -1.3107  2.3996  0.7483
   27MOL   H206 8578   3.297   5.793   5.303  1.7959 -1.1453 -1.7278
   27MOL   H207 8579   3.381   6.006   5.403 -0.8742 -1.4544  0.2819
   27MOL   H208 8580   3.577   6.178   5.261 -0.2675  0.6276  0.1186
   27MOL   H209 8581   3.535   6.305   5.158  0.8718 -0.5491 -1.3320
   27MOL   C210 8582   3.618   6.377   5.333  0.2370  0.1218  0.5955
   27MOL   C211 8583   3.595   6.379   5.483 -0.1654 -0.4459  0.3376
   27MOL   C212 8584   3.581   6.505   5.542 -0.1505  0.2996  0.1956
   27MOL   C213 8585   3.547   6.513   5.679  0.1812 -0.4928  0.9603
   27MOL   C214 8586   3.547   6.395   5.755  0.0094 -0.0305 -0.3539
   27MOL  Cl215 8587   3.519   6.409   5.920  0.0108  0.1536 -0.0574
   27MOL   C216 8588   3.564   6.269   5.696  0.4741  0.9616 -0.6664
   27MOL   C217 8589   3.584   6.258   5.557 -0.7961  0.0156 -0.8732
   27MOL   C218 8590   3.770   6.362   5.307  0.0194 -0.2388 -0.3168
   27MOL   H219 8591   3.588   6.472   5.287  0.5600  0.6067  1.3822
   27MOL   H220 8592   3.588   6.592   5.478  1.7222 -0.1678 -0.2669
   27MOL   H221 8593   3.540   6.605   5.735 -0.3502 -1.1288  1.9480
   27MOL   H222 8594   3.554   6.186   5.764 -2.6466  1.7360 -0.1013
   27MOL   H223 8595   3.599   6.165   5.504  0.9558  1.1291 -2.4204
   27MOL   H224 8596   3.822   6.433   5.371 -2.1214 -1.4521  2.9370
   27MOL   H225 8597   3.790   6.263   5.346 -0.3009 -0.1474  0.0859
   27MOL   C226 8598   3.825   6.378   5.162  0.3474  0.5066 -0.1932
   27MOL   C227 8599   3.820   6.526   5.111  0.3265  0.1090  0.4681
   27MOL   C228 8600   3.792   6.555   4.973 -0.1530  0.2938  0.1385
   27MOL   C229 8601   3.792   6.690   4.922  0.0086 -0.9499 -0.8254
   27MOL   C230 8602   3.822   6.801   5.009  0.1365  0.0588  0.1377
   27MOL  Cl231 8603   3.800   6.971   4.965  0.0608 -0.1538 -0.0353
   27MOL   C232 8604   3.872   6.766   5.137  0.1659 -0.5557  0.1911
   27MOL   C233 8605   3.864   6.633   5.191 -0.1798  0.3065 -0.4486
   27MOL   C234 8606   3.971   6.320   5.139 -0.0033 -0.2171  0.2258
   27MOL   H235 8607   3.749   6.326   5.104 -0.4868  0.0845  1.2476
   27MOL   H236 8608   3.769   6.477   4.903 -3.9025  0.5151  1.0319
   27MOL   H237 8609   3.761   6.715   4.821 -0.4480 -1.5112 -0.8327
   27MOL   H238 8610   3.890   6.843   5.210  0.2940  0.1182 -0.5425
   27MOL   H239 8611   3.904   6.617   5.290 -0.1595  0.5125 -0.4235
   27MOL   H240 8612   3.987   6.327   5.032 -2.2833 -0.4277 -0.1379
   27MOL   H241 8613   4.038   6.393   5.185  0.4895  0.0755 -0.9429
   27MOL   C242 8614   4.004   6.171   5.198  0.0651  0.3606  0.2576
   27MOL   C243 8615   3.905   6.072   5.133  0.4302 -0.8340  0.0418
   27MOL   C244 8616   3.817   5.995   5.213 -0.4913  0.1485 -0.4725
   27MOL   C245 8617   3.716   5.911   5.164 -0.0895  0.3516  0.2419
   27MOL   C246 8618   3.698   5.899   5.026  0.0067 -0.3699  0.5645
   27MOL  Cl247 8619   3.583   5.794   4.959  0.0284 -0.1212 -0.0134
   27MOL   C248 8620   3.791   5.964   4.943  0.3740 -0.3306  0.4779
   27MOL   C249 8621   3.885   6.057   4.995  0.1449 -0.2122 -0.2682
   27MOL   C250 8622   4.151   6.130   5.169 -0.0315 -0.1188 -0.5854
   27MOL   H251 8623   3.994   6.176   5.306 -0.0584 -1.2089  0.3276
   27MOL   H252 8624   3.836   6.009   5.319  0.8825  0.9377 -0.8042
   27MOL   H253 8625   3.646   5.859   5.227 -0.2178  0.9248  0.5662
   27MOL   H254 8626   3.776   5.948   4.838 -2.0832 -0.0080  0.7499
   27MOL   H255 8627   3.944   6.119   4.930 -0.5583 -0.4354 -1.1366
   27MOL   H256 8628   4.159   6.024   5.148  0.4002 -0.4884  1.4500
   27MOL   H257 8629   4.180   6.178   5.075 -1.5260 -0.5098 -1.2556
   27MOL   C258 8630   4.238   6.174   5.291 -0.0116 -0.2144 -0.4831
   27MOL   C259 8631   4.216   6.101   5.422  0.5347 -0.2624 -0.3058
   27MOL   C260 8632   4.193   5.964   5.430 -0.5742 -0.0955 -0.4517
   27MOL   C261 8633   4.156   5.899   5.548 -0.4049 -0.3512  0.0561
   27MOL   C262 8634   4.152   5.966   5.669 -0.6540 -0.1939  0.2047
   27MOL  Cl263 8635   4.137   5.880   5.816 -0.0512 -0.1065 -0.0912
   27MOL   C264 8636   4.178   6.111   5.663 -0.3846  0.9868 -0.5116
   27MOL   C265 8637   4.214   6.175   5.544 -0.2016 -0.8179 -0.2126
   27MOL   C266 8638   4.388   6.196   5.254  0.2478  0.3918  0.3348
   27MOL   H267 8639   4.212   6.275   5.323  0.2616 -0.8565  1.8507
   27MOL   H268 8640   4.204   5.899   5.345  1.5526 -1.0082  0.4817
   27MOL   H269 8641   4.146   5.792   5.555  0.8185 -0.5430 -1.1162
   27MOL   H270 8642   4.191   6.166   5.756  0.1186 -1.1347  0.7006
   27MOL   H271 8643   4.239   6.280   5.549  1.7940 -1.3190  1.0159
   27MOL   H272 8644   4.436   6.246   5.338  1.1523 -2.3644  1.5219
   27MOL   H273 8645   4.434   6.101   5.225  0.1969 -0.0036  1.5439
   27MOL   C274 8646   4.424   6.294   5.141  1.0374 -0.3883  0.1789
   27MOL   C275 8647   4.361   6.438   5.153  0.2371  0.6235 -0.2739
   27MOL   C276 8648   4.390   6.518   5.267 -1.1076 -0.1306  0.1284
   27MOL   C277 8649   4.334   6.647   5.276  0.4535  0.0741  0.1062
   27MOL   C278 8650   4.247   6.698   5.175 -0.6582  0.2505 -0.5447
   27MOL  Cl279 8651   4.188   6.859   5.185  0.6827  0.0811 -0.1674
   27MOL   C280 8652   4.220   6.613   5.070  0.0456  0.3226  0.9197
   27MOL   C281 8653   4.277   6.488   5.054 -0.8694  0.1720 -0.6516
   27MOL   C282 8654   4.582   6.313   5.137  0.0484  0.8373  0.3943
   27MOL   H283 8655   4.390   6.256   5.045 -1.0703  0.8968  0.3801
   27MOL   H284 8656   4.471   6.495   5.334 -0.2084  1.2943 -0.4542
   27MOL   H285 8657   4.364   6.709   5.359  1.0123 -1.6178  1.1857
   27MOL   H286 8658   4.171   6.654   4.983  0.8844  1.9135  1.1777
   27MOL   H287 8659   4.266   6.424   4.968 -2.0153 -0.6255  0.0711
   27MOL   H288 8660   4.612   6.411   5.099 -0.1411  0.5307 -0.5635
   27MOL   H289 8661   4.606   6.313   5.243 -3.4265 -1.4751  1.2823
   27MOL   C290 8662   4.665   6.216   5.062 -0.5093 -0.6721  0.3368
   27MOL   C291 8663   4.661   6.245   4.915  0.4791 -0.5470  0.4347
   27MOL   C292 8664   4.715   6.367   4.862  0.1532 -0.6485  0.2666
   27MOL   C293 8665   4.701   6.397   4.728  0.3837 -0.3090  0.9226
   27MOL   C294 8666   4.632   6.313   4.643 -0.4132 -0.0618 -0.4368
   27MOL  Cl295 8667   4.622   6.348   4.473  0.1573  0.3597 -0.0657
   27MOL   C296 8668   4.565   6.199   4.691  0.3637 -1.2216 -0.3970
   27MOL   C297 8669   4.576   6.168   4.830  0.2159 -0.2595 -0.2348
   27MOL   C298 8670   4.801   6.176   5.122 -0.3705  0.0605  0.2717
   27MOL   H299 8671   4.605   6.125   5.067 -1.7598  0.0561 -0.7960
   27MOL   H300 8672   4.765   6.443   4.920  3.3837 -0.8981 -2.0622
   27MOL   H301 8673   4.753   6.485   4.693  0.6744 -0.3084  1.3501
   27MOL   H302 8674   4.502   6.135   4.631 -0.9384  0.8974 -1.3547
   27MOL   H303 8675   4.528   6.080   4.870 -1.7552  0.2282 -1.4420
   27MOL   H304 8676   4.858   6.269   5.135  2.5093 -2.0098  3.4317
   27MOL   H305 8677   4.791   6.129   5.219  1.4587 -2.8446 -0.8896
   27MOL   C306 8678   4.889   6.078   5.036  0.2412 -0.9811  0.2521
   27MOL   C307 8679   5.033   6.068   5.088 -0.0709 -0.1665  0.3776
   27MOL   C308 8680   5.064   5.984   5.194 -0.4555  0.5800 -0.2488
   27MOL   C309 8681   5.196   5.965   5.243  0.0776 -0.0194 -0.5121
   27MOL   C310 8682   5.293   6.048   5.184  0.2090 -0.1170 -0.2173
   27MOL  Cl311 8683   5.441   6.063   5.273  0.0675 -0.2601  0.0754
   27MOL   C312 8684   5.263   6.148   5.087 -0.0356  0.3336 -0.1275
   27MOL   C313 8685   5.132   6.153   5.029 -0.5449 -0.8709 -0.4250
   27MOL   C314 8686   4.821   5.934   5.031  0.0957  0.5604  0.2070
   27MOL   H315 8687   4.897   6.121   4.937 -2.0437  3.0331  1.7165
   27MOL   H316 8688   4.994   5.915   5.241 -0.4012  0.2418 -0.6618
   27MOL   H317 8689   5.215   5.902   5.329 -0.7985 -0.4315 -0.6096
   27MOL   H318 8690   5.335   6.222   5.056  1.0827 -0.2920  0.8761
   27MOL   H319 8691   5.106   6.243   4.975 -0.4542 -0.5996 -0.0212
   27MOL   H320 8692   4.732   5.946   4.971 -0.4219 -1.4182  0.5218
   27MOL   H321 8693   4.885   5.866   4.975 -1.3788  0.0519 -0.8834
   27MOL   H322 8694   4.791   5.900   5.130  0.3636 -1.9556 -0.5399
   28MOL     C1 8695   8.015   3.088   4.656 -0.3124 -0.0329 -0.1619
   28MOL     C2 8696   8.059   3.000   4.542 -0.2513  0.4633 -0.0544
   28MOL     C3 8697   8.143   3.049   4.438  0.2757  0.1176 -0.6214
   28MOL     C4 8698   8.192   2.964   4.339 -0.2757 -0.3945  0.1588
   28MOL     C5 8699   8.160   2.825   4.333 -0.3644  0.0268  0.3985
   28MOL    Cl6 8700   8.227   2.732   4.213  0.1849 -0.2172  0.2045
   28MOL     C7 8701   8.072   2.776   4.437 -0.5802  0.0790 -0.1606
   28MOL     C8 8702   8.029   2.864   4.544  0.1856  0.7512 -0.6723
   28MOL     C9 8703   7.900   3.180   4.621 -0.5281 -0.1270 -0.3436
   28MOL    H10 8704   8.104   3.143   4.689  0.3750 -1.0128 -0.3558
   28MOL    H11 8705   8.164   3.155   4.433 -0.2187  0.3509  1.6951
   28MOL    H12 8706   8.253   3.017   4.267 -1.1624  0.5086  0.0601
   28MOL    H13 8707   8.059   2.669   4.442  1.4682 -0.0919  3.7628
   28MOL    H14 8708   7.977   2.824   4.630  2.4184 -1.8774 -0.4599
   28MOL    H15 8709   7.873   3.240   4.708  0.6076  1.2082 -0.9026
   28MOL    H16 8710   7.933   3.250   4.544 -0.1880 -0.4443 -0.4882
   28MOL    H17 8711   7.992   3.024   4.741 -1.3272  0.3289 -0.1547
   28MOL    C18 8712   7.777   3.107   4.568 -0.4220  0.4761  0.2324
   28MOL    C19 8713   7.711   3.035   4.682  0.4958 -0.0422 -0.1401
   28MOL    C20 8714   7.655   3.113   4.781  0.3670  0.4248  1.0621
   28MOL    C21 8715   7.595   3.046   4.896  0.2174 -0.2063  0.5965
   28MOL    C22 8716   7.578   2.908   4.900  0.0089  0.0124 -0.0439
   28MOL   Cl23 8717   7.486   2.835   5.022  0.0460  0.1885 -0.4572
   28MOL    C24 8718   7.637   2.829   4.803  0.0462  0.3412  0.2817
   28MOL    C25 8719   7.708   2.894   4.696 -0.2651  0.0494  0.2971
   28MOL    C26 8720   7.696   3.195   4.472  0.5009  0.5498 -0.5999
   28MOL    H27 8721   7.820   3.031   4.503  0.4280  0.7496  0.4632
   28MOL    H28 8722   7.666   3.220   4.770  2.8406 -0.0869 -2.3575
   28MOL    H29 8723   7.548   3.094   4.980 -1.5470  1.1966 -1.1533
   28MOL    H30 8724   7.633   2.721   4.810  4.6903 -0.1516 -2.5224
   28MOL    H31 8725   7.754   2.827   4.625 -0.9331  0.2333 -0.3165
   28MOL    H32 8726   7.645   3.272   4.530  0.9841  0.5803 -0.2165
   28MOL    H33 8727   7.765   3.246   4.406  1.0941 -2.6769 -2.5598
   28MOL    C34 8728   7.590   3.116   4.385 -0.4379 -0.3345  0.0502
   28MOL    C35 8729   7.464   3.198   4.346 -0.6113  0.3802 -0.7020
   28MOL    C36 8730   7.466   3.335   4.317 -0.2217  0.1337 -0.3768
   28MOL    C37 8731   7.348   3.399   4.288 -0.0564  0.5066 -0.1953
   28MOL    C38 8732   7.221   3.334   4.287  0.5311 -0.5617 -0.0166
   28MOL   Cl39 8733   7.070   3.418   4.268 -0.4069 -0.0016 -0.2591
   28MOL    C40 8734   7.223   3.196   4.313  0.2704  0.0820 -0.3704
   28MOL    C41 8735   7.343   3.127   4.341 -0.6194 -0.5396 -0.4956
   28MOL    C42 8736   7.653   3.042   4.270 -0.6801 -1.2529 -0.1348
   28MOL    H43 8737   7.560   3.036   4.453 -0.9474  0.5681  0.8912
   28MOL    H44 8738   7.557   3.393   4.315 -0.0993 -0.0733 -0.7859
   28MOL    H45 8739   7.336   3.504   4.264 -1.0739  0.4111 -0.1230
   28MOL    H46 8740   7.128   3.145   4.320  1.2992 -1.6146  1.9168
   28MOL    H47 8741   7.347   3.020   4.361 -1.9386 -0.4228  0.4739
   28MOL    H48 8742   7.652   3.105   4.181  0.3860 -1.6276 -0.4235
   28MOL    H49 8743   7.754   3.014   4.298 -1.0581 -1.5435  0.9643
   28MOL    C50 8744   7.592   2.902   4.231 -0.0416 -0.2605 -1.0375
   28MOL    C51 8745   7.626   2.873   4.086  0.4423  0.5985 -0.4937
   28MOL    C52 8746   7.763   2.849   4.049  0.5405 -0.4508 -0.3031
   28MOL    C53 8747   7.789   2.801   3.919 -0.4634  0.0696 -0.5006
   28MOL    C54 8748   7.686   2.780   3.827  0.2292  0.4980 -0.8689
   28MOL   Cl55 8749   7.723   2.722   3.672 -0.2267  0.2187 -0.0214
   28MOL    C56 8750   7.554   2.802   3.865 -0.5127  0.0065 -0.3868
   28MOL    C57 8751   7.523   2.849   3.992 -0.7270  0.0443 -0.0501
   28MOL    C58 8752   7.651   2.788   4.321  0.3733 -0.3137  0.7097
   28MOL    H59 8753   7.484   2.903   4.241 -0.0792 -1.5885 -1.1922
   28MOL    H60 8754   7.834   2.871   4.128  0.0914 -1.5666  0.4097
   28MOL    H61 8755   7.894   2.785   3.899 -0.4965  3.2225 -3.7433
   28MOL    H62 8756   7.466   2.791   3.803  1.0205  0.0899 -2.6663
   28MOL    H63 8757   7.420   2.855   4.024 -0.9203  1.0946 -0.8540
   28MOL    H64 8758   7.754   2.768   4.293  0.5370 -1.2536  1.9496
   28MOL    H65 8759   7.660   2.820   4.425  1.7655 -1.0928  0.8296
   28MOL    C66 8760   7.581   2.650   4.315 -0.3768  0.0250  0.9638
   28MOL    C67 8761   7.686   2.541   4.318 -0.2488 -0.2130 -0.0643
   28MOL    C68 8762   7.688   2.445   4.218  0.5241  0.1275 -0.7351
   28MOL    C69 8763   7.783   2.341   4.219  0.0580  0.7250 -0.4193
   28MOL    C70 8764   7.875   2.333   4.324 -0.5205 -0.4266 -0.5754
   28MOL   Cl71 8765   7.991   2.198   4.337  0.4499  0.0596  0.1795
   28MOL    C72 8766   7.870   2.428   4.431  0.8205 -0.0044 -0.1584
   28MOL    C73 8767   7.770   2.533   4.435  0.2159  0.7921  0.3673
   28MOL    C74 8768   7.477   2.634   4.425  0.1360  0.0685 -0.5038
   28MOL    H75 8769   7.529   2.631   4.221  2.1984  0.5826 -0.6133
   28MOL    H76 8770   7.619   2.448   4.135  1.1197 -0.0081 -1.2349
   28MOL    H77 8771   7.774   2.272   4.137 -1.3005 -2.3462  2.2024
   28MOL    H78 8772   7.945   2.423   4.508  0.3653 -1.6317  0.2059
   28MOL    H79 8773   7.768   2.613   4.508  3.0698 -0.6960  2.1505
   28MOL    H80 8774   7.481   2.529   4.453  2.2075  0.5285  1.0508
   28MOL    H81 8775   7.517   2.689   4.510  0.2047  1.6986 -1.5695
   28MOL    C82 8776   7.329   2.694   4.402  0.1092  0.2168 -0.1511
   28MOL    C83 8777   7.281   2.672   4.260 -0.1032 -0.0454 -0.0019
   28MOL    C84 8778   7.210   2.776   4.197 -0.1989  0.2627 -0.6337
   28MOL    C85 8779   7.167   2.761   4.064  0.2638 -0.2274 -0.4770
   28MOL    C86 8780   7.189   2.649   3.996  0.3654  0.1094  0.2181
   28MOL   Cl87 8781   7.127   2.631   3.836 -0.0270  0.3646 -0.1485
   28MOL    C88 8782   7.241   2.537   4.066  0.1094 -0.3540  0.4200
   28MOL    C89 8783   7.289   2.545   4.194  0.4680 -0.0845  0.6549
   28MOL    C90 8784   7.222   2.654   4.503  0.2767 -0.2631  0.4577
   28MOL    H91 8785   7.341   2.802   4.412 -0.1626  0.0438  2.3520
   28MOL    H92 8786   7.182   2.863   4.255  0.3081  1.0680 -1.5921
   28MOL    H93 8787   7.113   2.839   4.013 -2.6198 -0.3420  2.2612
   28MOL    H94 8788   7.244   2.440   4.016  0.4203  0.4411 -1.1526
   28MOL    H95 8789   7.323   2.453   4.238  2.4029 -0.2290 -1.0960
   28MOL    H96 8790   7.120   2.668   4.465  1.6770  1.4723 -2.9360
   28MOL    H97 8791   7.221   2.545   4.505  0.5799 -0.3123 -1.2114
   28MOL    C98 8792   7.229   2.718   4.638 -0.2973 -0.0550  0.3956
   28MOL    C99 8793   7.201   2.866   4.634 -0.2103 -0.7213 -0.7051
   28MOL   C100 8794   7.301   2.958   4.682 -0.4135  0.2599  0.8125
   28MOL   C101 8795   7.279   3.098   4.687  0.7721 -0.2175  0.5359
   28MOL   C102 8796   7.155   3.149   4.638 -0.6982  0.1841  0.0285
   28MOL  Cl103 8797   7.131   3.320   4.642  0.0199  0.0747  0.1414
   28MOL   C104 8798   7.055   3.062   4.596  0.1822 -0.5085 -0.6787
   28MOL   C105 8799   7.074   2.922   4.597  0.9533 -0.4645 -0.1737
   28MOL   C106 8800   7.138   2.644   4.744  0.6483  0.1431  0.1303
   28MOL   H107 8801   7.327   2.706   4.684  0.5081  1.2453 -0.9504
   28MOL   H108 8802   7.399   2.918   4.706  0.2638  1.2107 -0.3156
   28MOL   H109 8803   7.353   3.167   4.723 -0.3235  0.4645  1.5050
   28MOL   H110 8804   6.959   3.090   4.554 -1.7228 -0.3174  3.4789
   28MOL   H111 8805   6.996   2.856   4.561 -0.3087 -0.0337  1.7192
   28MOL   H112 8806   7.151   2.706   4.833 -1.0311 -0.5322  0.8700
   28MOL   H113 8807   7.034   2.646   4.713  1.2939 -2.3216 -2.4577
   28MOL   C114 8808   7.162   2.496   4.766  0.2612  0.0842 -0.2769
   28MOL   C115 8809   7.312   2.472   4.805  0.0766  0.5011 -0.1340
   28MOL   C116 8810   7.393   2.417   4.704  0.0369 -0.7195  0.2253
   28MOL   C117 8811   7.533   2.415   4.713  0.4654 -0.2695  0.0790
   28MOL   C118 8812   7.593   2.461   4.827  0.8527  0.0524 -0.2994
   28MOL  Cl119 8813   7.767   2.447   4.845 -0.1230 -0.0379 -0.1690
   28MOL   C120 8814   7.510   2.499   4.935 -0.2601 -0.1170 -0.2077
   28MOL   C121 8815   7.373   2.519   4.924 -0.2690  0.2062 -0.0837
   28MOL   C122 8816   7.065   2.443   4.876 -0.1409 -0.8172  0.1539
   28MOL   H123 8817   7.118   2.437   4.686 -0.2030 -0.3114  0.2657
   28MOL   H124 8818   7.342   2.386   4.614 -0.3245 -0.5254  0.3611
   28MOL   H125 8819   7.598   2.378   4.635  0.1030 -0.8080  0.0309
   28MOL   H126 8820   7.549   2.543   5.025  0.2480 -3.4144  1.2370
   28MOL   H127 8821   7.308   2.551   5.004  1.4087 -2.6719  2.5169
   28MOL   H128 8822   7.099   2.346   4.914 -0.9518 -1.9886 -2.0289
   28MOL   H129 8823   7.080   2.503   4.965 -2.1434 -0.5367  0.3066
   28MOL   C130 8824   6.909   2.427   4.842 -1.6367  0.0689  0.0093
   28MOL   C131 8825   6.893   2.304   4.754  0.1941 -0.1138  0.4224
   28MOL   C132 8826   6.831   2.312   4.626  0.4587 -0.1474  0.1317
   28MOL   C133 8827   6.805   2.197   4.547 -0.9894 -0.5713  0.3343
   28MOL   C134 8828   6.849   2.072   4.589  0.6312 -0.4813 -0.4915
   28MOL  Cl135 8829   6.813   1.937   4.493 -0.0457  0.1532  0.3079
   28MOL   C136 8830   6.914   2.066   4.716 -1.0326  0.1508 -0.0634
   28MOL   C137 8831   6.933   2.177   4.795  0.4185  0.2103  0.0038
   28MOL   C138 8832   6.827   2.412   4.977  0.6468 -0.6229  0.5926
   28MOL   H139 8833   6.878   2.516   4.787  0.9256  1.0615  0.1050
   28MOL   H140 8834   6.806   2.410   4.591  0.2373  0.1089  0.9872
   28MOL   H141 8835   6.760   2.200   4.450 -1.1573 -0.8024  0.4069
   28MOL   H142 8836   6.952   1.969   4.745  1.6481  0.7799 -1.2910
   28MOL   H143 8837   6.983   2.160   4.890 -3.5447 -2.1440  1.8206
   28MOL   H144 8838   6.726   2.378   4.954  1.1684 -1.5528 -0.3708
   28MOL   H145 8839   6.860   2.331   5.042 -1.3613 -0.0079  2.4326
   28MOL   C146 8840   6.829   2.529   5.081  0.9372  0.0062 -0.5938
   28MOL   C147 8841   6.791   2.665   5.014  0.0748  0.2717 -0.2905
   28MOL   C148 8842   6.887   2.764   5.003 -0.0326  0.6830  0.5781
   28MOL   C149 8843   6.858   2.882   4.928 -0.4254 -0.4093  0.7961
   28MOL   C150 8844   6.740   2.894   4.860  0.0793  0.4998  0.5159
   28MOL  Cl151 8845   6.721   3.025   4.753 -0.4933  0.4219  0.2091
   28MOL   C152 8846   6.638   2.798   4.875 -0.1391  0.3262  0.1555
   28MOL   C153 8847   6.661   2.683   4.952 -0.8495 -0.3214 -0.2330
   28MOL   C154 8848   6.743   2.512   5.204  0.2335 -0.9165  0.1467
   28MOL   H155 8849   6.928   2.528   5.125  0.8158 -0.5402 -0.3280
   28MOL   H156 8850   6.985   2.766   5.050  0.5346 -0.7451 -0.5012
   28MOL   H157 8851   6.919   2.971   4.927 -0.3783 -0.4417  0.8960
   28MOL   H158 8852   6.544   2.813   4.825 -1.9625  0.5316  3.5002
   28MOL   H159 8853   6.587   2.604   4.949  0.7308 -1.9694  2.3410
   28MOL   H160 8854   6.639   2.537   5.184  0.1657  0.4627  2.0898
   28MOL   H161 8855   6.748   2.410   5.242  0.5527 -1.4308 -1.2427
   28MOL   C162 8856   6.781   2.595   5.330 -0.8124  0.1594 -0.6667
   28MOL   C163 8857   6.669   2.624   5.426  0.7249 -0.4049 -0.4693
   28MOL   C164 8858   6.626   2.525   5.521  0.2328  0.3123 -0.3754
   28MOL   C165 8859   6.534   2.567   5.618 -0.2172 -0.1014 -0.1799
   28MOL   C166 8860   6.482   2.699   5.621  0.5352  0.2517 -0.4577
   28MOL  Cl167 8861   6.384   2.755   5.747  0.2561 -0.1263  0.1493
   28MOL   C168 8862   6.513   2.786   5.518 -0.2057  0.0349 -0.4709
   28MOL   C169 8863   6.610   2.756   5.426  0.0578 -0.2585 -0.2971
   28MOL   C170 8864   6.911   2.542   5.392 -0.2289 -0.5275  0.0785
   28MOL   H171 8865   6.802   2.690   5.281  1.4678 -0.2132 -0.4582
   28MOL   H172 8866   6.668   2.426   5.514  0.0537  0.2536 -0.6239
   28MOL   H173 8867   6.493   2.490   5.681  0.9086 -0.2844  0.3311
   28MOL   H174 8868   6.464   2.883   5.519  0.9165  0.6042 -0.0149
   28MOL   H175 8869   6.631   2.846   5.369  0.4988  1.3409  2.2918
   28MOL   H176 8870   6.903   2.435   5.412  1.2968 -1.0320 -1.8575
   28MOL   H177 8871   7.000   2.550   5.329 -1.7763 -1.3515 -2.2925
   28MOL   C178 8872   6.946   2.617   5.525  0.4631  0.5943 -0.2262
   28MOL   C179 8873   7.065   2.549   5.591  0.6483  0.6117  0.1538
   28MOL   C180 8874   7.195   2.577   5.549 -0.7027 -0.3608  0.6846
   28MOL   C181 8875   7.300   2.522   5.623 -0.4279  0.6456  0.4302
   28MOL   C182 8876   7.276   2.432   5.733  0.3347 -0.9005 -0.3648
   28MOL  Cl183 8877   7.394   2.373   5.837  0.0936 -0.1258 -0.2190
   28MOL   C184 8878   7.141   2.390   5.760 -0.1609  0.3788 -0.3171
   28MOL   C185 8879   7.035   2.454   5.693 -0.1066  0.4556 -0.3880
   28MOL   C186 8880   6.961   2.770   5.503 -0.3025  0.2123  0.4055
   28MOL   H187 8881   6.860   2.615   5.591 -0.6558 -1.6927 -1.7112
   28MOL   H188 8882   7.208   2.644   5.465  0.4766 -0.9478  0.3933
   28MOL   H189 8883   7.404   2.537   5.599  0.2688  0.6889  3.2487
   28MOL   H190 8884   7.122   2.330   5.848  0.0772 -0.3686 -0.7723
   28MOL   H191 8885   6.937   2.422   5.723 -0.0175  0.1277 -0.4504
   28MOL   H192 8886   7.030   2.795   5.422 -0.8258  1.9814  0.4857
   28MOL   H193 8887   6.865   2.816   5.479 -0.1528  1.0742  1.4056
   28MOL   C194 8888   7.009   2.851   5.631  0.1418 -0.1949  0.6552
   28MOL   C195 8889   7.058   2.995   5.594  0.1459 -0.0883  0.0476
   28MOL   C196 8890   6.967   3.089   5.533 -0.4529 -0.0330 -0.2083
   28MOL   C197 8891   7.023   3.207   5.489  0.1878  0.1388  0.2258
   28MOL   C198 8892   7.156   3.242   5.512  0.2586  0.3379  0.0609
   28MOL  Cl199 8893   7.206   3.400   5.472  0.4379  0.1080 -0.1341
   28MOL   C200 8894   7.239   3.162   5.595  0.6459  0.3747  0.5384
   28MOL   C201 8895   7.187   3.040   5.640 -0.3764 -0.5711 -0.1974
   28MOL   C202 8896   6.898   2.862   5.735 -0.0340  0.4996  0.3612
   28MOL   H203 8897   7.098   2.802   5.672  0.2488 -0.2051  0.4116
   28MOL   H204 8898   6.866   3.060   5.510  0.3045 -1.8898 -1.2868
   28MOL   H205 8899   6.963   3.273   5.428 -0.3443 -1.5580 -1.1445
   28MOL   H206 8900   7.342   3.190   5.616  0.6879 -0.0961  0.9674
   28MOL   H207 8901   7.248   2.975   5.702  0.5038  0.4818  0.0488
   28MOL   H208 8902   6.808   2.894   5.682 -0.4916  0.3812  1.0547
   28MOL   H209 8903   6.868   2.761   5.763 -0.0971  0.8371  1.5197
   28MOL   C210 8904   6.923   2.953   5.861 -0.6142  0.0354  0.3066
   28MOL   C211 8905   6.800   3.043   5.879  1.0635 -0.7627 -0.2970
   28MOL   C212 8906   6.807   3.176   5.863  0.0948 -0.4936  0.4969
   28MOL   C213 8907   6.696   3.255   5.891  0.9874  0.4432  0.2140
   28MOL   C214 8908   6.571   3.190   5.924 -0.1787 -0.3238  0.3695
   28MOL  Cl215 8909   6.434   3.297   5.964 -0.0240  0.1755 -0.1190
   28MOL   C216 8910   6.558   3.052   5.911  0.0280  1.2095  1.4790
   28MOL   C217 8911   6.669   2.972   5.888 -0.0627 -0.3653  0.2588
   28MOL   C218 8912   6.954   2.875   5.989 -0.4802 -0.1142 -0.1236
   28MOL   H219 8913   7.012   3.016   5.854 -0.4051 -0.1251  1.3727
   28MOL   H220 8914   6.893   3.234   5.832 -1.9764  0.0235 -4.8296
   28MOL   H221 8915   6.700   3.362   5.882  1.7048  0.5270  1.4028
   28MOL   H222 8916   6.461   3.005   5.920  0.3904 -0.4300 -2.2891
   28MOL   H223 8917   6.665   2.866   5.905 -0.1268 -0.4502 -0.2914
   28MOL   H224 8918   6.881   2.800   6.021 -1.3475  0.3242 -1.0607
   28MOL   H225 8919   7.039   2.808   5.972  0.5495  0.3003  3.1723
   28MOL   C226 8920   6.989   2.960   6.115  0.3878 -0.1488  0.2181
   28MOL   C227 8921   6.868   3.009   6.196  0.0225  0.8889  0.5095
   28MOL   C228 8922   6.760   2.917   6.217  0.3848  0.9344  0.4814
   28MOL   C229 8923   6.654   2.965   6.292  0.4918  0.4227 -0.0150
   28MOL   C230 8924   6.648   3.090   6.349 -0.5354 -0.0352  0.4455
   28MOL  Cl231 8925   6.510   3.131   6.452  0.5374 -0.5241 -0.1237
   28MOL   C232 8926   6.752   3.185   6.319 -0.3351 -0.6304 -0.3539
   28MOL   C233 8927   6.861   3.144   6.248 -0.3761  0.5017 -0.4404
   28MOL   C234 8928   7.111   2.914   6.194  0.1029  0.3345 -0.5274
   28MOL   H235 8929   7.023   3.054   6.073  0.7919  0.2134  1.3553
   28MOL   H236 8930   6.767   2.813   6.191 -0.6672  1.0546 -0.3078
   28MOL   H237 8931   6.572   2.899   6.312 -0.1347  1.1595 -0.1372
   28MOL   H238 8932   6.753   3.281   6.368  2.7728 -1.1453  0.7186
   28MOL   H239 8933   6.952   3.201   6.234 -0.0372  0.4677  1.5118
   28MOL   H240 8934   7.198   2.890   6.133  1.3467 -0.1104  1.3681
   28MOL   H241 8935   7.155   3.003   6.240  0.6562 -1.5562  2.7048
   28MOL   C242 8936   7.081   2.819   6.311 -0.6598 -0.0198 -0.1179
   28MOL   C243 8937   7.072   2.673   6.270  0.4619  0.4737 -0.0378
   28MOL   C244 8938   6.950   2.608   6.292 -0.0723  1.0241  0.5897
   28MOL   C245 8939   6.936   2.473   6.247 -0.2810  0.6021 -0.2348
   28MOL   C246 8940   7.041   2.408   6.177  0.3777 -0.9222  0.1716
   28MOL  Cl247 8941   7.005   2.256   6.126 -0.0351  0.4720 -0.5109
   28MOL   C248 8942   7.163   2.478   6.151  0.7273  0.0376 -0.4071
   28MOL   C249 8943   7.174   2.612   6.191  0.1812  0.0108 -0.2213
   28MOL   C250 8944   7.196   2.841   6.412  0.1011 -0.5398  0.1584
   28MOL   H251 8945   6.991   2.857   6.359 -0.1523  1.7224 -0.5272
   28MOL   H252 8946   6.866   2.655   6.342 -1.1357 -0.4949  0.2555
   28MOL   H253 8947   6.843   2.422   6.264  0.6348 -0.5151  1.5465
   28MOL   H254 8948   7.236   2.436   6.083 -0.4613 -1.9095 -0.5338
   28MOL   H255 8949   7.273   2.654   6.176  0.6141 -0.8132  0.2648
   28MOL   H256 8950   7.202   2.750   6.472 -1.0103 -0.0141  1.0924
   28MOL   H257 8951   7.293   2.845   6.363 -0.0280  2.3916  0.0747
   28MOL   C258 8952   7.185   2.957   6.517  0.3333  0.0487  0.7620
   28MOL   C259 8953   7.068   2.946   6.599  0.2667  0.4405 -0.4906
   28MOL   C260 8954   6.960   3.039   6.586 -1.0459  0.0421 -0.9572
   28MOL   C261 8955   6.843   3.034   6.662 -0.3808 -0.4638 -0.5033
   28MOL   C262 8956   6.825   2.926   6.747 -0.3065  0.0902  0.1363
   28MOL  Cl263 8957   6.686   2.926   6.850 -0.2041 -0.9182 -0.1980
   28MOL   C264 8958   6.919   2.828   6.759  0.3115 -0.7550 -1.2941
   28MOL   C265 8959   7.043   2.835   6.689  0.9585 -0.1187 -0.5590
   28MOL   C266 8960   7.309   2.964   6.606  1.1494  0.1044  0.1212
   28MOL   H267 8961   7.165   3.053   6.470 -2.3307 -0.0957  1.4879
   28MOL   H268 8962   6.975   3.118   6.515  2.5525 -2.9577 -3.7709
   28MOL   H269 8963   6.757   3.099   6.656 -0.1227 -0.1832 -1.1597
   28MOL   H270 8964   6.898   2.751   6.832 -0.6753 -0.5569 -1.3672
   28MOL   H271 8965   7.115   2.760   6.717  1.5640 -0.3193 -2.5782
   28MOL   H272 8966   7.288   2.943   6.711  0.7794  2.5888  0.5580
   28MOL   H273 8967   7.363   2.873   6.580  1.5841  0.6708 -0.9714
   28MOL   C274 8968   7.408   3.075   6.586  0.4721  0.3075 -0.8228
   28MOL   C275 8969   7.349   3.215   6.621 -0.0210 -0.0565  0.6305
   28MOL   C276 8970   7.393   3.325   6.547  0.9985 -0.9564  0.1113
   28MOL   C277 8971   7.326   3.450   6.557 -0.3765  0.1876  0.1403
   28MOL   C278 8972   7.221   3.461   6.645  0.1210  0.2677 -0.2878
   28MOL  Cl279 8973   7.156   3.616   6.672  0.4511  0.3748  0.4648
   28MOL   C280 8974   7.184   3.355   6.730  0.5055  0.7872  0.0757
   28MOL   C281 8975   7.248   3.228   6.721  0.0432  0.1209  0.4795
   28MOL   C282 8976   7.545   3.050   6.660 -1.1282  0.0224  0.1360
   28MOL   H283 8977   7.423   3.069   6.478 -1.8591 -0.0914 -1.1500
   28MOL   H284 8978   7.467   3.317   6.468 -1.0515 -1.0109 -1.8661
   28MOL   H285 8979   7.358   3.532   6.494 -1.2463  1.6702  1.6016
   28MOL   H286 8980   7.112   3.364   6.810  1.2379  0.2736  0.7971
   28MOL   H287 8981   7.213   3.142   6.775  2.2322 -1.4731 -0.5508
   28MOL   H288 8982   7.599   3.144   6.649 -0.8200 -0.1330  0.3326
   28MOL   H289 8983   7.523   3.040   6.766 -0.9023 -0.4273  0.1429
   28MOL   C290 8984   7.637   2.931   6.619  0.5402 -0.1570  0.0855
   28MOL   C291 8985   7.625   2.919   6.468  0.1977  0.1096  0.7945
   28MOL   C292 8986   7.662   3.019   6.377 -0.2752 -0.2520 -0.2406
   28MOL   C293 8987   7.641   2.995   6.238 -0.3854 -0.2992  0.3658
   28MOL   C294 8988   7.618   2.861   6.198 -0.0586 -0.5401 -0.1569
   28MOL  Cl295 8989   7.587   2.824   6.035  0.2695  0.0723 -0.0412
   28MOL   C296 8990   7.587   2.762   6.286  0.0923 -0.1121  1.0125
   28MOL   C297 8991   7.591   2.787   6.423  0.7817  0.0824 -0.1866
   28MOL   C298 8992   7.779   2.948   6.653 -0.8867 -0.1534 -0.6215
   28MOL   H299 8993   7.607   2.843   6.676 -1.3482  2.1726  2.8241
   28MOL   H300 8994   7.702   3.112   6.415 -0.4401 -0.4640  0.4490
   28MOL   H301 8995   7.650   3.077   6.168  0.7464 -0.8904 -0.2087
   28MOL   H302 8996   7.561   2.662   6.255  1.1637 -0.3042  0.7241
   28MOL   H303 8997   7.561   2.706   6.487 -2.9894  2.5937  1.4051
   28MOL   H304 8998   7.830   2.865   6.604 -1.6442 -1.1204  0.1969
   28MOL   H305 8999   7.820   3.047   6.635  0.0378 -0.3183  0.5351
   28MOL   C306 9000   7.816   2.911   6.798 -0.9230  0.7357 -1.0101
   28MOL   C307 9001   7.957   2.872   6.799 -0.7381 -0.0811 -0.5466
   28MOL   C308 9002   8.063   2.962   6.795 -0.1257 -0.3641  0.1965
   28MOL   C309 9003   8.195   2.910   6.805  0.5367  0.3828  0.5788
   28MOL   C310 9004   8.223   2.775   6.831  0.0029 -0.0801  0.4561
   28MOL  Cl311 9005   8.390   2.720   6.845 -0.1957 -0.0743  0.3514
   28MOL   C312 9006   8.118   2.685   6.833  0.0139 -0.7601  0.1122
   28MOL   C313 9007   7.987   2.734   6.827 -0.3824  0.1826  0.0223
   28MOL   C314 9008   7.785   3.020   6.909 -0.3288 -0.9260  0.4050
   28MOL   H315 9009   7.747   2.828   6.816 -1.3883  1.2574 -0.3748
   28MOL   H316 9010   8.062   3.070   6.793 -1.0870 -0.3318  1.3845
   28MOL   H317 9011   8.280   2.976   6.812  1.0358 -0.0250 -1.3815
   28MOL   H318 9012   8.131   2.578   6.837 -0.3166 -0.8187 -0.4812
   28MOL   H319 9013   7.903   2.667   6.825  2.1848 -3.1832  0.8086
   28MOL   H320 9014   7.828   2.989   7.004 -1.9710 -1.5565  0.9524
   28MOL   H321 9015   7.821   3.119   6.879 -1.7956 -1.3426 -2.9332
   28MOL   H322 9016   7.676   3.027   6.916 -0.3804 -2.0079  0.6360
   29MOL     C1 9017   6.713   5.840   4.821 -0.5353  0.0067 -0.1349
   29MOL     C2 9018   6.651   5.969   4.781  0.2857  0.2493 -0.7807
   29MOL     C3 9019   6.513   5.988   4.801  0.3367 -0.0256  0.1620
   29MOL     C4 9020   6.448   6.106   4.756 -0.5097  0.1460 -0.6031
   29MOL     C5 9021   6.527   6.215   4.714 -0.0177  0.7705  0.6698
   29MOL    Cl6 9022   6.451   6.356   4.655  0.3172 -0.4704 -0.4257
   29MOL     C7 9023   6.668   6.205   4.700  0.8892  0.3835  0.1707
   29MOL     C8 9024   6.731   6.081   4.726  0.1167  0.2449  0.1883
   29MOL     C9 9025   6.740   5.835   4.978  0.7176 -0.3919  0.2725
   29MOL    H10 9026   6.796   5.833   4.752 -1.1340 -0.2328 -0.8371
   29MOL    H11 9027   6.451   5.906   4.834  1.1623 -0.6263  0.2176
   29MOL    H12 9028   6.342   6.122   4.760 -0.4316  0.2903  1.2499
   29MOL    H13 9029   6.714   6.286   4.646  0.3564 -0.5324 -1.6738
   29MOL    H14 9030   6.838   6.070   4.720  0.0207 -1.0011  0.6640
   29MOL    H15 9031   6.811   5.915   4.999  1.4543 -1.4664  1.9691
   29MOL    H16 9032   6.650   5.854   5.037  0.5150 -0.2493 -0.0794
   29MOL    H17 9033   6.644   5.756   4.818 -0.4968 -0.1601  2.4084
   29MOL    C18 9034   6.786   5.695   5.015 -0.7830  0.8175  0.2990
   29MOL    C19 9035   6.900   5.641   4.937  0.9977 -0.1577  0.3992
   29MOL    C20 9036   6.901   5.518   4.866 -0.2970 -0.0698  0.4964
   29MOL    C21 9037   7.015   5.461   4.802  0.0839 -0.4581 -0.3526
   29MOL    C22 9038   7.136   5.528   4.821 -0.1098 -0.0629 -0.0037
   29MOL   Cl23 9039   7.282   5.464   4.770  0.0101 -0.4152  0.4107
   29MOL    C24 9040   7.137   5.658   4.878 -0.4377 -0.2489  0.9674
   29MOL    C25 9041   7.022   5.710   4.937 -0.2135 -0.4682 -0.7195
   29MOL    C26 9042   6.809   5.689   5.172  0.3502 -0.3962  0.7275
   29MOL    H27 9043   6.713   5.616   4.996 -0.3777  0.1470  1.5131
   29MOL    H28 9044   6.806   5.467   4.863  0.4602 -1.5034  0.5627
   29MOL    H29 9045   7.002   5.363   4.758 -1.5798 -1.4400  2.1741
   29MOL    H30 9046   7.229   5.714   4.875 -0.2568 -0.6152 -0.3237
   29MOL    H31 9047   7.043   5.799   4.995  0.6258 -1.1842  0.0955
   29MOL    H32 9048   6.914   5.686   5.198  0.0024 -1.2651  2.0569
   29MOL    H33 9049   6.770   5.780   5.216 -1.1744 -1.0709  0.8158
   29MOL    C34 9050   6.750   5.566   5.240  0.1664  0.8476 -0.6986
   29MOL    C35 9051   6.804   5.433   5.186  0.1696 -0.4511 -0.5383
   29MOL    C36 9052   6.719   5.360   5.104  0.9736 -0.3887 -0.6766
   29MOL    C37 9053   6.763   5.240   5.038  0.3538 -0.5198 -0.7359
   29MOL    C38 9054   6.899   5.203   5.044 -0.0901 -0.0118  0.6509
   29MOL   Cl39 9055   6.954   5.063   4.955  0.0784 -0.1150  0.2103
   29MOL    C40 9056   6.986   5.280   5.123 -0.1593 -0.3594  0.6616
   29MOL    C41 9057   6.938   5.392   5.194  0.4392 -0.8612  0.2426
   29MOL    C42 9058   6.779   5.570   5.392  0.8058  0.1673 -0.2977
   29MOL    H43 9059   6.641   5.569   5.243  0.1338 -1.0974  1.0412
   29MOL    H44 9060   6.620   5.399   5.089  0.1509 -0.3642  3.9609
   29MOL    H45 9061   6.704   5.184   4.966  0.0436  0.3168 -1.1346
   29MOL    H46 9062   7.087   5.244   5.131 -0.2107 -1.2604 -2.3307
   29MOL    H47 9063   7.007   5.460   5.243 -0.5489 -1.0467  1.9411
   29MOL    H48 9064   6.886   5.569   5.415  0.5165 -1.6909  0.9994
   29MOL    H49 9065   6.750   5.663   5.442 -0.9449  0.7001 -2.2433
   29MOL    C50 9066   6.720   5.457   5.480 -0.0676  0.5669 -0.5653
   29MOL    C51 9067   6.799   5.452   5.615 -0.0082  0.1538  0.8123
   29MOL    C52 9068   6.894   5.353   5.631 -1.3336  0.0409 -0.6848
   29MOL    C53 9069   6.971   5.342   5.746  0.2746 -0.9618 -0.0715
   29MOL    C54 9070   6.961   5.446   5.841 -0.2117  0.1937 -0.3216
   29MOL   Cl55 9071   7.050   5.442   5.984  0.7682  0.1981  0.5757
   29MOL    C56 9072   6.869   5.554   5.834  1.1068  0.4772  0.7336
   29MOL    C57 9073   6.785   5.550   5.717 -0.0438 -0.0735 -0.2417
   29MOL    C58 9074   6.564   5.457   5.501  0.2033 -0.5756  0.6884
   29MOL    H59 9075   6.755   5.363   5.436  1.7054  1.8218 -1.8869
   29MOL    H60 9076   6.914   5.269   5.566 -1.3020 -1.1713  0.8525
   29MOL    H61 9077   7.049   5.271   5.769  0.7350 -0.4803 -0.1224
   29MOL    H62 9078   6.858   5.622   5.917 -0.6674  1.8800 -0.6062
   29MOL    H63 9079   6.714   5.630   5.705 -1.2790 -1.2961 -1.2535
   29MOL    H64 9080   6.539   5.444   5.606 -3.4973  0.5158  0.0282
   29MOL    H65 9081   6.536   5.562   5.488  1.8349 -0.2857 -0.5741
   29MOL    C66 9082   6.488   5.352   5.410 -1.2294  0.0561 -0.3513
   29MOL    C67 9083   6.536   5.207   5.435 -0.0240 -0.3004 -0.3882
   29MOL    C68 9084   6.532   5.117   5.327 -0.0909  0.0378 -0.2370
   29MOL    C69 9085   6.586   4.992   5.335 -0.1084 -0.7615 -0.8203
   29MOL    C70 9086   6.618   4.939   5.461 -0.7042  0.1755 -0.5081
   29MOL   Cl71 9087   6.678   4.781   5.485 -0.0723  0.3266 -0.1182
   29MOL    C72 9088   6.626   5.029   5.569  0.8292  0.7033 -0.2852
   29MOL    C73 9089   6.584   5.164   5.560  1.3072  0.3654 -0.3590
   29MOL    C74 9090   6.342   5.365   5.441  0.5088  0.0614  1.0760
   29MOL    H75 9091   6.504   5.376   5.305  0.9023  2.1387  0.4173
   29MOL    H76 9092   6.509   5.167   5.234  0.1309  2.5897  1.0358
   29MOL    H77 9093   6.600   4.921   5.254  2.3161 -1.1648 -0.0905
   29MOL    H78 9094   6.650   4.992   5.668 -1.4609  2.0995  0.8361
   29MOL    H79 9095   6.590   5.235   5.641  0.9855  0.1959 -0.1864
   29MOL    H80 9096   6.301   5.276   5.393  3.5581 -0.2702 -1.0964
   29MOL    H81 9097   6.319   5.355   5.547 -2.4672  1.6094  0.6458
   29MOL    C82 9098   6.256   5.476   5.368  0.0049 -0.0060 -0.1596
   29MOL    C83 9099   6.286   5.501   5.221  0.0622  0.0118 -0.1254
   29MOL    C84 9100   6.278   5.396   5.131  0.2139 -0.2818  0.5993
   29MOL    C85 9101   6.333   5.410   5.005 -0.2916 -0.0232  0.1979
   29MOL    C86 9102   6.385   5.532   4.965  0.8875 -0.0604 -0.3311
   29MOL   Cl87 9103   6.476   5.545   4.823 -0.0621  0.5005  0.0968
   29MOL    C88 9104   6.377   5.642   5.058 -0.5614  0.0168 -0.0032
   29MOL    C89 9105   6.329   5.625   5.188  0.1367  0.3742  0.1653
   29MOL    C90 9106   6.101   5.463   5.402 -0.4739  0.0296  0.5756
   29MOL    H91 9107   6.288   5.562   5.427 -2.3064  0.1356  0.9070
   29MOL    H92 9108   6.262   5.293   5.158  2.3530 -0.9827 -0.6716
   29MOL    H93 9109   6.359   5.321   4.950 -0.5453 -1.4267  2.2881
   29MOL    H94 9110   6.425   5.738   5.044  1.4153 -0.8140  0.9074
   29MOL    H95 9111   6.320   5.712   5.252 -1.0442 -0.2727  0.8782
   29MOL    H96 9112   6.046   5.525   5.332 -3.3661 -1.0018  1.8759
   29MOL    H97 9113   6.079   5.360   5.374  0.1556  0.5854 -2.1719
   29MOL    C98 9114   6.051   5.486   5.541  0.7637 -0.4702 -0.5483
   29MOL    C99 9115   6.118   5.607   5.606 -0.3991 -0.5519  0.0766
   29MOL   C100 9116   6.118   5.733   5.544  0.1885 -0.6038  1.3376
   29MOL   C101 9117   6.179   5.845   5.603  0.4723  0.0848  0.5840
   29MOL   C102 9118   6.240   5.821   5.728  0.0231 -0.8728  0.2910
   29MOL  Cl103 9119   6.327   5.957   5.791  0.5003 -0.0186  0.1382
   29MOL   C104 9120   6.236   5.696   5.801 -0.2847 -0.3012  0.3005
   29MOL   C105 9121   6.188   5.587   5.732 -0.1058  0.0546 -0.2388
   29MOL   C106 9122   5.897   5.489   5.562  0.1125  0.2044  0.5011
   29MOL   H107 9123   6.084   5.399   5.598  0.0905  0.0378  0.6324
   29MOL   H108 9124   6.067   5.743   5.449 -0.2743  1.0074  1.7356
   29MOL   H109 9125   6.194   5.937   5.548 -0.2824 -0.5039 -0.6419
   29MOL   H110 9126   6.268   5.674   5.902  1.6763 -1.6097 -0.5794
   29MOL   H111 9127   6.179   5.491   5.779 -4.5135  0.3637 -0.3050
   29MOL   H112 9128   5.861   5.590   5.577  1.4840  0.9609 -1.1493
   29MOL   H113 9129   5.851   5.451   5.471 -1.2531 -0.9334  1.6301
   29MOL   C114 9130   5.841   5.391   5.665  1.0671 -0.2443 -0.2905
   29MOL   C115 9131   5.881   5.428   5.807  0.1613 -0.0388  0.9916
   29MOL   C116 9132   5.929   5.322   5.892 -0.0588  0.2170  0.5378
   29MOL   C117 9133   5.966   5.351   6.025  0.5450  0.4021  0.4770
   29MOL   C118 9134   5.938   5.478   6.083  0.4395 -0.2070 -0.5142
   29MOL  Cl119 9135   5.979   5.514   6.242 -0.2850 -0.2239 -0.3727
   29MOL   C120 9136   5.890   5.577   6.001  0.0894 -0.1152  0.1204
   29MOL   C121 9137   5.863   5.552   5.863 -0.4942 -1.1561 -0.6868
   29MOL   C122 9138   5.688   5.396   5.660 -0.9825 -0.2066  0.4431
   29MOL   H123 9139   5.865   5.292   5.627 -0.9937 -2.0413  2.9175
   29MOL   H124 9140   5.947   5.219   5.861  0.2615  0.6824 -0.8743
   29MOL   H125 9141   6.002   5.278   6.096  1.9304  2.4320  1.9171
   29MOL   H126 9142   5.859   5.672   6.041 -0.2605  0.0208 -0.4555
   29MOL   H127 9143   5.825   5.638   5.810 -2.2201 -1.5424 -0.1121
   29MOL   H128 9144   5.655   5.318   5.729 -1.5805 -0.6151 -0.2887
   29MOL   H129 9145   5.664   5.497   5.691 -0.7549 -0.4376  1.3964
   29MOL   C130 9146   5.604   5.379   5.527  0.9370  0.3870 -0.1491
   29MOL   C131 9147   5.607   5.252   5.452 -0.7587  0.1418 -0.0601
   29MOL   C132 9148   5.534   5.140   5.490  0.5952 -0.3104 -0.3598
   29MOL   C133 9149   5.525   5.024   5.407 -0.1724  0.7191  0.7609
   29MOL   C134 9150   5.588   5.027   5.282 -0.3132 -0.4583 -0.1219
   29MOL  Cl135 9151   5.560   4.900   5.169  0.2604  0.1389 -0.1620
   29MOL   C136 9152   5.667   5.135   5.239  0.0788  0.3593 -0.5518
   29MOL   C137 9153   5.678   5.245   5.327 -0.3176 -0.1930 -0.2993
   29MOL   C138 9154   5.455   5.417   5.540  0.0110  0.1312  0.5299
   29MOL   H139 9155   5.636   5.465   5.468 -1.9561  0.3311 -1.9193
   29MOL   H140 9156   5.482   5.145   5.584 -1.7104  3.3149 -1.7387
   29MOL   H141 9157   5.465   4.937   5.428  0.8344  0.1853  1.4790
   29MOL   H142 9158   5.721   5.131   5.146  0.1052 -1.3229 -0.4760
   29MOL   H143 9159   5.732   5.331   5.289 -0.8509  0.1488 -0.2980
   29MOL   H144 9160   5.387   5.359   5.602 -1.1507  0.1535 -0.6993
   29MOL   H145 9161   5.454   5.512   5.594 -1.2620  0.9440 -0.8816
   29MOL   C146 9162   5.382   5.428   5.407 -0.4121  0.2392  0.1398
   29MOL   C147 9163   5.243   5.484   5.436  0.1931 -0.2623 -0.1011
   29MOL   C148 9164   5.213   5.622   5.462 -0.5824  0.9204  0.2865
   29MOL   C149 9165   5.083   5.669   5.480 -0.0548  0.2636  0.5545
   29MOL   C150 9166   4.980   5.585   5.477 -0.2427  0.1857  0.3684
   29MOL  Cl151 9167   4.813   5.648   5.485  0.0351  0.4729  0.0884
   29MOL   C152 9168   4.998   5.446   5.464  0.3546  0.6077  0.7261
   29MOL   C153 9169   5.129   5.399   5.438  0.0555 -0.1477  0.3084
   29MOL   C154 9170   5.451   5.509   5.301 -0.0715 -0.2487  0.0987
   29MOL   H155 9171   5.369   5.329   5.364  0.3012  1.3322 -2.6952
   29MOL   H156 9172   5.292   5.693   5.446  1.1992 -0.9757  0.3681
   29MOL   H157 9173   5.054   5.771   5.499 -0.9572  0.9640 -3.9523
   29MOL   H158 9174   4.908   5.388   5.466  0.5204  0.3020 -0.4860
   29MOL   H159 9175   5.131   5.294   5.413 -1.5664 -0.5096  1.5674
   29MOL   H160 9176   5.470   5.611   5.333  1.9259  0.1933 -2.3528
   29MOL   H161 9177   5.553   5.479   5.280 -0.9124 -1.1716 -3.0746
   29MOL   C162 9178   5.393   5.493   5.154  0.2546  0.0328 -0.7707
   29MOL   C163 9179   5.414   5.615   5.069  0.3183 -0.4802  1.3611
   29MOL   C164 9180   5.300   5.682   5.013 -0.8427  0.1699  0.3101
   29MOL   C165 9181   5.310   5.802   4.941 -0.4429  0.3341  0.1272
   29MOL   C166 9182   5.439   5.856   4.917 -0.3226  0.3861 -0.4526
   29MOL  Cl167 9183   5.463   6.009   4.833 -0.1178  0.0173  0.6809
   29MOL   C168 9184   5.548   5.800   4.984 -0.1241  1.1591 -0.1436
   29MOL   C169 9185   5.540   5.671   5.049  0.1802 -0.0038  0.2301
   29MOL   C170 9186   5.437   5.359   5.081  0.3777 -0.3874 -0.6120
   29MOL   H171 9187   5.288   5.464   5.156  0.0894  0.6484  1.4469
   29MOL   H172 9188   5.200   5.651   5.040 -1.0070  0.3713 -0.0575
   29MOL   H173 9189   5.225   5.854   4.900 -0.2455 -1.0090 -2.0493
   29MOL   H174 9190   5.646   5.845   4.974  0.5411 -0.0227  0.9427
   29MOL   H175 9191   5.633   5.626   5.082  0.2534  0.1308  0.2069
   29MOL   H176 9192   5.546   5.351   5.090  0.3102 -3.4173 -1.9072
   29MOL   H177 9193   5.405   5.273   5.139 -2.5465 -1.3373 -3.4769
   29MOL   C178 9194   5.390   5.338   4.935  0.2369 -0.2676  0.1399
   29MOL   C179 9195   5.492   5.256   4.860  0.6772  0.2799 -0.4459
   29MOL   C180 9196   5.576   5.323   4.771 -0.0790  0.0283  0.0378
   29MOL   C181 9197   5.683   5.244   4.712  0.0727 -0.2914  0.0308
   29MOL   C182 9198   5.694   5.110   4.741  0.9079 -0.0808 -0.1881
   29MOL  Cl183 9199   5.832   5.032   4.687  0.0790  0.0790 -0.3536
   29MOL   C184 9200   5.600   5.042   4.817  0.7170  0.5045  0.0676
   29MOL   C185 9201   5.500   5.111   4.882 -0.5510  0.0537 -0.3541
   29MOL   C186 9202   5.242   5.292   4.918  0.4819  0.7004 -0.2257
   29MOL   H187 9203   5.384   5.430   4.876  2.4060  1.0411  1.8607
   29MOL   H188 9204   5.570   5.429   4.755 -0.6990 -0.1020 -0.6440
   29MOL   H189 9205   5.740   5.295   4.637 -1.4359 -0.4782 -1.2729
   29MOL   H190 9206   5.605   4.936   4.835  1.9252  0.5460  0.0097
   29MOL   H191 9207   5.430   5.066   4.951 -2.2601  1.2958 -1.2432
   29MOL   H192 9208   5.238   5.203   4.980 -1.2131  0.6761 -0.3510
   29MOL   H193 9209   5.179   5.365   4.969 -1.1829 -1.1333  0.3964
   29MOL   C194 9210   5.180   5.270   4.781 -0.4349 -0.6308 -0.7058
   29MOL   C195 9211   5.055   5.179   4.799 -0.2847 -0.3667  0.3541
   29MOL   C196 9212   5.070   5.040   4.767 -0.0766  0.2528  0.6188
   29MOL   C197 9213   4.963   4.948   4.776  0.4989  0.0149 -0.5896
   29MOL   C198 9214   4.837   4.991   4.824 -0.0708  0.8158  0.2289
   29MOL  Cl199 9215   4.712   4.880   4.864 -0.0321 -0.1377 -0.1976
   29MOL   C200 9216   4.819   5.123   4.866 -0.3736  0.1553  0.6612
   29MOL   C201 9217   4.929   5.215   4.852  0.6151  0.4907 -0.3010
   29MOL   C202 9218   5.157   5.396   4.705  0.3306 -0.6238  0.0217
   29MOL   H203 9219   5.244   5.210   4.717  0.1248 -0.1910 -0.5579
   29MOL   H204 9220   5.161   4.992   4.734 -0.1618  0.1930  0.4729
   29MOL   H205 9221   4.971   4.845   4.744 -1.3222 -0.6633  1.0007
   29MOL   H206 9222   4.730   5.166   4.910 -0.4082 -0.2459  0.9883
   29MOL   H207 9223   4.918   5.315   4.891  0.1752  1.3612 -2.5448
   29MOL   H208 9224   5.059   5.390   4.656  0.7765 -1.8709 -0.7377
   29MOL   H209 9225   5.148   5.484   4.768 -1.2247 -0.3931 -0.4835
   29MOL   C210 9226   5.267   5.429   4.600 -0.0343  0.3152 -0.2436
   29MOL   C211 9227   5.226   5.372   4.460 -0.7018  0.4553  0.0304
   29MOL   C212 9228   5.330   5.305   4.387 -0.1372 -0.0157  0.5051
   29MOL   C213 9229   5.289   5.254   4.257  0.3944 -0.7315  0.3995
   29MOL   C214 9230   5.160   5.268   4.205  0.1746  0.5916 -0.1414
   29MOL  Cl215 9231   5.124   5.194   4.049 -0.3490 -0.0211 -0.6622
   29MOL   C216 9232   5.066   5.345   4.274  0.0638 -0.4930 -0.9028
   29MOL   C217 9233   5.097   5.393   4.404  0.3229  0.4393 -0.4912
   29MOL   C218 9234   5.289   5.583   4.593  0.5831  0.4571  0.3102
   29MOL   H219 9235   5.359   5.373   4.615 -0.2395 -0.0782 -0.4400
   29MOL   H220 9236   5.429   5.300   4.429 -1.6072 -0.6762  4.1242
   29MOL   H221 9237   5.361   5.200   4.198  1.7696  2.5307 -1.0635
   29MOL   H222 9238   4.969   5.365   4.232 -0.7170  0.0421  1.1140
   29MOL   H223 9239   5.017   5.442   4.458  0.3135 -1.3475  1.1783
   29MOL   H224 9240   5.193   5.633   4.600  1.0983  1.9757 -2.7254
   29MOL   H225 9241   5.323   5.626   4.687  2.7078  0.1149 -0.2666
   29MOL   C226 9242   5.383   5.641   4.485 -0.1793  0.4956  0.8008
   29MOL   C227 9243   5.301   5.712   4.373 -0.0679 -0.2795 -0.3789
   29MOL   C228 9244   5.253   5.840   4.403 -0.7484 -0.5103 -0.6959
   29MOL   C229 9245   5.182   5.909   4.296  0.3506 -0.0790 -0.5325
   29MOL   C230 9246   5.163   5.843   4.172 -0.1850 -0.7319 -0.0881
   29MOL  Cl231 9247   5.078   5.923   4.048  0.1979 -0.2796 -0.2206
   29MOL   C232 9248   5.198   5.710   4.153  0.9827  0.3806 -0.3332
   29MOL   C233 9249   5.277   5.649   4.253  0.1786  0.2646 -0.3662
   29MOL   C234 9250   5.497   5.723   4.550 -0.0479  0.0979 -0.0502
   29MOL   H235 9251   5.437   5.553   4.448  1.0162  0.7976  1.7716
   29MOL   H236 9252   5.256   5.871   4.506 -0.6855  0.6185 -1.0265
   29MOL   H237 9253   5.145   6.008   4.321  1.7862  0.2666  0.2861
   29MOL   H238 9254   5.169   5.657   4.064  1.4271 -1.2445  0.4581
   29MOL   H239 9255   5.317   5.549   4.239  1.8805  1.3104 -3.4715
   29MOL   H240 9256   5.459   5.818   4.589 -1.0294 -1.3719  2.6823
   29MOL   H241 9257   5.544   5.683   4.641 -2.9290 -0.2310  1.3434
   29MOL   C242 9258   5.625   5.746   4.454  0.3891 -0.8098  0.1689
   29MOL   C243 9259   5.593   5.855   4.338 -0.1282  0.7788 -0.8100
   29MOL   C244 9260   5.564   5.987   4.365  0.0929 -0.1956  0.0112
   29MOL   C245 9261   5.499   6.063   4.263 -0.8484 -0.0869  0.0887
   29MOL   C246 9262   5.473   6.014   4.137  0.7630  0.2577  0.7685
   29MOL  Cl247 9263   5.365   6.103   4.033  0.6234 -0.1596 -0.0223
   29MOL   C248 9264   5.503   5.880   4.107 -0.6900 -0.4483 -0.5828
   29MOL   C249 9265   5.566   5.803   4.208  0.5199  0.3103 -0.6215
   29MOL   C250 9266   5.744   5.787   4.552  0.4308  0.1210 -0.3069
   29MOL   H251 9267   5.656   5.656   4.400  0.4061  1.2600 -3.4200
   29MOL   H252 9268   5.574   6.014   4.469 -0.5096  0.3123 -0.0572
   29MOL   H253 9269   5.467   6.165   4.278  0.0232  0.2624 -0.3913
   29MOL   H254 9270   5.470   5.831   4.017  4.4163 -1.4610 -2.0570
   29MOL   H255 9271   5.597   5.701   4.188  3.0494  1.0240 -0.5648
   29MOL   H256 9272   5.706   5.858   4.626 -0.8651 -0.3692 -0.4878
   29MOL   H257 9273   5.779   5.703   4.611  0.7601  0.9445  0.6962
   29MOL   C258 9274   5.879   5.837   4.495  0.1205 -0.3356 -0.1377
   29MOL   C259 9275   5.976   5.873   4.607  0.8908  0.0786  0.1770
   29MOL   C260 9276   6.001   6.008   4.642 -0.1854  0.0097 -0.0354
   29MOL   C261 9277   6.080   6.045   4.754  0.3111  0.5977  1.0403
   29MOL   C262 9278   6.138   5.946   4.837  0.4626 -0.1468 -0.4486
   29MOL  Cl263 9279   6.240   5.985   4.971  0.0709 -0.4350  0.0320
   29MOL   C264 9280   6.120   5.806   4.805  0.2294  0.2863  0.0472
   29MOL   C265 9281   6.037   5.773   4.687 -0.3137  0.4785 -0.3667
   29MOL   C266 9282   5.936   5.732   4.393 -0.9439  0.0512 -0.6646
   29MOL   H267 9283   5.863   5.932   4.445 -0.0369  0.4419  1.3475
   29MOL   H268 9284   5.965   6.093   4.586 -2.2630 -0.6318  0.2824
   29MOL   H269 9285   6.082   6.149   4.781  0.8128  0.8927 -0.1115
   29MOL   H270 9286   6.172   5.736   4.868  1.0962  1.3195  0.5116
   29MOL   H271 9287   6.024   5.666   4.672 -1.1557 -0.2068  4.3510
   29MOL   H272 9288   5.973   5.643   4.442  0.3632  0.8594 -0.1549
   29MOL   H273 9289   5.857   5.701   4.325 -1.2869 -0.1452 -0.1780
   29MOL   C274 9290   6.056   5.789   4.318 -0.4299  0.4568  0.0944
   29MOL   C275 9291   6.194   5.759   4.392  0.5626 -0.3172 -0.9349
   29MOL   C276 9292   6.278   5.864   4.432  0.3054  0.1977  0.3150
   29MOL   C277 9293   6.409   5.839   4.473  0.1806 -0.0756  0.0021
   29MOL   C278 9294   6.459   5.710   4.482 -0.4155  0.2293 -0.6374
   29MOL  Cl279 9295   6.627   5.686   4.522  0.2250 -0.0911 -0.4900
   29MOL   C280 9296   6.371   5.604   4.457 -0.1207  1.0078 -1.0050
   29MOL   C281 9297   6.238   5.627   4.412 -0.3476  0.3623 -1.0316
   29MOL   C282 9298   6.060   5.740   4.177 -0.2836 -0.4283 -0.2199
   29MOL   H283 9299   6.049   5.898   4.323  2.0908  0.7217 -1.1140
   29MOL   H284 9300   6.253   5.969   4.432  2.1111  0.6451  0.9857
   29MOL   H285 9301   6.472   5.923   4.501 -1.8298  1.5829 -0.3669
   29MOL   H286 9302   6.403   5.501   4.458 -0.6154  0.8530  0.7203
   29MOL   H287 9303   6.171   5.549   4.381  0.1875  0.0928 -1.5294
   29MOL   H288 9304   6.160   5.755   4.135 -0.6416  1.1263 -0.5373
   29MOL   H289 9305   6.046   5.632   4.176  0.7026 -0.5817  1.1433
   29MOL   C290 9306   5.954   5.799   4.084 -0.5099 -0.1013  0.0484
   29MOL   C291 9307   5.964   5.954   4.068  0.1465 -0.9175 -0.0897
   29MOL   C292 9308   5.856   6.035   4.113 -0.5788  0.7466 -0.0570
   29MOL   C293 9309   5.854   6.175   4.105  0.0981  0.1561  0.4600
   29MOL   C294 9310   5.966   6.231   4.037 -0.3656 -0.8035 -0.7953
   29MOL  Cl295 9311   5.963   6.403   4.013  0.0490 -0.2725 -0.3048
   29MOL   C296 9312   6.081   6.156   4.001  0.0230  0.0324 -0.1007
   29MOL   C297 9313   6.078   6.015   4.016  0.4676  0.7652 -0.1160
   29MOL   C298 9314   5.955   5.741   3.939 -1.2253  0.8091  0.7773
   29MOL   H299 9315   5.854   5.789   4.125 -1.3123 -0.8520 -2.0321
   29MOL   H300 9316   5.772   5.982   4.154  1.4371 -1.9874  0.6595
   29MOL   H301 9317   5.767   6.223   4.147 -1.0137 -0.7508 -0.7723
   29MOL   H302 9318   6.175   6.185   3.955  0.6239 -1.9769 -0.2266
   29MOL   H303 9319   6.171   5.964   3.999 -1.0265 -1.8591 -0.5638
   29MOL   H304 9320   5.896   5.803   3.872 -0.9921  0.0511 -0.1516
   29MOL   H305 9321   6.057   5.746   3.901 -1.2653 -1.1359  0.3437
   29MOL   C306 9322   5.889   5.606   3.931  0.3915  0.3954 -0.0891
   29MOL   C307 9323   5.735   5.603   3.936 -0.0676 -0.2054 -1.1454
   29MOL   C308 9324   5.657   5.677   3.846 -0.0664  0.3638 -0.0612
   29MOL   C309 9325   5.524   5.645   3.824 -0.3127  0.7935  0.2861
   29MOL   C310 9326   5.459   5.548   3.900 -0.5347  0.3050  0.5117
   29MOL  Cl311 9327   5.299   5.501   3.851  0.0054  0.2000 -0.2415
   29MOL   C312 9328   5.528   5.473   3.996 -0.3167 -0.2896  0.3225
   29MOL   C313 9329   5.666   5.501   4.011 -0.3513  0.2907 -0.9577
   29MOL   C314 9330   5.941   5.528   3.806 -0.0272 -0.5150 -0.6701
   29MOL   H315 9331   5.923   5.549   4.017  1.1311  1.4856  0.3420
   29MOL   H316 9332   5.702   5.748   3.778  1.2483  1.0372  1.4834
   29MOL   H317 9333   5.469   5.689   3.742 -2.4008  0.7261  1.5860
   29MOL   H318 9334   5.487   5.392   4.054 -1.4470 -0.3999 -0.6255
   29MOL   H319 9335   5.720   5.440   4.083 -1.1614 -0.1685 -0.7347
   29MOL   H320 9336   5.888   5.553   3.715  0.7766 -0.9557 -1.2670
   29MOL   H321 9337   6.050   5.521   3.799  0.0102  0.9372 -1.5633
   29MOL   H322 9338   5.908   5.424   3.816  0.9919 -0.7926 -0.1529
   30MOL     C1 9339   0.133   2.097   5.280  0.1936 -0.0940  0.0332
   30MOL     C2 9340   0.082   2.100   5.423 -0.0289  0.4766 -0.5898
   30MOL     C3 9341   8.420   2.190   5.466  0.1001  0.4478  0.3041
   30MOL     C4 9342   8.362   2.175   5.596  0.7030  0.6731  0.3040
   30MOL     C5 9343   8.412   2.077   5.685 -0.2282  0.8435  0.0714
   30MOL    Cl6 9344   8.353   2.044   5.851 -0.2601  0.4675  0.4973
   30MOL     C7 9345   0.066   1.987   5.639  0.8667 -0.2158 -0.1398
   30MOL     C8 9346   0.112   1.993   5.509  0.0089  0.1307  0.7639
   30MOL     C9 9347   0.236   2.211   5.268 -0.2850  0.2516  0.4382
   30MOL    H10 9348   0.048   2.131   5.221 -0.6690 -0.2091  1.1977
   30MOL    H11 9349   8.381   2.262   5.396  1.3838  2.0977  1.2442
   30MOL    H12 9350   8.276   2.237   5.616  0.2666  0.3171 -0.4627
   30MOL    H13 9351   0.097   1.906   5.703  0.2050  0.4646  1.0646
   30MOL    H14 9352   0.180   1.917   5.473 -0.2038 -0.7691  2.2354
   30MOL    H15 9353   0.254   2.224   5.162 -2.2382 -2.3439 -0.2611
   30MOL    H16 9354   0.202   2.302   5.317  2.9538  0.9044  1.6057
   30MOL    H17 9355   0.163   1.996   5.253  0.6535  0.1053 -0.1999
   30MOL    C18 9356   0.383   2.196   5.316 -0.2229 -0.7122 -0.2666
   30MOL    C19 9357   0.463   2.071   5.277 -0.0458 -0.2025 -0.4133
   30MOL    C20 9358   0.527   2.059   5.147  0.0430  0.1203 -0.3948
   30MOL    C21 9359   0.607   1.945   5.117  0.0523  0.6118 -0.6422
   30MOL    C22 9360   0.636   1.853   5.220 -0.4111  0.7568  0.2166
   30MOL   Cl23 9361   0.758   1.733   5.203 -0.0042  0.1185 -0.1145
   30MOL    C24 9362   0.574   1.859   5.343 -0.8130  0.4288  0.2212
   30MOL    C25 9363   0.488   1.970   5.371  0.1929 -0.5120 -0.6463
   30MOL    C26 9364   0.458   2.324   5.270  0.1325  0.6940  0.3303
   30MOL    H27 9365   0.399   2.190   5.424  0.0553 -0.4123 -0.2914
   30MOL    H28 9366   0.498   2.136   5.077 -2.6276  1.5552  2.2092
   30MOL    H29 9367   0.667   1.940   5.027  1.1707 -0.9722  0.1795
   30MOL    H30 9368   0.585   1.777   5.413 -0.2624 -0.2650 -0.6704
   30MOL    H31 9369   0.439   1.967   5.467 -0.2966 -2.9674 -0.9195
   30MOL    H32 9370   0.479   2.313   5.163 -0.2983 -0.7538  0.3853
   30MOL    H33 9371   0.396   2.410   5.294  0.5731  1.7300 -2.0389
   30MOL    C34 9372   0.603   2.349   5.337 -0.4475  0.2150  0.8533
   30MOL    C35 9373   0.688   2.411   5.228 -0.3669 -0.3332  0.7960
   30MOL    C36 9374   0.639   2.522   5.155  0.1678  0.3071  0.0611
   30MOL    C37 9375   0.723   2.588   5.066  0.2285 -0.0466  0.0104
   30MOL    C38 9376   0.852   2.541   5.035 -0.5754  0.5420  0.1357
   30MOL   Cl39 9377   0.953   2.612   4.911  0.0284  0.0098  0.2724
   30MOL    C40 9378   0.905   2.435   5.111 -0.3291 -0.4837 -0.0766
   30MOL    C41 9379   0.822   2.367   5.203  0.4723 -0.5044  0.1228
   30MOL    C42 9380   0.595   2.432   5.474  0.5374  0.0924 -0.3133
   30MOL    H43 9381   0.645   2.250   5.353 -2.9242 -0.7516  1.4728
   30MOL    H44 9382   0.538   2.557   5.174  0.2752 -0.2861  1.7840
   30MOL    H45 9383   0.680   2.657   4.996  0.8363  1.0384  0.6961
   30MOL    H46 9384   0.998   2.385   5.088  0.0005  1.2791 -2.7953
   30MOL    H47 9385   0.865   2.281   5.252 -1.2164 -1.1279  0.5508
   30MOL    H48 9386   0.640   2.531   5.460 -1.1471  1.0962  1.0884
   30MOL    H49 9387   0.493   2.445   5.510  0.1326  2.0251 -2.0520
   30MOL    C50 9388   0.671   2.371   5.591 -0.2466  0.2184 -0.3838
   30MOL    C51 9389   0.604   2.242   5.638  0.4731 -0.1727 -0.8043
   30MOL    C52 9390   0.676   2.120   5.642  0.1805  0.5789  0.0233
   30MOL    C53 9391   0.613   2.001   5.680  0.2145 -0.2841  0.1793
   30MOL    C54 9392   0.484   2.009   5.735 -0.4251 -0.3061 -0.3225
   30MOL   Cl55 9393   0.394   1.876   5.784 -0.0462  0.1553  0.5251
   30MOL    C56 9394   0.412   2.133   5.744 -0.2176 -0.9342 -0.4690
   30MOL    C57 9395   0.476   2.251   5.691  0.1229 -0.3558  0.0884
   30MOL    C58 9396   0.823   2.364   5.560  0.4225  0.5328 -0.6528
   30MOL    H59 9397   0.660   2.440   5.674  2.2049 -0.2436  0.3745
   30MOL    H60 9398   0.780   2.117   5.615 -0.0941 -1.2316 -0.9075
   30MOL    H61 9399   0.663   1.905   5.672 -2.3537 -1.7055  0.7485
   30MOL    H62 9400   0.320   2.117   5.798 -0.5961  1.1152 -0.4773
   30MOL    H63 9401   0.427   2.347   5.698  0.5718 -0.1058 -0.2159
   30MOL    H64 9402   0.879   2.316   5.640  1.1587  0.9485 -0.9120
   30MOL    H65 9403   0.851   2.299   5.478  0.7815 -1.8214  1.2827
   30MOL    C66 9404   0.902   2.493   5.557  0.0283 -1.1215 -0.1169
   30MOL    C67 9405   0.879   2.593   5.665 -0.2901 -0.6883  0.0833
   30MOL    C68 9406   0.828   2.720   5.631  0.2763 -0.3176  0.6155
   30MOL    C69 9407   0.814   2.809   5.739 -0.2969 -1.1502  0.1045
   30MOL    C70 9408   0.841   2.772   5.873 -0.8912  0.3462 -0.3531
   30MOL   Cl71 9409   0.842   2.884   6.002  0.0298 -0.3344 -0.2334
   30MOL    C72 9410   0.864   2.640   5.907 -1.0186  0.1224  0.5150
   30MOL    C73 9411   0.888   2.550   5.801 -0.2375  0.4656  0.2822
   30MOL    C74 9412   1.046   2.473   5.518  0.2519  0.5842  0.9447
   30MOL    H75 9413   0.871   2.554   5.473  1.4664  2.1134  1.5888
   30MOL    H76 9414   0.819   2.751   5.528  0.4771  0.8052  0.9319
   30MOL    H77 9415   0.789   2.910   5.711  2.0683 -0.4132  0.6147
   30MOL    H78 9416   0.866   2.604   6.009 -1.6043 -1.5091 -0.0387
   30MOL    H79 9417   0.922   2.450   5.826 -0.9658  0.0292 -0.4422
   30MOL    H80 9418   1.095   2.432   5.607 -1.4066 -2.2721  0.5873
   30MOL    H81 9419   1.062   2.394   5.445  1.6325  1.4366  0.2904
   30MOL    C82 9420   1.121   2.599   5.481  0.1135 -0.0719  0.5627
   30MOL    C83 9421   1.228   2.635   5.587  0.0247 -0.0635 -0.6701
   30MOL    C84 9422   1.206   2.739   5.683  0.1519  0.3094 -0.0575
   30MOL    C85 9423   1.301   2.774   5.777 -0.2087 -0.4849  0.4040
   30MOL    C86 9424   1.419   2.698   5.787 -0.2666 -0.2375  0.5985
   30MOL   Cl87 9425   1.527   2.741   5.911 -0.2616  0.0238 -0.2012
   30MOL    C88 9426   1.436   2.587   5.707  0.6479  0.0706 -0.8469
   30MOL    C89 9427   1.340   2.554   5.607 -0.5897 -0.0030 -0.0040
   30MOL    C90 9428   1.181   2.602   5.339 -0.5119  0.3878 -0.0593
   30MOL    H91 9429   1.051   2.679   5.458  0.6433 -0.3998 -2.3532
   30MOL    H92 9430   1.118   2.800   5.696  0.7670  1.4636 -1.1296
   30MOL    H93 9431   1.292   2.863   5.838 -0.6139 -0.0299 -0.3049
   30MOL    H94 9432   1.524   2.527   5.726 -0.9534 -1.9525  0.4285
   30MOL    H95 9433   1.349   2.458   5.559  1.2981 -1.4169  2.9970
   30MOL    H96 9434   1.261   2.528   5.338 -0.6069  0.2878 -0.4570
   30MOL    H97 9435   1.104   2.574   5.267 -1.3798  2.7056 -0.0748
   30MOL    C98 9436   1.244   2.732   5.283  0.1858 -0.3929 -0.2831
   30MOL    C99 9437   1.335   2.702   5.164  0.4800 -0.3764  0.1199
   30MOL   C100 9438   1.270   2.676   5.040  0.9622  0.0162 -0.0694
   30MOL   C101 9439   1.348   2.629   4.931 -0.9658 -0.3536  0.3269
   30MOL   C102 9440   1.484   2.605   4.949 -0.6040 -0.6754  0.0841
   30MOL  Cl103 9441   1.580   2.545   4.815  0.2970 -0.1618 -0.2718
   30MOL   C104 9442   1.541   2.624   5.075 -0.1874  0.1311 -0.0196
   30MOL   C105 9443   1.468   2.670   5.182 -0.2977 -0.2887  0.5266
   30MOL   C106 9444   1.134   2.846   5.270 -0.3182  0.4526 -0.5181
   30MOL   H107 9445   1.322   2.770   5.350  0.4989  2.1177 -1.9863
   30MOL   H108 9446   1.164   2.686   5.023  1.2171  0.5937 -1.3542
   30MOL   H109 9447   1.309   2.620   4.831  2.6986  0.2355 -1.2118
   30MOL   H110 9448   1.648   2.610   5.085 -0.0073  1.8549  0.6802
   30MOL   H111 9449   1.508   2.692   5.279 -0.2089 -1.2043  0.6979
   30MOL   H112 9450   1.044   2.802   5.228 -1.2773  0.6990  1.2319
   30MOL   H113 9451   1.110   2.875   5.372  4.4705  1.5487  0.4566
   30MOL   C114 9452   1.166   2.976   5.194  0.7923  0.1764 -0.3994
   30MOL   C115 9453   1.039   3.060   5.177 -0.6662 -0.0816 -0.1597
   30MOL   C116 9454   0.961   3.090   5.288 -0.9955 -0.3897 -0.1031
   30MOL   C117 9455   0.841   3.159   5.274  0.0349  0.0714  0.3659
   30MOL   C118 9456   0.796   3.209   5.152 -0.3955 -0.3521  0.0801
   30MOL  Cl119 9457   0.658   3.317   5.142 -0.1513  0.1197 -0.1851
   30MOL   C120 9458   0.878   3.182   5.040  0.1084  0.4144 -0.1809
   30MOL   C121 9459   0.996   3.103   5.047 -0.5416 -0.3513 -0.5663
   30MOL   C122 9460   1.279   3.059   5.256 -0.1686 -0.3213  0.4381
   30MOL   H123 9461   1.188   2.947   5.091 -0.7718 -0.5152 -0.5534
   30MOL   H124 9462   0.992   3.065   5.389 -3.2206 -0.1436  0.6643
   30MOL   H125 9463   0.794   3.182   5.369 -0.1279 -1.7415  0.7537
   30MOL   H126 9464   0.849   3.212   4.940  0.3368 -0.1375 -0.4100
   30MOL   H127 9465   1.050   3.082   4.956 -0.2178  0.7395 -0.6301
   30MOL   H128 9466   1.243   3.158   5.284  0.3760  0.3764 -1.2277
   30MOL   H129 9467   1.307   3.008   5.348  1.8071  0.8066  0.4907
   30MOL   C130 9468   1.414   3.077   5.186 -0.0022  0.7466 -0.1920
   30MOL   C131 9469   1.405   3.070   5.033 -0.6151  0.0953 -0.1653
   30MOL   C132 9470   1.354   3.179   4.954  0.8283  0.2867 -0.2567
   30MOL   C133 9471   1.358   3.189   4.817  0.9286  0.5880 -0.3167
   30MOL   C134 9472   1.414   3.079   4.751  0.4571 -0.0824  0.2822
   30MOL  Cl135 9473   1.431   3.072   4.577  0.0176 -0.3261 -0.2603
   30MOL   C136 9474   1.468   2.976   4.825  0.5711 -0.0370  0.4747
   30MOL   C137 9475   1.469   2.976   4.965  0.7097 -0.6975  0.3557
   30MOL   C138 9476   1.475   3.210   5.236  0.3852  0.8044 -0.5871
   30MOL   H139 9477   1.478   2.993   5.215  0.2794  0.4913 -1.5122
   30MOL   H140 9478   1.311   3.264   5.005 -0.6106  0.4518 -1.7283
   30MOL   H141 9479   1.322   3.275   4.761  0.0520 -0.4496 -1.3715
   30MOL   H142 9480   1.516   2.896   4.770  0.7754 -0.0120  0.6169
   30MOL   H143 9481   1.521   2.907   5.030  0.5466 -1.4276 -0.2772
   30MOL   H144 9482   1.567   3.224   5.179  0.2030  1.6565 -0.6774
   30MOL   H145 9483   1.413   3.297   5.216 -1.7544 -0.3802  0.6544
   30MOL   C146 9484   1.521   3.198   5.388  0.1803 -0.2147 -0.0020
   30MOL   C147 9485   1.620   3.082   5.422 -0.0136  0.3043 -0.1834
   30MOL   C148 9486   1.577   2.964   5.488 -0.3775  0.2986 -0.2439
   30MOL   C149 9487   1.665   2.863   5.525 -0.8316  0.7331  0.4818
   30MOL   C150 9488   1.797   2.863   5.487  0.1943 -0.8263  0.3528
   30MOL  Cl151 9489   1.909   2.734   5.541  0.2382  0.0676 -0.5222
   30MOL   C152 9490   1.842   2.973   5.405 -0.2240  0.5425 -0.2620
   30MOL   C153 9491   1.754   3.084   5.379 -0.2033  0.0782 -1.0509
   30MOL   C154 9492   1.549   3.337   5.452 -0.8011 -0.7417 -0.3633
   30MOL   H155 9493   1.431   3.171   5.443 -0.8926 -1.4051 -2.2723
   30MOL   H156 9494   1.477   2.953   5.527 -0.1071  1.9217  0.9807
   30MOL   H157 9495   1.628   2.771   5.567  1.2398  0.0148  0.8023
   30MOL   H158 9496   1.946   2.975   5.377 -0.4306 -1.5810 -1.2878
   30MOL   H159 9497   1.798   3.167   5.327  1.0333  0.6135  0.8491
   30MOL   H160 9498   1.614   3.390   5.382 -0.2865  1.0276  1.3891
   30MOL   H161 9499   1.458   3.397   5.461  0.2883  0.9694 -0.5213
   30MOL   C162 9500   1.627   3.336   5.582 -0.0562 -0.3510  0.0876
   30MOL   C163 9501   1.691   3.473   5.606  0.9344 -0.6409 -0.0504
   30MOL   C164 9502   1.635   3.567   5.696 -0.2498 -0.5365 -0.9092
   30MOL   C165 9503   1.696   3.690   5.725 -0.1594 -0.2207  0.4515
   30MOL   C166 9504   1.822   3.720   5.666  0.0760  0.1435  0.5451
   30MOL  Cl167 9505   1.916   3.845   5.727 -0.1119  0.0866  0.3360
   30MOL   C168 9506   1.878   3.625   5.573 -0.0586  0.4621  1.1706
   30MOL   C169 9507   1.813   3.504   5.540  0.4309 -0.3720 -0.4721
   30MOL   C170 9508   1.547   3.273   5.700  0.1199  0.2560 -0.0218
   30MOL   H171 9509   1.714   3.276   5.556  1.2271  1.9564 -1.0994
   30MOL   H172 9510   1.551   3.530   5.752  0.7072 -1.3462  0.0240
   30MOL   H173 9511   1.659   3.754   5.804  0.1238 -0.7861  1.0495
   30MOL   H174 9512   1.969   3.646   5.518  0.3810  0.1571  1.7854
   30MOL   H175 9513   1.863   3.433   5.474 -0.6732 -1.5909 -0.0198
   30MOL   H176 9514   1.457   3.327   5.730 -0.6848  0.2004 -2.2992
   30MOL   H177 9515   1.506   3.178   5.668  1.9340 -1.1446  1.6486
   30MOL   C178 9516   1.630   3.249   5.825 -0.0215  0.6830  0.7419
   30MOL   C179 9517   1.544   3.214   5.942 -0.3165 -0.5649  0.0938
   30MOL   C180 9518   1.469   3.095   5.956  0.1465 -0.1366 -0.4647
   30MOL   C181 9519   1.379   3.076   6.066 -0.5154 -0.1327 -0.0700
   30MOL   C182 9520   1.360   3.181   6.155 -0.3465 -0.0900 -0.4762
   30MOL  Cl183 9521   1.255   3.171   6.296  0.0146 -0.1211 -0.0470
   30MOL   C184 9522   1.444   3.293   6.150 -0.0397  0.2603  0.1511
   30MOL   C185 9523   1.535   3.315   6.047  0.1665 -0.1951  0.5692
   30MOL   C186 9524   1.756   3.155   5.808 -0.2363  0.4427 -0.5054
   30MOL   H187 9525   1.666   3.351   5.837  0.7735  0.5671 -0.5883
   30MOL   H188 9526   1.473   3.017   5.881 -0.2725 -0.5645 -0.0515
   30MOL   H189 9527   1.319   2.987   6.073 -0.8577 -0.0380 -1.4910
   30MOL   H190 9528   1.430   3.360   6.234  1.1380  0.9361 -0.1851
   30MOL   H191 9529   1.577   3.414   6.050  1.2143 -0.6077 -0.1603
   30MOL   H192 9530   1.750   3.093   5.897 -1.2426 -0.5788 -1.2795
   30MOL   H193 9531   1.741   3.096   5.718  1.6844 -0.0990 -0.5041
   30MOL   C194 9532   1.894   3.223   5.810  0.2260  0.0121  0.2756
   30MOL   C195 9533   1.912   3.334   5.921 -0.1592 -0.1140 -0.0542
   30MOL   C196 9534   1.966   3.460   5.877  0.1428 -0.0577 -0.2266
   30MOL   C197 9535   1.971   3.570   5.964  0.7160 -0.2540  0.7629
   30MOL   C198 9536   1.926   3.551   6.098 -0.7860  0.2600 -0.4892
   30MOL  Cl199 9537   1.930   3.683   6.206 -0.1821 -0.1306 -0.0713
   30MOL   C200 9538   1.869   3.425   6.145  0.2005 -0.4274 -0.4728
   30MOL   C201 9539   1.854   3.324   6.048  0.0811 -0.9151 -0.2635
   30MOL   C202 9540   2.010   3.123   5.795  0.1261 -0.0639  0.2077
   30MOL   H203 9541   1.893   3.274   5.714  0.9018 -0.8384 -0.1903
   30MOL   H204 9542   2.003   3.476   5.777 -0.0624  1.9273 -0.0043
   30MOL   H205 9543   2.013   3.668   5.945 -2.2728  1.4546  2.6012
   30MOL   H206 9544   1.840   3.410   6.248  1.2890  1.9468  0.2175
   30MOL   H207 9545   1.803   3.231   6.071  0.8799 -1.7321 -1.7599
   30MOL   H208 9546   1.987   3.049   5.718 -0.7596 -0.9519  1.3029
   30MOL   H209 9547   2.084   3.175   5.734 -1.2807  0.5409 -1.0380
   30MOL   C210 9548   2.091   3.084   5.923 -0.4499  0.0025  0.5498
   30MOL   C211 9549   2.017   2.990   6.023  0.4721  0.0044 -0.1522
   30MOL   C212 9550   2.036   3.013   6.161 -0.3983  0.4284 -0.1092
   30MOL   C213 9551   1.992   2.926   6.259  0.4250 -0.0030 -0.1551
   30MOL   C214 9552   1.909   2.821   6.217  0.0313 -0.4423  0.0856
   30MOL  Cl215 9553   1.834   2.725   6.338  0.1270 -0.2574 -0.0454
   30MOL   C216 9554   1.871   2.812   6.079 -0.1002 -0.0976  0.2499
   30MOL   C217 9555   1.933   2.886   5.977 -0.3420  0.2389 -0.2676
   30MOL   C218 9556   2.214   2.993   5.885 -0.5759 -0.3173  0.8861
   30MOL   H219 9557   2.118   3.171   5.982 -0.4854 -0.1378  0.7720
   30MOL   H220 9558   2.099   3.095   6.194  0.4240 -1.0377  2.0793
   30MOL   H221 9559   2.004   2.942   6.365 -0.4372 -0.9166  0.0920
   30MOL   H222 9560   1.794   2.740   6.056  1.3943 -1.5099 -0.4068
   30MOL   H223 9561   1.909   2.895   5.872  2.6788  1.0934 -0.9176
   30MOL   H224 9562   2.242   2.924   5.964 -1.4596 -0.6842  0.8873
   30MOL   H225 9563   2.179   2.922   5.810 -0.0149 -0.0745  0.3966
   30MOL   C226 9564   2.340   3.072   5.859  0.3358  0.3156  1.2370
   30MOL   C227 9565   2.380   3.163   5.976  0.2715  0.1048 -0.0435
   30MOL   C228 9566   2.396   3.118   6.109 -0.8716  0.1005 -0.4432
   30MOL   C229 9567   2.443   3.200   6.210 -0.1119  0.7513  0.6302
   30MOL   C230 9568   2.490   3.327   6.170  0.1521 -1.1760 -0.7751
   30MOL  Cl231 9569   2.552   3.418   6.299 -0.1907 -0.1186  0.3615
   30MOL   C232 9570   2.473   3.381   6.044 -0.2701  0.6204  0.0340
   30MOL   C233 9571   2.422   3.288   5.940 -0.2978 -0.1244 -0.2672
   30MOL   C234 9572   2.464   2.982   5.827  0.7397 -0.0358  0.2821
   30MOL   H235 9573   2.325   3.135   5.772  0.7952 -1.4818 -0.1841
   30MOL   H236 9574   2.357   3.021   6.137  1.8345 -0.8092  0.4079
   30MOL   H237 9575   2.447   3.156   6.309 -0.4666  0.1846  0.4013
   30MOL   H238 9576   2.504   3.482   6.023  2.0685 -0.1227 -0.1767
   30MOL   H239 9577   2.415   3.322   5.837 -0.3242 -0.7419 -0.4700
   30MOL   H240 9578   2.548   3.051   5.823  2.6107 -2.2577  0.7647
   30MOL   H241 9579   2.473   2.911   5.909  1.2172 -1.5211 -1.0519
   30MOL   C242 9580   2.463   2.923   5.687  0.3319  0.3131  0.6198
   30MOL   C243 9581   2.431   3.015   5.572 -0.4399 -0.3768 -0.3752
   30MOL   C244 9582   2.311   3.005   5.500  0.1398 -0.2167 -0.4662
   30MOL   C245 9583   2.293   3.088   5.384  0.0510  0.3124  0.0453
   30MOL   C246 9584   2.384   3.189   5.348 -0.1640 -0.2788  0.0849
   30MOL  Cl247 9585   2.353   3.291   5.205  0.0230  0.2965 -0.1381
   30MOL   C248 9586   2.508   3.193   5.420  0.3848 -0.4046  0.4884
   30MOL   C249 9587   2.533   3.106   5.528  0.0560 -0.6430 -0.4251
   30MOL   C250 9588   2.592   2.835   5.677  0.2961 -0.2300  0.3683
   30MOL   H251 9589   2.380   2.853   5.691 -2.6291  3.6084 -0.8729
   30MOL   H252 9590   2.240   2.927   5.526  2.6589 -2.1424  0.8327
   30MOL   H253 9591   2.195   3.083   5.339 -0.1842  1.4003  0.4236
   30MOL   H254 9592   2.582   3.264   5.386 -0.5211  0.6200  0.6373
   30MOL   H255 9593   2.635   3.105   5.563  0.8154 -3.0360 -2.5701
   30MOL   H256 9594   2.673   2.903   5.705  0.0158 -0.0738  0.7925
   30MOL   H257 9595   2.586   2.754   5.750 -1.0780 -0.1598  0.3414
   30MOL   C258 9596   2.634   2.789   5.531 -0.1066  0.9260  0.2762
   30MOL   C259 9597   2.779   2.736   5.544  0.0900  0.1461 -0.1458
   30MOL   C260 9598   2.833   2.691   5.669 -0.3528 -0.1853  0.2574
   30MOL   C261 9599   2.969   2.658   5.676  0.0228  0.3811 -0.2311
   30MOL   C262 9600   3.051   2.669   5.559 -0.2000 -0.2868  0.2427
   30MOL  Cl263 9601   3.222   2.626   5.567  0.3606 -0.1168  0.4189
   30MOL   C264 9602   2.999   2.714   5.437  0.4218  1.0854 -0.4014
   30MOL   C265 9603   2.861   2.752   5.428  0.2003  0.8071 -0.3197
   30MOL   C266 9604   2.538   2.689   5.454 -0.0512 -0.1267  0.0960
   30MOL   H267 9605   2.648   2.875   5.466  1.3532  1.3331  1.1034
   30MOL   H268 9606   2.768   2.668   5.753  0.6971  2.2020  1.7920
   30MOL   H269 9607   3.008   2.600   5.758 -0.4240  0.3285 -0.0548
   30MOL   H270 9608   3.073   2.737   5.362 -0.5937  0.8443 -1.5099
   30MOL   H271 9609   2.817   2.803   5.344 -0.6368 -0.4219 -0.6379
   30MOL   H272 9610   2.444   2.739   5.430  0.1953  0.4156  0.2518
   30MOL   H273 9611   2.585   2.686   5.356  0.4527  1.8310  0.2548
   30MOL   C274 9612   2.514   2.550   5.504  0.2490 -0.5945  0.2884
   30MOL   C275 9613   2.423   2.547   5.625  0.1740 -0.7627 -0.3062
   30MOL   C276 9614   2.286   2.592   5.619  0.3626 -0.1283 -1.0107
   30MOL   C277 9615   2.211   2.577   5.736  0.8276  0.1547  0.2321
   30MOL   C278 9616   2.268   2.548   5.857  0.0875  0.6843  0.7004
   30MOL  Cl279 9617   2.167   2.556   5.998 -0.1457  0.1476  0.2345
   30MOL   C280 9618   2.400   2.511   5.872 -0.0846  0.2760 -0.1771
   30MOL   C281 9619   2.480   2.509   5.755 -0.8140 -0.2871 -0.6138
   30MOL   C282 9620   2.477   2.450   5.383  0.0624 -0.5542 -0.6226
   30MOL   H283 9621   2.608   2.510   5.541  1.1229  1.6714  0.6066
   30MOL   H284 9622   2.240   2.624   5.527 -1.4549  0.3760  0.0587
   30MOL   H285 9623   2.105   2.600   5.742  0.8443  0.2418  0.1831
   30MOL   H286 9624   2.437   2.489   5.971  1.2535  3.0350 -0.0207
   30MOL   H287 9625   2.577   2.464   5.772 -0.5510  0.5981  0.2412
   30MOL   H288 9626   2.396   2.496   5.327  0.0388  0.8599  0.5484
   30MOL   H289 9627   2.561   2.456   5.313  0.3213 -3.0083 -0.5695
   30MOL   C290 9628   2.447   2.303   5.418  0.1874  0.4261 -0.5268
   30MOL   C291 9629   2.384   2.220   5.302  0.0730 -0.4946  0.7520
   30MOL   C292 9630   2.422   2.235   5.168  0.3105  0.3732  0.5683
   30MOL   C293 9631   2.360   2.162   5.065  0.3611  0.1625 -0.2733
   30MOL   C294 9632   2.266   2.062   5.097  0.5356 -0.7942  0.0635
   30MOL  Cl295 9633   2.176   1.976   4.974  0.2793 -0.3290 -0.0281
   30MOL   C296 9634   2.231   2.045   5.234 -0.3535  1.0876 -0.5091
   30MOL   C297 9635   2.285   2.127   5.337 -0.2145 -0.7644  0.0809
   30MOL   C298 9636   2.564   2.216   5.482 -0.5858  0.0339  0.0989
   30MOL   H299 9637   2.370   2.297   5.496  1.5479 -1.5636  0.7010
   30MOL   H300 9638   2.486   2.316   5.135 -1.0735  0.7299 -1.3081
   30MOL   H301 9639   2.378   2.189   4.962  1.7364 -0.7742 -0.2849
   30MOL   H302 9640   2.159   1.969   5.260  2.2607 -1.2549  0.1205
   30MOL   H303 9641   2.234   2.112   5.431 -0.5792  0.0699  0.0220
   30MOL   H304 9642   2.647   2.221   5.413 -1.6720 -0.1826 -1.2386
   30MOL   H305 9643   2.602   2.255   5.577  0.2126 -1.3892  0.3742
   30MOL   C306 9644   2.550   2.060   5.506 -0.5691 -0.2690  0.0540
   30MOL   C307 9645   2.677   1.991   5.547 -0.3346 -0.4459  0.4064
   30MOL   C308 9646   2.742   2.016   5.669 -0.6273 -0.0744  0.2572
   30MOL   C309 9647   2.869   1.955   5.693  0.3651 -0.2322  0.3746
   30MOL   C310 9648   2.916   1.857   5.602 -0.0150  0.7203  0.2167
   30MOL  Cl311 9649   3.059   1.772   5.639 -0.5750  0.1990 -0.0270
   30MOL   C312 9650   2.847   1.832   5.483  0.4585 -0.5095  0.5665
   30MOL   C313 9651   2.726   1.887   5.458  0.5391  0.7336  0.4496
   30MOL   C314 9652   2.445   2.009   5.606  0.2383  0.0945 -0.0779
   30MOL   H315 9653   2.529   2.005   5.414 -2.8205  0.1928  0.2810
   30MOL   H316 9654   2.702   2.084   5.743 -0.0491 -1.2854  1.7280
   30MOL   H317 9655   2.913   1.963   5.791 -1.4699  0.7551  1.1290
   30MOL   H318 9656   2.895   1.758   5.421  1.8287  0.7240  0.1174
   30MOL   H319 9657   2.678   1.861   5.365  3.0916  1.1910 -1.0780
   30MOL   H320 9658   2.460   1.915   5.659 -0.9422 -0.6706 -1.0786
   30MOL   H321 9659   2.418   2.095   5.668 -0.3702 -0.9319  1.0937
   30MOL   H322 9660   2.357   1.981   5.549 -0.5517  0.8219  0.7481
   31MOL     C1 9661   4.883   4.460   1.455  0.0021  0.3008 -0.0001
   31MOL     C2 9662   4.972   4.392   1.353 -0.8651 -0.3846 -0.2554
   31MOL     C3 9663   5.113   4.408   1.340  0.4148  0.9129 -0.6374
   31MOL     C4 9664   5.187   4.349   1.237  0.3725  0.5438  0.7012
   31MOL     C5 9665   5.122   4.268   1.145 -0.2757  0.1706 -0.0456
   31MOL    Cl6 9666   5.193   4.240   0.996 -0.0857 -0.3109  0.2398
   31MOL     C7 9667   4.984   4.238   1.159 -0.3404 -0.4734 -0.4306
   31MOL     C8 9668   4.911   4.295   1.264  0.4227 -0.2696 -0.1255
   31MOL     C9 9669   4.893   4.406   1.598  0.5948 -0.0156 -0.0349
   31MOL    H10 9670   4.781   4.442   1.421  0.4533 -2.4187 -0.0100
   31MOL    H11 9671   5.168   4.471   1.408 -1.8787 -0.5073  2.6754
   31MOL    H12 9672   5.287   4.384   1.218  0.2399 -0.8450 -2.9220
   31MOL    H13 9673   4.937   4.179   1.082 -2.9722  0.0265  0.7531
   31MOL    H14 9674   4.806   4.273   1.280  0.8151 -0.9105  1.8133
   31MOL    H15 9675   4.935   4.305   1.599  1.8850  0.5070 -0.2774
   31MOL    H16 9676   4.957   4.470   1.657 -1.9841  1.8749  0.8197
   31MOL    H17 9677   4.914   4.564   1.445 -0.7894  0.4959 -0.5003
   31MOL    C18 9678   4.752   4.396   1.666  0.3959  0.3047  0.9132
   31MOL    C19 9679   4.777   4.349   1.809  0.8680  0.2938 -0.0875
   31MOL    C20 9680   4.865   4.424   1.895 -0.0080  0.5461 -0.2095
   31MOL    C21 9681   4.886   4.382   2.029 -0.0543 -0.0418  0.0264
   31MOL    C22 9682   4.839   4.260   2.072  0.5465 -0.2434 -0.2946
   31MOL   Cl23 9683   4.871   4.208   2.237 -0.0064 -0.1223  0.2911
   31MOL    C24 9684   4.760   4.184   1.984  0.0182 -0.8960 -0.5028
   31MOL    C25 9685   4.718   4.230   1.857  0.2768  0.9532  0.1860
   31MOL    C26 9686   4.663   4.523   1.670 -0.6434  0.5597 -0.3382
   31MOL    H27 9687   4.694   4.319   1.615  2.0488 -1.0436  1.0217
   31MOL    H28 9688   4.902   4.518   1.856 -0.1857  0.9101  0.4985
   31MOL    H29 9689   4.942   4.443   2.099 -2.2626  0.1531  1.6742
   31MOL    H30 9690   4.731   4.093   2.033  1.7779  0.8024  3.9564
   31MOL    H31 9691   4.662   4.165   1.791  1.0184  1.4198 -0.9191
   31MOL    H32 9692   4.590   4.504   1.748 -0.8840 -2.4213 -1.2238
   31MOL    H33 9693   4.728   4.600   1.712  0.0283 -0.8772  1.3174
   31MOL    C34 9694   4.572   4.567   1.546  0.7541 -0.2490 -0.0235
   31MOL    C35 9695   4.465   4.463   1.509  0.1877 -0.2189 -0.0168
   31MOL    C36 9696   4.376   4.412   1.604 -0.0762 -0.6410 -0.0316
   31MOL    C37 9697   4.281   4.316   1.564 -0.2334  1.0783 -0.2408
   31MOL    C38 9698   4.293   4.252   1.440  0.7720  0.9593 -0.1749
   31MOL   Cl39 9699   4.188   4.118   1.401  0.0031 -0.0710 -0.1811
   31MOL    C40 9700   4.387   4.296   1.352 -0.2301 -0.3799 -0.4417
   31MOL    C41 9701   4.482   4.403   1.383  0.3388 -0.2288  0.0385
   31MOL    C42 9702   4.506   4.707   1.566 -0.0565 -0.4306  0.3254
   31MOL    H43 9703   4.633   4.581   1.456  1.9236 -2.3039  0.4225
   31MOL    H44 9704   4.377   4.450   1.705  0.6177  2.3188 -1.1108
   31MOL    H45 9705   4.210   4.286   1.639 -0.0790 -0.3684 -0.6600
   31MOL    H46 9706   4.408   4.252   1.256 -0.9872  0.2572 -0.8927
   31MOL    H47 9707   4.548   4.440   1.306 -0.2543  2.3794  0.7168
   31MOL    H48 9708   4.445   4.713   1.655 -1.3058  0.3350 -0.5683
   31MOL    H49 9709   4.592   4.772   1.584  0.5195 -1.7231  2.3716
   31MOL    C50 9710   4.425   4.766   1.448 -0.7577  1.0450  0.6236
   31MOL    C51 9711   4.333   4.871   1.507  0.1755  0.1134 -0.5032
   31MOL    C52 9712   4.192   4.855   1.495  0.2803  0.1430 -0.0112
   31MOL    C53 9713   4.092   4.933   1.556  0.4527 -0.9145 -0.6722
   31MOL    C54 9714   4.138   5.048   1.625 -0.3983  0.2934  0.2670
   31MOL   Cl55 9715   4.027   5.155   1.703  0.0089  0.0732  0.2279
   31MOL    C56 9716   4.272   5.080   1.638  0.2999  0.0353 -0.3374
   31MOL    C57 9717   4.370   4.990   1.578  0.1041  0.4072 -0.9593
   31MOL    C58 9718   4.509   4.831   1.331 -0.2792  0.1478 -0.2557
   31MOL    H59 9719   4.365   4.684   1.408  0.7624 -0.7515  1.9518
   31MOL    H60 9720   4.154   4.764   1.450  0.1333 -0.5088  1.4107
   31MOL    H61 9721   3.991   4.900   1.541 -0.1607 -0.0404  1.4117
   31MOL    H62 9722   4.305   5.172   1.684  2.5804 -0.6738 -0.4712
   31MOL    H63 9723   4.477   5.003   1.586 -0.2059  2.0390  1.3416
   31MOL    H64 9724   4.550   4.924   1.370  3.1538 -0.8652 -1.3163
   31MOL    H65 9725   4.587   4.763   1.296 -0.0513  1.7055 -2.8913
   31MOL    C66 9726   4.439   4.873   1.202  0.3997  0.0203 -0.2554
   31MOL    C67 9727   4.499   4.991   1.131  0.4603 -0.2519  0.1784
   31MOL    C68 9728   4.416   5.086   1.068 -0.0999  0.6294  0.6290
   31MOL    C69 9729   4.471   5.194   0.997 -0.5568  0.0350  0.2483
   31MOL    C70 9730   4.612   5.218   1.011  1.1202  0.1759  0.5397
   31MOL   Cl71 9731   4.677   5.355   0.932  0.2250 -0.1922  0.4017
   31MOL    C72 9732   4.701   5.130   1.074  0.5450  0.5871  0.2033
   31MOL    C73 9733   4.637   5.018   1.138 -0.1100  0.0051 -0.3720
   31MOL    C74 9734   4.388   4.758   1.110 -0.2518 -0.1101  0.1277
   31MOL    H75 9735   4.342   4.901   1.244  1.6981  2.2941  1.3825
   31MOL    H76 9736   4.308   5.077   1.072 -0.1284  1.0237  0.8454
   31MOL    H77 9737   4.414   5.277   0.958  0.4489  0.3864 -0.5175
   31MOL    H78 9738   4.807   5.142   1.085  0.6435  0.8560 -0.9323
   31MOL    H79 9739   4.704   4.948   1.187  1.2348  1.3492 -0.2720
   31MOL    H80 9740   4.409   4.666   1.164  0.9417  1.4977  2.4660
   31MOL    H81 9741   4.282   4.772   1.088 -0.6201 -0.5418  1.6060
   31MOL    C82 9742   4.457   4.732   0.978  0.7670 -0.8134 -0.5947
   31MOL    C83 9743   4.604   4.706   1.001 -0.4405  0.6182 -0.0470
   31MOL    C84 9744   4.695   4.778   0.919  0.1910  0.1297  0.9244
   31MOL    C85 9745   4.831   4.747   0.926 -0.2409  0.6794  0.3203
   31MOL    C86 9746   4.873   4.645   1.011 -0.1033  0.1774  0.8862
   31MOL   Cl87 9747   5.040   4.605   1.007  0.3237  0.0190  0.0766
   31MOL    C88 9748   4.783   4.575   1.093  0.7064  0.1196  0.5514
   31MOL    C89 9749   4.649   4.608   1.089 -0.2324  0.4668 -0.0769
   31MOL    C90 9750   4.400   4.612   0.897  0.0924  0.3697 -0.1102
   31MOL    H91 9751   4.445   4.824   0.920  1.8050  0.5283  1.2557
   31MOL    H92 9752   4.657   4.851   0.849 -0.1827 -1.8683 -1.0468
   31MOL    H93 9753   4.906   4.799   0.868  1.1154  0.6814  2.0161
   31MOL    H94 9754   4.813   4.501   1.166 -0.7922 -1.0468  0.0055
   31MOL    H95 9755   4.578   4.540   1.134 -0.0880  0.0846 -0.4300
   31MOL    H96 9756   4.469   4.572   0.824 -0.6714  0.3291 -0.8122
   31MOL    H97 9757   4.394   4.528   0.966  2.9711 -0.7614 -1.1849
   31MOL    C98 9758   4.251   4.631   0.845 -0.0847 -0.3958  0.4222
   31MOL    C99 9759   4.230   4.751   0.760 -1.0300 -0.1748  0.2626
   31MOL   C100 9760   4.117   4.835   0.780  0.2388  0.8391  0.0984
   31MOL   C101 9761   4.099   4.949   0.701 -0.3447 -0.4790 -0.5211
   31MOL   C102 9762   4.191   4.984   0.603  0.3711  0.7025 -0.0120
   31MOL  Cl103 9763   4.174   5.119   0.506 -0.0212  0.4036 -0.0442
   31MOL   C104 9764   4.305   4.905   0.579  1.1239  0.5147 -0.1102
   31MOL   C105 9765   4.319   4.788   0.654  0.1221 -0.4488  0.1755
   31MOL   C106 9766   4.190   4.504   0.793  0.1887  0.9677  0.0232
   31MOL   H107 9767   4.193   4.650   0.935 -2.0932 -0.0411 -0.8941
   31MOL   H108 9768   4.034   4.809   0.843  0.4265  1.3593  0.5623
   31MOL   H109 9769   4.014   5.015   0.713 -0.8866 -0.9703 -1.5394
   31MOL   H110 9770   4.368   4.928   0.494 -0.6014  0.5469 -1.3933
   31MOL   H111 9771   4.401   4.719   0.641  0.9617  0.0467  2.4727
   31MOL   H112 9772   4.090   4.530   0.758 -0.4535 -0.5626  0.7015
   31MOL   H113 9773   4.245   4.479   0.702 -1.3904 -0.6136 -0.5247
   31MOL   C114 9774   4.174   4.389   0.894 -0.6893  0.6788 -0.5160
   31MOL   C115 9775   4.083   4.426   1.009  0.3399  0.2869 -0.4706
   31MOL   C116 9776   4.132   4.439   1.145 -0.4679 -0.3679 -0.0378
   31MOL   C117 9777   4.051   4.482   1.249  0.0949 -0.8943  0.2253
   31MOL   C118 9778   3.915   4.511   1.226 -0.5507  0.3058  0.0476
   31MOL  Cl119 9779   3.812   4.575   1.352 -0.0663  0.0243 -0.3302
   31MOL   C120 9780   3.864   4.499   1.099 -0.7385  0.9404  0.4652
   31MOL   C121 9781   3.946   4.455   0.990 -0.1050 -0.0082 -0.2142
   31MOL   C122 9782   4.143   4.263   0.810 -0.1696 -0.0737 -0.1181
   31MOL   H123 9783   4.263   4.366   0.952 -1.8576  0.8493  1.4286
   31MOL   H124 9784   4.235   4.419   1.170 -0.5027 -0.5573 -0.0399
   31MOL   H125 9785   4.097   4.487   1.347  0.2496  0.5680  0.0773
   31MOL   H126 9786   3.761   4.525   1.082 -0.5323  0.9928 -0.7534
   31MOL   H127 9787   3.901   4.445   0.892 -1.0059 -2.0579  0.3804
   31MOL   H128 9788   4.045   4.279   0.765  0.1551 -1.3049 -1.2872
   31MOL   H129 9789   4.215   4.250   0.729  1.2661  2.3283  0.6978
   31MOL   C130 9790   4.131   4.136   0.892 -0.9262  0.4187 -0.1255
   31MOL   C131 9791   3.996   4.129   0.967  0.1647  0.0670 -0.1537
   31MOL   C132 9792   3.995   4.134   1.108  0.5027 -0.1148  0.5783
   31MOL   C133 9793   3.877   4.118   1.182 -0.3644  0.6743  0.5242
   31MOL   C134 9794   3.753   4.102   1.110 -0.5786  0.2578  0.4626
   31MOL  Cl135 9795   3.605   4.088   1.192 -0.3811 -0.4008 -0.2839
   31MOL   C136 9796   3.754   4.110   0.970 -1.0499  0.5211  0.3240
   31MOL   C137 9797   3.875   4.125   0.900  0.4843  0.6700 -0.3442
   31MOL   C138 9798   4.165   4.003   0.805 -0.6698 -1.0898 -0.1451
   31MOL   H139 9799   4.208   4.132   0.968 -2.2433 -2.3351  1.1232
   31MOL   H140 9800   4.087   4.149   1.163  0.6022  0.3576  0.2945
   31MOL   H141 9801   3.883   4.107   1.290 -0.3110 -1.4452  0.3322
   31MOL   H142 9802   3.664   4.111   0.909  0.2085 -2.2192 -1.6712
   31MOL   H143 9803   3.872   4.150   0.795 -0.6825  0.0666 -0.4592
   31MOL   H144 9804   4.095   3.979   0.725  0.8004 -0.2046 -1.7243
   31MOL   H145 9805   4.256   4.026   0.751 -2.1838  2.2906 -1.4075
   31MOL   C146 9806   4.186   3.884   0.895 -0.1134 -0.5100 -0.4669
   31MOL   C147 9807   4.058   3.828   0.960 -0.1320 -0.3971  0.3715
   31MOL   C148 9808   3.943   3.801   0.889 -0.6426  0.6165  0.0580
   31MOL   C149 9809   3.840   3.732   0.955 -0.0942  0.7154 -0.1094
   31MOL   C150 9810   3.850   3.697   1.086  0.3493  0.0647  0.0629
   31MOL  Cl151 9811   3.709   3.619   1.154  0.0573  0.0002 -0.0099
   31MOL   C152 9812   3.963   3.730   1.168  0.2605  0.1784  0.3291
   31MOL   C153 9813   4.063   3.800   1.097 -0.1734 -0.4107  0.8067
   31MOL   C154 9814   4.265   3.766   0.828 -0.1304  0.4867 -0.1343
   31MOL   H155 9815   4.244   3.925   0.978 -1.1606  0.6681 -0.3078
   31MOL   H156 9816   3.934   3.825   0.784  0.9910 -1.5887 -0.6190
   31MOL   H157 9817   3.747   3.701   0.910 -0.5069  1.1956  0.4062
   31MOL   H158 9818   3.977   3.699   1.270  2.3352 -1.1281 -0.3245
   31MOL   H159 9819   4.151   3.823   1.156 -0.6454  1.0292  0.9735
   31MOL   H160 9820   4.280   3.693   0.907  1.6810  0.6539 -0.3064
   31MOL   H161 9821   4.201   3.715   0.756 -1.8311  1.9617  0.2827
   31MOL   C162 9822   4.409   3.780   0.768  0.8479 -0.2085  0.1012
   31MOL   C163 9823   4.483   3.896   0.829 -0.0997 -0.2949  0.2042
   31MOL   C164 9824   4.487   3.911   0.969  0.8699  0.1032  0.3117
   31MOL   C165 9825   4.549   4.020   1.030 -0.3410  0.4237 -0.0092
   31MOL   C166 9826   4.604   4.125   0.946  0.1774 -0.3178  0.3904
   31MOL  Cl167 9827   4.659   4.271   1.020  0.0490 -0.1031 -0.0069
   31MOL   C168 9828   4.610   4.105   0.808 -0.2639  0.5578  0.4979
   31MOL   C169 9829   4.545   3.994   0.751  0.2532  0.2089 -0.2841
   31MOL   C170 9830   4.491   3.649   0.780  0.4627  0.0961 -0.0086
   31MOL   H171 9831   4.396   3.801   0.662  2.3675  3.2638  0.5418
   31MOL   H172 9832   4.450   3.834   1.035  0.1485 -0.6643 -0.9643
   31MOL   H173 9833   4.550   4.028   1.138  0.5771 -0.5439  0.0586
   31MOL   H174 9834   4.664   4.177   0.748 -3.6516  0.9043 -2.3117
   31MOL   H175 9835   4.545   3.990   0.643  1.9717  0.8539 -0.3275
   31MOL   H176 9836   4.508   3.624   0.884  1.0910 -3.9623 -1.0009
   31MOL   H177 9837   4.425   3.573   0.738 -0.7033 -0.2062  2.2945
   31MOL   C178 9838   4.629   3.647   0.718  0.1793 -0.4500  0.9850
   31MOL   C179 9839   4.695   3.513   0.756  0.3474 -0.2688 -0.0577
   31MOL   C180 9840   4.635   3.397   0.709  0.5377  0.0140 -0.4386
   31MOL   C181 9841   4.680   3.267   0.750  0.4778  0.3067 -0.4683
   31MOL   C182 9842   4.784   3.253   0.841  0.1574 -0.1656 -0.2147
   31MOL  Cl183 9843   4.836   3.096   0.902 -0.0027 -0.1290 -0.0345
   31MOL   C184 9844   4.855   3.372   0.875 -0.1567 -0.6149 -0.0930
   31MOL   C185 9845   4.813   3.503   0.834 -0.5905 -0.2640  0.7659
   31MOL   C186 9846   4.634   3.682   0.566 -0.2330  0.0647 -0.1917
   31MOL   H187 9847   4.686   3.722   0.772 -0.7339  1.3460 -0.4489
   31MOL   H188 9848   4.541   3.397   0.656  0.0299 -0.8990  0.4162
   31MOL   H189 9849   4.620   3.184   0.715  1.9249 -1.6208  1.4987
   31MOL   H190 9850   4.947   3.355   0.928 -1.2157 -3.3933  0.9162
   31MOL   H191 9851   4.864   3.586   0.880 -2.7353  1.6310 -0.2340
   31MOL   H192 9852   4.609   3.591   0.511 -1.3068  0.5800 -0.5649
   31MOL   H193 9853   4.549   3.744   0.538 -1.5821 -1.0203  1.4328
   31MOL   C194 9854   4.767   3.753   0.523 -0.0461  0.7398  0.4861
   31MOL   C195 9855   4.898   3.678   0.541 -0.3703 -0.0366  0.7189
   31MOL   C196 9856   5.012   3.745   0.577 -0.8781  0.1971 -0.4528
   31MOL   C197 9857   5.132   3.665   0.600 -0.2120 -0.0710  0.1673
   31MOL   C198 9858   5.128   3.524   0.568  0.0151 -0.0616 -0.0164
   31MOL  Cl199 9859   5.273   3.424   0.581 -0.0206  0.2239 -0.1137
   31MOL   C200 9860   5.013   3.466   0.510 -0.1993 -0.0401 -0.3737
   31MOL   C201 9861   4.896   3.541   0.500  1.0960  0.5571 -0.0882
   31MOL   C202 9862   4.740   3.811   0.388 -0.0729  0.2018 -0.4212
   31MOL   H203 9863   4.775   3.827   0.602  0.0711  1.0005  0.2314
   31MOL   H204 9864   5.001   3.851   0.588  0.2004  0.6807 -3.4644
   31MOL   H205 9865   5.227   3.708   0.629 -0.1506  0.3115 -0.6030
   31MOL   H206 9866   4.999   3.362   0.483 -1.6640 -0.9771  3.6385
   31MOL   H207 9867   4.808   3.485   0.470  1.3050  1.0427 -1.6477
   31MOL   H208 9868   4.754   3.730   0.316 -1.8324 -0.3930 -0.1144
   31MOL   H209 9869   4.636   3.842   0.376  0.4374  1.3442 -2.2447
   31MOL   C210 9870   4.845   3.923   0.350 -0.2410 -0.0858 -0.9239
   31MOL   C211 9871   4.849   3.935   0.199  0.0974  0.3081 -0.9341
   31MOL   C212 9872   4.745   3.996   0.129  0.3328 -0.1012 -1.0006
   31MOL   C213 9873   4.733   3.988   8.432  0.1464  0.1573  0.1933
   31MOL   C214 9874   4.842   3.940   8.356 -0.0559  0.2183 -0.3381
   31MOL  Cl215 9875   4.844   3.942   8.182  0.3194 -0.2516 -0.2914
   31MOL   C216 9876   4.947   3.869   8.422  0.3299 -0.1245 -0.2402
   31MOL   C217 9877   4.954   3.874   0.122  0.6079 -0.0917 -0.0598
   31MOL   C218 9878   4.822   4.062   0.411 -0.4919  0.1715  0.4917
   31MOL   H219 9879   4.946   3.884   0.364 -0.0666 -0.1286 -2.2660
   31MOL   H220 9880   4.669   4.050   0.184  0.2166 -0.1644 -1.1000
   31MOL   H221 9881   4.657   4.041   8.376 -1.0335 -0.8277  0.8511
   31MOL   H222 9882   5.023   3.828   8.357  0.7313  0.1792  0.0372
   31MOL   H223 9883   5.036   3.815   0.160 -0.1197 -1.4613 -0.5793
   31MOL   H224 9884   4.726   4.103   0.382 -1.2806 -1.3505  0.8949
   31MOL   H225 9885   4.813   4.044   0.518 -3.6810 -1.6869 -0.0171
   31MOL   C226 9886   4.939   4.161   0.385 -0.5347 -0.0450  0.0446
   31MOL   C227 9887   4.894   4.308   0.406 -0.5984  0.1034 -0.1803
   31MOL   C228 9888   4.841   4.354   0.528 -0.1427 -0.1152  0.7245
   31MOL   C229 9889   4.784   4.484   0.543 -0.4430  0.1881 -0.0358
   31MOL   C230 9890   4.802   4.575   0.439 -0.0677  0.7811 -0.1433
   31MOL  Cl231 9891   4.733   4.737   0.448  0.1012  0.1135 -0.1494
   31MOL   C232 9892   4.853   4.531   0.314  0.0577  0.5470  0.4312
   31MOL   C233 9893   4.909   4.405   0.305 -0.0568 -0.0053  0.7124
   31MOL   C234 9894   5.061   4.136   0.473  0.3698  0.5221 -0.1898
   31MOL   H235 9895   4.974   4.147   0.283 -2.2749 -0.8303 -0.4570
   31MOL   H236 9896   4.819   4.287   0.610 -1.2096 -0.7344 -0.0600
   31MOL   H237 9897   4.731   4.516   0.632  0.9167 -1.0954  1.2754
   31MOL   H238 9898   4.872   4.603   0.236 -2.8330  3.5342  2.3687
   31MOL   H239 9899   4.967   4.380   0.217 -0.1236 -0.1353  0.7047
   31MOL   H240 9900   5.027   4.137   0.576 -0.5938 -1.1138 -0.4866
   31MOL   H241 9901   5.090   4.032   0.457  1.7345  1.0856 -1.5482
   31MOL   C242 9902   5.187   4.224   0.450  0.3346  0.0781  0.7268
   31MOL   C243 9903   5.260   4.275   0.572  0.8158  0.1338 -0.3071
   31MOL   C244 9904   5.264   4.412   0.609  0.1938  0.6200 -0.1899
   31MOL   C245 9905   5.352   4.462   0.704 -0.1814  0.1663 -0.2952
   31MOL   C246 9906   5.433   4.367   0.769  0.5107  0.3464 -1.0793
   31MOL  Cl247 9907   5.544   4.420   0.882 -0.3606  0.2594  0.0438
   31MOL   C248 9908   5.426   4.235   0.741 -0.2003  0.3911 -0.0437
   31MOL   C249 9909   5.332   4.185   0.646 -0.0903 -0.7887 -0.3726
   31MOL   C250 9910   5.286   4.148   0.354  0.2525  0.3830  0.1563
   31MOL   H251 9911   5.165   4.309   0.386  0.8657 -0.2896  0.0470
   31MOL   H252 9912   5.212   4.483   0.547 -2.2326 -0.2976  0.7145
   31MOL   H253 9913   5.369   4.566   0.728  2.4713 -0.2823 -0.0474
   31MOL   H254 9914   5.498   4.173   0.792  1.3527  2.0884 -0.1229
   31MOL   H255 9915   5.334   4.079   0.626  1.3071 -0.9578  0.5829
   31MOL   H256 9916   5.357   4.078   0.400  0.2375 -0.1517 -0.6122
   31MOL   H257 9917   5.228   4.081   0.291  0.3298  1.0937 -0.6735
   31MOL   C258 9918   5.360   4.255   0.263 -0.9976 -0.5394 -0.1065
   31MOL   C259 9919   5.444   4.352   0.344  0.1497  0.0978  1.1037
   31MOL   C260 9920   5.545   4.300   0.432 -0.4777 -0.4712  0.2406
   31MOL   C261 9921   5.626   4.391   0.499  0.3581  0.6356  0.0689
   31MOL   C262 9922   5.611   4.528   0.478 -0.1037  0.1170 -0.8382
   31MOL  Cl263 9923   5.712   4.636   0.569  0.1691 -0.1629  0.2172
   31MOL   C264 9924   5.513   4.582   0.392  0.1206  0.7362  0.2739
   31MOL   C265 9925   5.436   4.489   0.321  0.3426 -0.2037  0.3398
   31MOL   C266 9926   5.448   4.194   0.152  0.3514  0.0683  0.2862
   31MOL   H267 9927   5.282   4.305   0.205 -1.2865 -0.8913 -0.0207
   31MOL   H268 9928   5.550   4.193   0.447  0.9578 -0.3273  0.8579
   31MOL   H269 9929   5.705   4.355   0.563 -0.1786 -0.5956  0.0393
   31MOL   H270 9930   5.500   4.687   0.369 -0.9781 -0.2540 -4.0877
   31MOL   H271 9931   5.363   4.532   0.255  0.0325 -0.4211  0.5405
   31MOL   H272 9932   5.502   4.273   0.100  0.0256  1.5853  2.1860
   31MOL   H273 9933   5.519   4.125   0.197 -0.8306 -1.1957  0.2566
   31MOL   C274 9934   5.381   4.116   0.038  0.2453 -0.1498  0.1842
   31MOL   C275 9935   5.268   4.194   8.413 -0.5328 -0.2977 -0.5229
   31MOL   C276 9936   5.152   4.127   8.372 -0.3840  0.7927  0.3912
   31MOL   C277 9937   5.057   4.190   8.290 -0.0019  0.3459  0.3832
   31MOL   C278 9938   5.065   4.330   8.278 -0.3387 -0.3233  0.2008
   31MOL  Cl279 9939   4.934   4.416   8.210 -0.1763 -0.5112 -0.2566
   31MOL   C280 9940   5.178   4.399   8.316 -0.3969 -0.4555 -0.2825
   31MOL   C281 9941   5.283   4.333   8.387 -0.1513  0.3775 -0.6571
   31MOL   C282 9942   5.480   4.080   8.373 -0.2673 -0.2805 -0.4601
   31MOL   H283 9943   5.326   4.036   0.088 -0.0613  1.7641  3.0870
   31MOL   H284 9944   5.146   4.020   8.385  4.4001  0.3543 -0.2607
   31MOL   H285 9945   4.970   4.143   8.245 -0.5972  0.7730  1.0765
   31MOL   H286 9946   5.194   4.505   8.303  1.1033 -0.6922 -0.3729
   31MOL   H287 9947   5.373   4.388   8.407  0.3560 -0.1481 -1.4782
   31MOL   H288 9948   5.434   4.026   8.290 -0.8708  0.2354 -0.4614
   31MOL   H289 9949   5.517   4.169   8.323 -0.9898 -0.8276 -1.9979
   31MOL   C290 9950   5.598   3.993   8.417 -0.0149 -0.3966  0.2675
   31MOL   C291 9951   5.549   3.870   0.040 -0.1488 -0.0363 -0.1383
   31MOL   C292 9952   5.463   3.771   8.423  0.3887  0.3428 -0.2707
   31MOL   C293 9953   5.427   3.652   0.053  0.2724  0.5189  0.1145
   31MOL   C294 9954   5.487   3.623   0.178  0.1374  0.1304 -0.0047
   31MOL  Cl295 9955   5.442   3.482   0.270 -0.0835  0.2919 -0.0479
   31MOL   C296 9956   5.579   3.715   0.235 -0.1660  1.0854 -0.1949
   31MOL   C297 9957   5.601   3.834   0.168  0.0410  0.0052  0.7452
   31MOL   C298 9958   5.697   3.968   8.295 -0.6313  0.7557  0.9813
   31MOL   H299 9959   5.659   4.056   0.039  0.4853  0.2063 -0.7672
   31MOL   H300 9960   5.426   3.786   8.323 -0.5821 -0.6282 -0.0670
   31MOL   H301 9961   5.356   3.581   0.015  1.2360 -1.3929  1.7999
   31MOL   H302 9962   5.621   3.696   0.332 -0.5224  2.0343  0.1449
   31MOL   H303 9963   5.670   3.905   0.211  2.2588  0.5756 -3.5804
   31MOL   H304 9964   5.632   3.909   8.231 -3.3434 -0.3025  4.5029
   31MOL   H305 9965   5.722   4.062   8.246  1.7165 -1.4821 -2.3137
   31MOL   C306 9966   5.830   3.897   8.314  0.3732  0.4428  0.4790
   31MOL   C307 9967   5.892   3.856   8.176  0.6124  0.7734  0.2353
   31MOL   C308 9968   5.916   3.951   8.071 -0.5414 -0.4018  0.0092
   31MOL   C309 9969   5.963   3.911   7.942 -0.3884 -0.1157 -0.0644
   31MOL   C310 9970   5.967   3.776   7.910 -0.3784  0.3125 -0.4960
   31MOL  Cl311 9971   6.021   3.721   7.754  0.4679  0.1226  0.2561
   31MOL   C312 9972   5.939   3.672   8.016  0.5200 -0.1364  0.2840
   31MOL   C313 9973   5.910   3.718   8.147 -0.0945  0.3621  0.2428
   31MOL   C314 9974   5.928   3.979   8.395 -0.0561  0.5115 -0.1977
   31MOL   H315 9975   5.803   3.804   8.364  1.0681  1.1520  2.2000
   31MOL   H316 9976   5.931   4.054   8.100 -1.1574 -0.1109 -0.7071
   31MOL   H317 9977   5.985   3.980   7.862 -0.3373  0.8534  0.7763
   31MOL   H318 9978   5.932   3.567   7.990  0.2058 -0.2305  0.7540
   31MOL   H319 9979   5.889   3.652   8.230 -1.6576  0.7036  0.1245
   31MOL   H320 9980   5.900   4.012   0.051 -0.4678  0.3494 -0.2607
   31MOL   H321 9981   6.025   3.929   8.407 -1.8120 -3.1836 -0.7658
   31MOL   H322 9982   5.949   4.079   8.357 -1.4108  1.1991  0.8383
   32MOL     C1 9983   1.794   0.415   0.737 -1.0620 -0.3399 -0.2254
   32MOL     C2 9984   1.939   0.415   0.773  0.2664 -0.3553  0.1964
   32MOL     C3 9985   2.029   0.335   0.699  0.2504 -0.8019  0.1035
   32MOL     C4 9986   2.163   0.341   0.731  0.8037  0.0315  0.3138
   32MOL     C5 9987   2.211   0.423   0.832 -0.4291  0.3649  0.0857
   32MOL    Cl6 9988   2.377   0.462   0.833 -0.1240  0.4574 -0.4231
   32MOL     C7 9989   2.122   0.496   0.908  0.0172  0.0757  0.0743
   32MOL     C8 9990   1.984   0.496   0.878 -0.3133 -0.5832  0.0127
   32MOL     C9 9991   1.748   0.537   0.666 -0.4878 -0.0611 -0.0469
   32MOL    H10 9992   1.739   0.403   0.830  0.1854 -1.8006  0.3620
   32MOL    H11 9993   1.989   0.279   0.616  0.1513  0.2458 -0.5695
   32MOL    H12 9994   2.231   0.283   0.670 -2.1598 -2.3070 -0.8769
   32MOL    H13 9995   2.159   0.557   0.989  0.2430  0.5026 -0.3473
   32MOL    H14 9996   1.915   0.551   0.940 -0.0439  0.8557 -0.9268
   32MOL    H15 9997   1.771   0.621   0.733 -2.3932  0.1169  0.3977
   32MOL    H16 9998   1.809   0.549   0.576 -2.1537 -1.2219 -1.3522
   32MOL    H17 9999   1.774   0.325   0.678  0.4117  0.0856 -1.4122
   32MOL    C1810000   1.600   0.550   0.640 -0.6445 -0.2206  0.0910
   32MOL    C1910001   1.563   0.692   0.592  0.2609  0.5600  0.5097
   32MOL    C2010002   1.435   0.736   0.631  0.4310 -0.6453  0.2303
   32MOL    C2110003   1.375   0.850   0.576  0.1931  0.2256  1.0095
   32MOL    C2210004   1.459   0.929   0.488 -0.2612 -0.3208 -0.4719
   32MOL   Cl2310005   1.386   1.063   0.415 -0.0733 -0.3622 -0.1769
   32MOL    C2410006   1.590   0.887   0.460  0.0928  0.1544 -0.0050
   32MOL    C2510007   1.641   0.766   0.503  0.8389  0.7032  0.2465
   32MOL    C2610008   1.540   0.434   0.551  0.2995  0.1132  0.6202
   32MOL    H2710009   1.543   0.531   0.731 -0.2077 -0.0689  0.3954
   32MOL    H2810010   1.377   0.675   0.699 -0.0443  1.3549  1.6470
   32MOL    H2910011   1.270   0.874   0.588 -0.0090 -0.3317  0.4170
   32MOL    H3010012   1.641   0.950   0.389 -0.9599 -0.1074 -1.0222
   32MOL    H3110013   1.733   0.718   0.476  1.5166  0.5498  2.7094
   32MOL    H3210014   1.535   0.338   0.603 -0.4672 -0.4381 -0.4559
   32MOL    H3310015   1.434   0.459   0.548  0.3192  0.1013 -3.1024
   32MOL    C3410016   1.594   0.416   0.401  0.1252 -0.6236  0.2186
   32MOL    C3510017   1.732   0.360   0.375 -0.2531 -0.1084 -0.0524
   32MOL    C3610018   1.770   0.231   0.425 -0.1148 -0.4899  0.2221
   32MOL    C3710019   1.898   0.180   0.400  0.3410 -0.2736  0.0557
   32MOL    C3810020   1.992   0.254   0.325 -0.4327 -0.6069  0.2838
   32MOL   Cl3910021   2.149   0.185   0.289  0.4353 -0.1030 -0.0963
   32MOL    C4010022   1.957   0.384   0.282  0.0378 -0.2576  0.4826
   32MOL    C4110023   1.830   0.436   0.304  0.2149  0.5519 -0.3473
   32MOL    C4210024   1.489   0.343   0.316  0.3284  0.1576 -0.5487
   32MOL    H4310025   1.598   0.515   0.355  1.6463  0.8901  3.4471
   32MOL    H4410026   1.697   0.173   0.480  0.3582  1.7918  3.4230
   32MOL    H4510027   1.922   0.080   0.430  0.0948 -0.2981  0.1645
   32MOL    H4610028   2.032   0.444   0.233 -0.3522 -0.2152 -0.0673
   32MOL    H4710029   1.806   0.534   0.264  0.4330  0.9270  0.4192
   32MOL    H4810030   1.533   0.272   0.245 -0.0543 -0.8957  0.2545
   32MOL    H4910031   1.424   0.279   0.375 -0.9595  0.9871 -1.0417
   32MOL    C5010032   1.398   0.432   0.220 -0.1112 -0.2552  0.2828
   32MOL    C5110033   1.480   0.501   0.114  0.0576  0.4287  0.0964
   32MOL    C5210034   1.575   0.434   0.035  0.8249  0.2682 -0.0946
   32MOL    C5310035   1.651   0.503   8.378  0.2427  0.2719  0.2048
   32MOL    C5410036   1.636   0.643   8.351  0.1806  0.3120  0.2095
   32MOL   Cl5510037   1.731   0.725   8.237 -0.2594 -0.0083 -0.0339
   32MOL    C5610038   1.530   0.706   8.428  0.4634 -0.6625 -0.1129
   32MOL    C5710039   1.452   0.635   0.082  0.5456 -0.0776 -0.4559
   32MOL    C5810040   1.285   0.349   0.153  0.9568 -0.7787 -0.1357
   32MOL    H5910041   1.349   0.514   0.273  2.6850  2.5693 -1.3401
   32MOL    H6010042   1.597   0.331   0.054  0.5654  0.4419  1.1365
   32MOL    H6110043   1.716   0.438   8.322  1.5845  2.0862 -0.4051
   32MOL    H6210044   1.508   0.810   8.410  1.0862 -0.9276 -2.5753
   32MOL    H6310045   1.374   0.692   0.129  1.6373  0.9476  0.1233
   32MOL    H6410046   1.220   0.418   0.098  1.0382 -0.4419  0.1915
   32MOL    H6510047   1.326   0.276   0.083  0.7055 -0.7894 -0.2734
   32MOL    C6610048   1.185   0.277   0.254 -0.2177 -0.0425  1.0807
   32MOL    C6710049   1.156   0.341   0.388 -1.1199  0.3892 -0.3925
   32MOL    C6810050   1.085   0.461   0.384 -0.5076  0.2676  0.5588
   32MOL    C6910051   1.058   0.528   0.508  0.2444 -1.1688 -0.7361
   32MOL    C7010052   1.094   0.473   0.626 -0.0255  0.3161 -0.8169
   32MOL   Cl7110053   1.067   0.556   0.769  0.0922 -0.3343 -0.1579
   32MOL    C7210054   1.157   0.347   0.628  1.0119  0.1148 -0.4173
   32MOL    C7310055   1.181   0.278   0.509 -0.3718  0.6462  0.4536
   32MOL    C7410056   1.061   0.223   0.174 -0.2093  0.1489  0.3167
   32MOL    H7510057   1.234   0.183   0.281 -2.3437 -1.1341  1.2566
   32MOL    H7610058   1.055   0.506   0.291  2.0715 -0.0448 -0.4598
   32MOL    H7710059   1.019   0.629   0.503  1.1440 -0.5805  2.6823
   32MOL    H7810060   1.195   0.307   0.721  1.6782 -1.2094 -1.2476
   32MOL    H7910061   1.241   0.189   0.500 -1.3071  0.0826 -0.3215
   32MOL    H8010062   0.994   0.309   0.173 -0.2021  0.1540  0.0523
   32MOL    H8110063   1.094   0.210   0.071 -2.4071  1.3543 -0.5738
   32MOL    C8210064   1.004   0.085   0.221  0.3378  0.9184  0.4286
   32MOL    C8310065   0.902   0.099   0.333 -0.3238  0.5015  0.6383
   32MOL    C8410066   0.774   0.159   0.312 -0.5097  0.4272 -0.5493
   32MOL    C8510067   0.677   0.168   0.417 -0.3625  0.2645 -0.7394
   32MOL    C8610068   0.710   0.126   0.544 -0.0022  0.4438  0.3987
   32MOL   Cl8710069   0.595   0.138   0.670 -0.3166 -0.1819 -0.0235
   32MOL    C8810070   0.831   0.067   0.569 -0.4345  0.3246  0.4407
   32MOL    C8910071   0.932   0.058   0.466  0.3297  0.5950  0.0143
   32MOL    C9010072   0.951   8.439   0.101  0.0344 -0.0720 -0.5282
   32MOL    H9110073   1.087   0.036   0.272 -2.2027 -2.2881  1.6762
   32MOL    H9210074   0.746   0.199   0.216  0.7810  2.8697  0.0667
   32MOL    H9310075   0.586   0.221   0.393 -0.6109 -0.5228 -1.5614
   32MOL    H9410076   0.866   0.037   0.667 -1.0230 -0.8331  0.2962
   32MOL    H9510077   1.034   0.024   0.481 -0.3770 -1.5228  0.0898
   32MOL    H9610078   0.906   8.357   0.157  2.3464 -0.4369  0.8626
   32MOL    H9710079   0.868   0.043   0.049 -0.4695  0.9959  1.2078
   32MOL    C9810080   1.062   8.388   8.440  0.5732  0.5291  0.2483
   32MOL    C9910081   1.210   8.384   0.048 -0.3607 -0.1456  0.4673
   32MOL   C10010082   1.307   0.038   0.006  0.0773  0.0433  0.2518
   32MOL   C10110083   1.427   0.045   0.081 -0.3855  0.1518 -0.3041
   32MOL   C10210084   1.463   8.397   0.175 -0.2709  0.8682  0.0308
   32MOL  Cl10310085   1.622   8.409   0.240  0.1778  0.1969  0.7984
   32MOL   C10410086   1.370   8.302   0.217 -0.1582 -0.6545 -0.2641
   32MOL   C10510087   1.243   8.297   0.153  0.3471  0.7659  0.3383
   32MOL   C10610088   1.026   8.250   8.383  0.4400  0.0642 -0.2776
   32MOL   H10710089   1.070   0.014   8.356  0.9673  1.5841  1.1349
   32MOL   H10810090   1.290   0.094   8.359 -2.4534 -1.2276 -0.1166
   32MOL   H10910091   1.506   0.116   0.062  0.0416 -0.4575 -0.8279
   32MOL   H11010092   1.397   8.229   0.293  1.4113 -1.0360 -1.1618
   32MOL   H11110093   1.171   8.229   0.196 -0.6361  0.9522 -0.9983
   32MOL   H11210094   1.108   8.212   8.322  0.6050 -1.8568  1.0902
   32MOL   H11310095   1.011   8.178   0.021 -0.4083  0.4957 -0.0467
   32MOL   C11410096   0.903   8.253   8.293  0.2279  0.1068 -0.2323
   32MOL   C11510097   0.923   8.330   8.162 -0.3458 -0.5111 -0.9319
   32MOL   C11610098   1.018   8.274   8.071  0.0555  0.0257 -0.2268
   32MOL   C11710099   1.038   8.333   7.944  0.5011  0.0982  0.1527
   32MOL   C11810100   0.968   0.011   7.912 -0.1970  0.8580 -0.2558
   32MOL  Cl11910101   1.002   0.092   7.762  0.1569 -0.2701  0.1262
   32MOL   C12010102   0.880   0.069   8.002 -0.4691 -0.4489 -0.3470
   32MOL   C12110103   0.863   0.011   8.129  0.4578 -0.4007 -0.3069
   32MOL   C12210104   0.843   8.107   8.270 -0.0794  0.2306 -0.1037
   32MOL   H12310105   0.827   8.307   8.351 -0.7800  1.1189 -2.4505
   32MOL   H12410106   1.057   8.175   8.088 -1.0577 -0.3070  0.4276
   32MOL   H12510107   1.102   8.291   7.868 -0.8516 -0.5567 -0.6525
   32MOL   H12610108   0.825   0.159   7.976 -0.1832 -0.3915 -0.7562
   32MOL   H12710109   0.792   0.060   8.194  1.2415 -0.0752  0.3104
   32MOL   H12810110   0.773   8.110   8.186 -0.1279 -2.5612 -0.2117
   32MOL   H12910111   0.921   8.035   8.244  0.5008  0.7281  0.2496
   32MOL   C13010112   0.739   8.065   8.373 -0.8351  0.4300 -0.1934
   32MOL   C13110113   0.628   8.171   8.397 -0.6399  0.1486  0.2994
   32MOL   C13210114   0.530   8.190   8.298  0.0508  0.3116 -0.8127
   32MOL   C13310115   0.423   8.278   8.316  0.0772  0.3760  0.3934
   32MOL   C13410116   0.402   8.335   0.000 -0.0644 -0.0060 -0.1618
   32MOL  Cl13510117   0.259   8.433   0.029 -0.4986  0.3723  0.4262
   32MOL   C13610118   0.500   8.326   0.103  0.5021 -0.5084 -0.5385
   32MOL   C13710119   0.609   8.239   0.076  1.2923 -0.2529  0.1140
   32MOL   C13810120   0.682   7.923   8.339 -0.4320  0.0938 -0.1074
   32MOL   H13910121   0.797   8.057   0.023 -1.4480 -2.8199 -0.0437
   32MOL   H14010122   0.543   8.139   8.203  0.7244  0.5056 -0.8269
   32MOL   H14110123   0.348   8.297   8.240  0.3015 -1.6323 -0.3627
   32MOL   H14210124   0.487   8.379   0.196  0.0875  0.0080 -0.8833
   32MOL   H14310125   0.672   8.219   0.161  0.0438  1.1843  1.4126
   32MOL   H14410126   0.626   7.940   8.247  0.4756  1.6600 -0.4033
   32MOL   H14510127   0.770   7.867   8.307 -0.1134  0.8729 -0.6112
   32MOL   C14610128   0.586   7.873   0.004  0.8306  0.2791  1.0573
   32MOL   C14710129   0.472   7.792   8.394 -0.0850  0.1696 -0.1057
   32MOL   C14810130   0.373   7.854   8.306  0.1693  0.5295 -0.1277
   32MOL   C14910131   0.268   7.776   8.257  0.1535 -0.0683  1.4853
   32MOL   C15010132   0.260   7.644   8.290  0.0608 -0.5703 -0.2570
   32MOL  Cl15110133   0.128   7.559   8.230  0.0034  0.3704 -0.2207
   32MOL   C15210134   0.351   7.578   8.368 -0.0900 -0.5065 -0.9250
   32MOL   C15310135   0.456   7.651   8.419 -0.1567 -0.6887  0.1024
   32MOL   C15410136   0.665   7.816   0.123 -0.2729 -0.3919 -0.2513
   32MOL   H15510137   0.543   7.970   0.029  0.9995  1.6234 -3.4433
   32MOL   H15610138   0.362   7.960   8.287  1.3421  1.2503  2.8662
   32MOL   H15710139   0.199   7.825   8.190  1.0336 -0.1565  0.5071
   32MOL   H15810140   0.338   7.473   8.391  0.3112 -0.3564  0.0005
   32MOL   H15910141   0.528   7.590   0.029  0.6651 -0.6593 -0.9569
   32MOL   H16010142   0.695   7.716   0.092  1.4609  0.9476 -3.0728
   32MOL   H16110143   0.761   7.866   0.143 -0.9426  0.4963  0.8252
   32MOL   C16210144   0.601   7.805   0.261 -0.1451  0.7165  0.3868
   32MOL   C16310145   0.673   7.716   0.363 -0.1052  0.7551 -0.0433
   32MOL   C16410146   0.598   7.641   0.455  0.3596 -0.5684 -0.0979
   32MOL   C16510147   0.653   7.578   0.566 -0.4211  0.0516 -1.2555
   32MOL   C16610148   0.788   7.593   0.582 -0.1515  0.4605  0.6655
   32MOL  Cl16710149   0.872   7.517   0.711  0.3181  0.3899 -0.5188
   32MOL   C16810150   0.872   7.661   0.492 -0.5460  0.4171 -0.3400
   32MOL   C16910151   0.812   7.727   0.379  0.5509 -0.0460  0.6718
   32MOL   C17010152   0.585   7.946   0.320 -0.0046 -0.0262  0.0867
   32MOL   H17110153   0.501   7.767   0.242  0.5603 -1.4383  0.7945
   32MOL   H17210154   0.493   7.638   0.431  0.4829  2.0330 -1.0755
   32MOL   H17310155   0.594   7.515   0.630  0.6461 -0.7650 -1.0569
   32MOL   H17410156   0.979   7.663   0.508 -0.6811  0.8048  0.5458
   32MOL   H17510157   0.875   7.786   0.315  1.5309 -1.5630  0.2270
   32MOL   H17610158   0.682   7.983   0.352  0.4782  0.5178 -1.9620
   32MOL   H17710159   0.548   8.005   0.236  0.0761  2.7608  1.9323
   32MOL   C17810160   0.499   7.977   0.447  0.4297 -0.4797  0.3187
   32MOL   C17910161   0.573   8.016   0.571  0.3763  0.3842  1.4178
   32MOL   C18010162   0.587   7.922   0.672 -0.5766 -0.1166 -0.3443
   32MOL   C18110163   0.658   7.961   0.790 -0.3365  0.2538  0.0885
   32MOL   C18210164   0.715   8.088   0.800  0.3164 -0.0681  0.1641
   32MOL  Cl18310165   0.802   8.121   0.947 -0.0239  0.2052 -0.2270
   32MOL   C18410166   0.699   8.181   0.699 -0.0015  0.5210  0.0571
   32MOL   C18510167   0.627   8.145   0.584  1.1288  0.2983 -0.0739
   32MOL   C18610168   0.386   8.087   0.417 -0.1658 -0.6138 -0.7049
   32MOL   H18710169   0.455   7.880   0.468 -0.6903 -0.4509 -1.7395
   32MOL   H18810170   0.537   7.826   0.676 -0.1045 -0.3266  0.6569
   32MOL   H18910171   0.667   7.891   0.871 -0.7366 -0.4942 -0.5121
   32MOL   H19010172   0.741   8.278   0.725  0.1881  0.5695 -0.4238
   32MOL   H19110173   0.623   8.211   0.499  1.3962 -1.2712 -1.3330
   32MOL   H19210174   0.323   8.090   0.506  0.8604  2.1159 -0.0005
   32MOL   H19310175   0.428   8.186   0.396  0.8206 -0.6204  1.1013
   32MOL   C19410176   0.273   8.054   0.317 -0.7286  0.6067 -0.7943
   32MOL   C19510177   0.223   7.911   0.336 -0.5422 -0.3440 -0.5720
   32MOL   C19610178   0.238   7.816   0.234 -0.2697  0.6623  0.9673
   32MOL   C19710179   0.236   7.682   0.273  0.3772 -0.3279 -0.1480
   32MOL   C19810180   0.210   7.650   0.408 -0.5847 -0.3660 -1.1410
   32MOL  Cl19910181   0.220   7.488   0.460 -0.2753 -0.4557  0.1250
   32MOL   C20010182   0.158   7.739   0.503 -0.1672 -0.1254 -0.4814
   32MOL   C20110183   0.168   7.872   0.464 -0.5417  0.6929  0.6342
   32MOL   C20210184   0.156   8.164   0.318 -0.4632 -0.4106 -0.4751
   32MOL   H20310185   0.312   8.064   0.216  2.1403  1.1102  0.3228
   32MOL   H20410186   0.272   7.841   0.135  0.3220  0.9690  1.2440
   32MOL   H20510187   0.262   7.604   0.203 -2.1403 -1.8298  0.5087
   32MOL   H20610188   0.134   7.709   0.604  1.1209 -3.6780 -1.1764
   32MOL   H20710189   0.151   7.950   0.536  0.2432  1.5960 -0.1419
   32MOL   H20810190   0.137   8.199   0.419  1.4914 -0.9161  0.1011
   32MOL   H20910191   0.186   8.260   0.274  0.9892 -0.9956 -0.8058
   32MOL   C21010192   0.027   8.109   0.246  0.1775  0.1137  0.7701
   32MOL   C21110193   8.362   8.209   0.286 -0.3190  0.4673 -0.7604
   32MOL   C21210194   8.270   8.181   0.384  0.1154  0.2071 -0.5125
   32MOL   C21310195   8.193   8.283   0.432 -0.2052 -0.7687  0.3327
   32MOL   C21410196   8.199   8.411   0.375 -0.5131  0.4926 -0.2677
   32MOL  Cl21510197   8.089   0.091   0.420 -0.1017 -0.2819  0.7212
   32MOL   C21610198   8.283   8.437   0.268  0.0634  0.6941 -0.0692
   32MOL   C21710199   8.369   8.334   0.229  0.7988 -0.0239  0.5348
   32MOL   C21810200   0.049   8.090   0.094  0.6539 -0.3412 -0.0332
   32MOL   H21910201   0.002   8.015   0.295 -0.5346 -0.9338 -1.5319
   32MOL   H22010202   8.259   8.088   0.438 -0.1216 -0.4864 -1.7573
   32MOL   H22110203   8.125   8.261   0.513  2.9308 -1.2981  2.9218
   32MOL   H22210204   8.295   0.090   0.220 -2.5190 -0.7077 -3.8080
   32MOL   H22310205   8.440   8.357   0.151  3.1967 -1.7717  2.1361
   32MOL   H22410206   0.078   8.188   0.057 -1.6555 -0.1500 -1.4303
   32MOL   H22510207   0.127   8.016   0.073  0.9085 -0.8719  2.6182
   32MOL   C22610208   8.371   8.053   0.011 -0.4580 -0.6065  0.0732
   32MOL   C22710209   8.382   8.124   8.320 -0.1268  0.2196  0.9341
   32MOL   C22810210   0.049   8.110   8.238  0.0003  0.2318  0.2237
   32MOL   C22910211   0.053   8.186   8.120 -0.0374 -0.1764  0.0733
   32MOL   C23010212   8.392   8.278   8.085 -0.1937 -0.6251 -0.3529
   32MOL  Cl23110213   8.395   8.371   7.944 -0.2704 -0.0112  0.3138
   32MOL   C23210214   8.288   8.296   8.171 -0.1624 -0.8457  0.5689
   32MOL   C23310215   8.285   8.220   8.288 -0.4469  0.0629 -0.4896
   32MOL   C23410216   8.354   7.897   0.001 -0.0565 -0.3187 -0.0206
   32MOL   H23510217   8.279   8.088   0.057 -0.7529 -1.4275  0.1115
   32MOL   H23610218   0.134   8.048   8.262 -0.8654 -0.8791  0.4801
   32MOL   H23710219   0.132   8.173   8.048  0.6411  2.4259  0.3023
   32MOL   H23810220   8.213   8.371   8.149 -0.3445 -0.9649  0.7726
   32MOL   H23910221   8.202   8.239   8.355  0.4110  2.0661  0.0545
   32MOL   H24010222   8.436   7.861   8.382  0.2680  0.6458 -0.1580
   32MOL   H24110223   8.367   7.865   0.104 -3.1114 -1.3349  0.1122
   32MOL   C24210224   8.218   7.852   8.386 -0.6517  0.2672 -0.2480
   32MOL   C24310225   8.189   7.882   8.237 -0.4229 -0.4818 -0.1838
   32MOL   C24410226   8.065   7.935   8.190  0.1244  0.1224 -0.1844
   32MOL   C24510227   8.054   7.965   8.055 -0.1631 -0.0330  0.0149
   32MOL   C24610228   8.162   7.949   7.965 -0.1199  0.0753 -0.3670
   32MOL  Cl24710229   8.142   7.987   7.797  0.0148  0.0426  0.1295
   32MOL   C24810230   8.287   7.900   8.018  0.4154  0.6389 -0.0261
   32MOL   C24910231   8.293   7.845   8.145 -0.1834 -0.1698 -0.1879
   32MOL   C25010232   8.199   7.698   8.407 -0.0617  0.1156  0.2445
   32MOL   H25110233   8.134   7.912   8.422 -0.4427  0.4798 -0.1123
   32MOL   H25210234   7.974   7.942   8.248  0.6659 -0.0230  0.7069
   32MOL   H25310235   7.955   7.996   8.026  1.3202  2.7502 -2.2274
   32MOL   H25410236   8.371   7.897   7.949 -1.0854  0.7605 -1.8955
   32MOL   H25510237   8.388   7.808   8.181  0.9384  1.7010 -1.1524
   32MOL   H25610238   8.095   7.679   8.382  0.4091 -0.8035 -1.1018
   32MOL   H25710239   8.260   7.649   8.331 -0.4252 -1.3824  0.8993
   32MOL   C25810240   8.225   7.632   0.103  0.1464  0.7986 -0.5100
   32MOL   C25910241   8.156   7.715   0.220  0.3160  0.1485  0.5410
   32MOL   C26010242   8.230   7.738   0.336  0.6869  0.5176 -0.5828
   32MOL   C26110243   8.174   7.816   0.439  0.6202 -0.5699  0.0142
   32MOL   C26210244   8.045   7.863   0.428  0.6189  0.0013  0.2324
   32MOL  Cl26310245   7.976   7.953   0.551  0.1355  0.1693 -0.3970
   32MOL   C26410246   7.969   7.839   0.316 -0.2372 -0.0602 -0.5196
   32MOL   C26510247   8.023   7.765   0.211  0.2217 -0.1737  0.3074
   32MOL   C26610248   8.189   7.480   0.110  0.3542 -0.1380 -0.6549
   32MOL   H26710249   8.332   7.644   0.117  0.2783 -0.7981 -0.1257
   32MOL   H26810250   8.332   7.701   0.345  0.9752  1.5079  0.2763
   32MOL   H26910251   8.231   7.840   0.527  0.4846 -2.1640  0.5505
   32MOL   H27010252   7.872   7.884   0.301  0.0858  0.9266  0.3491
   32MOL   H27110253   7.962   7.765   0.122 -0.1140  1.6071  0.5235
   32MOL   H27210254   8.203   7.453   0.215 -0.4888 -0.6890 -0.6798
   32MOL   H27310255   8.081   7.477   0.116  0.3187  0.7079 -0.8795
   32MOL   C27410256   8.278   7.387   0.032 -0.8487 -0.1469 -0.2905
   32MOL   C27510257   8.389   7.315   0.110  0.3587 -0.1515 -0.1078
   32MOL   C27610258   0.078   7.328   0.074 -0.9705 -0.5305 -0.8707
   32MOL   C27710259   0.183   7.271   0.152  0.3226  0.1702 -0.9511
   32MOL   C27810260   0.153   7.179   0.252  0.8419 -0.1441 -0.0526
   32MOL  Cl27910261   0.269   7.096   0.339 -0.1927 -0.2407  0.2277
   32MOL   C28010262   0.019   7.157   0.285  0.0247  0.5695 -0.0605
   32MOL   C28110263   8.358   7.223   0.217  0.1508 -0.5755  0.2875
   32MOL   C28210264   8.185   7.272   8.414 -0.1006  0.6726  0.0586
   32MOL   H28310265   8.326   7.438   8.392 -2.3540  0.1770 -0.9887
   32MOL   H28410266   0.109   7.394   8.437 -0.6011 -1.1628 -1.2498
   32MOL   H28510267   0.286   7.291   0.128  0.6773  0.3322  0.6270
   32MOL   H28610268   8.441   7.093   0.369 -2.7887  0.6797 -0.6502
   32MOL   H28710269   8.252   7.213   0.232 -0.2422 -0.1390 -1.8973
   32MOL   H28810270   8.250   7.196   8.370 -0.7615 -0.3180  0.7845
   32MOL   H28910271   8.131   7.224   0.053 -1.1860  0.8179 -0.5645
   32MOL   C29010272   8.098   7.323   8.305 -0.1935 -0.2569  0.8106
   32MOL   C29110273   8.182   7.379   8.188 -0.4753  0.4969 -0.5074
   32MOL   C29210274   8.308   7.330   8.146 -0.7702 -0.6292  0.2220
   32MOL   C29310275   8.367   7.393   8.032  0.0923  0.1556 -0.0686
   32MOL   C29410276   8.306   7.503   7.967  0.2858 -0.8847  0.5729
   32MOL  Cl29510277   8.384   7.590   7.847 -0.1345 -0.1822 -0.1324
   32MOL   C29610278   8.182   7.552   8.013 -0.9700 -0.0556  0.2990
   32MOL   C29710279   8.119   7.481   8.119  0.0948  0.2141 -0.0183
   32MOL   C29810280   7.987   7.223   8.254  0.5179 -0.1876 -0.1561
   32MOL   H29910281   8.051   7.415   8.341  0.0123  0.9429 -1.8316
   32MOL   H30010282   8.370   7.255   8.193  0.5386  0.4481  0.2456
   32MOL   H30110283   0.021   7.359   7.999 -0.9393 -1.8152 -1.1556
   32MOL   H30210284   8.129   7.631   7.962  1.0871  0.3414 -1.3123
   32MOL   H30310285   8.021   7.521   8.140 -0.7401 -2.1432  0.6784
   32MOL   H30410286   7.993   7.224   8.145  1.3459  0.1931 -0.1097
   32MOL   H30510287   8.020   7.123   8.284 -0.1774 -0.1488  0.7521
   32MOL   C30610288   7.842   7.255   8.296 -0.1645 -0.7269 -0.0897
   32MOL   C30710289   7.798   7.374   8.208 -0.0743  0.8103  1.1005
   32MOL   C30810290   7.750   7.490   8.263 -0.5635  0.2147  0.2592
   32MOL   C30910291   7.715   7.599   8.180 -0.5773  0.0501 -0.7925
   32MOL   C31010292   7.713   7.587   8.041  0.4726  0.4416  0.3462
   32MOL  Cl31110293   7.670   7.719   7.941 -0.5168 -0.3279  0.4486
   32MOL   C31210294   7.749   7.466   7.981 -0.8492  0.8061 -0.6138
   32MOL   C31310295   7.790   7.366   8.067 -0.1612  0.5690  0.3646
   32MOL   C31410296   7.751   7.135   8.274  0.1017 -0.3492 -0.4055
   32MOL   H31510297   7.839   7.278   8.402 -3.6988 -0.1755 -0.2614
   32MOL   H31610298   7.742   7.499   8.371 -1.4658 -0.6790  0.2705
   32MOL   H31710299   7.682   7.688   8.233  2.2181  0.8559 -0.3375
   32MOL   H31810300   7.756   7.452   7.874  0.9219  0.2354 -0.4446
   32MOL   H31910301   7.800   7.272   8.015 -2.7689 -0.2993  1.3292
   32MOL   H32010302   7.768   7.086   8.177 -1.0360 -1.0268 -0.2712
   32MOL   H32110303   7.778   7.057   8.345  0.0380  0.0653  0.0675
   32MOL   H32210304   7.648   7.169   8.277  1.3271  3.5165  0.0601
   33MOL     C110305   2.025   1.827   5.520 -0.1606 -0.0129 -0.0711
   33MOL     C210306   2.040   1.863   5.661 -0.0450  0.2038  0.3284
   33MOL     C310307   2.082   1.990   5.701  0.2324 -0.2398 -0.5965
   33MOL     C410308   2.077   2.024   5.836  0.1618 -0.0406  0.7962
   33MOL     C510309   2.041   1.928   5.932 -0.6001 -0.8963 -0.3455
   33MOL    Cl610310   2.043   1.969   6.096  0.1887 -0.1805  0.0207
   33MOL     C710311   2.013   1.796   5.892 -0.5935  0.9529 -0.5217
   33MOL     C810312   2.019   1.764   5.760  0.1507 -0.0196  0.2200
   33MOL     C910313   1.870   1.834   5.483  1.0203  0.8715  0.0484
   33MOL    H1010314   2.070   1.737   5.478 -0.1375  0.3814 -0.9091
   33MOL    H1110315   2.102   2.059   5.621 -0.1367  0.7464  0.1494
   33MOL    H1210316   2.110   2.123   5.864  1.4220 -0.3028  0.2996
   33MOL    H1310317   1.990   1.721   5.967  0.5954  0.6633 -0.4342
   33MOL    H1410318   1.983   1.668   5.724  1.5571 -1.4811  2.5766
   33MOL    H1510319   1.858   1.825   5.375  0.4699  0.9878  0.0994
   33MOL    H1610320   1.811   1.754   5.528 -0.2092  2.3763  1.2206
   33MOL    H1710321   2.066   1.910   5.461 -0.2021  0.4816  0.5914
   33MOL    C1810322   1.792   1.963   5.525 -0.0863  0.4978 -0.2277
   33MOL    C1910323   1.850   2.095   5.486  0.5796 -0.3606  0.0603
   33MOL    C2010324   1.866   2.205   5.583  0.2855  0.3451 -0.6910
   33MOL    C2110325   1.934   2.316   5.536  0.2275  0.2286  0.3068
   33MOL    C2210326   1.979   2.332   5.406  0.2491 -0.3602 -0.2511
   33MOL   Cl2310327   2.068   2.476   5.367  0.0554  0.0710 -0.2347
   33MOL    C2410328   1.959   2.231   5.304 -0.2432 -0.4345 -0.1280
   33MOL    C2510329   1.902   2.112   5.347  0.1905 -0.8783 -0.1057
   33MOL    C2610330   1.648   1.956   5.472  0.1743  0.8517  0.3924
   33MOL    H2710331   1.780   1.954   5.634 -1.5124  0.6823 -0.3523
   33MOL    H2810332   1.826   2.187   5.681  1.9333 -0.6950 -0.2028
   33MOL    H2910333   1.968   2.392   5.605 -1.7098  1.4109 -0.0159
   33MOL    H3010334   1.991   2.258   5.204 -0.3718  0.7365  0.1364
   33MOL    H3110335   1.883   2.033   5.276 -2.0879  1.0321 -1.6873
   33MOL    H3210336   1.636   1.947   5.364 -1.2832  0.5639  0.5581
   33MOL    H3310337   1.603   1.862   5.503 -0.9223  1.7280  1.5003
   33MOL    C3410338   1.551   2.064   5.526  0.7934  0.0174 -0.8256
   33MOL    C3510339   1.485   2.134   5.416 -0.3679 -0.2108  0.2507
   33MOL    C3610340   1.398   2.067   5.333 -0.2411 -0.5199 -0.0132
   33MOL    C3710341   1.329   2.135   5.229  0.4138  0.1971 -0.2492
   33MOL    C3810342   1.350   2.269   5.210  0.2057  0.1615  0.3679
   33MOL   Cl3910343   1.275   2.357   5.079 -0.4807  0.1038  0.3689
   33MOL    C4010344   1.440   2.337   5.294  0.4415  0.7541 -0.7556
   33MOL    C4110345   1.506   2.270   5.395  0.5355 -0.4971  0.0648
   33MOL    C4210346   1.439   2.019   5.629  0.4212 -0.2812  0.6197
   33MOL    H4310347   1.610   2.137   5.581 -0.2420  1.2626 -1.3271
   33MOL    H4410348   1.379   1.963   5.350  1.2449 -1.4274 -3.4852
   33MOL    H4510349   1.259   2.083   5.165 -1.2810 -0.0266  1.7143
   33MOL    H4610350   1.444   2.445   5.292  2.0756  0.7074 -0.6806
   33MOL    H4710351   1.569   2.326   5.462  1.7570  0.6954 -2.0085
   33MOL    H4810352   1.362   2.096   5.630  1.0103  0.3382 -0.5518
   33MOL    H4910353   1.387   1.939   5.576  0.9811 -0.4662  0.3419
   33MOL    C5010354   1.484   1.975   5.768  0.7664  0.1047  0.4006
   33MOL    C5110355   1.573   2.079   5.832 -0.1395 -0.0911  0.6442
   33MOL    C5210356   1.524   2.218   5.839  0.0011  0.6565  0.2756
   33MOL    C5310357   1.609   2.312   5.905 -0.2264  0.4121  1.0550
   33MOL    C5410358   1.737   2.274   5.955  0.1598 -0.0316 -0.0551
   33MOL   Cl5510359   1.833   2.398   6.027  0.1076 -0.5909 -0.1006
   33MOL    C5610360   1.782   2.140   5.943  0.1500 -0.3515  0.6164
   33MOL    C5710361   1.702   2.044   5.879  0.2942  0.8991 -0.3349
   33MOL    C5810362   1.363   1.938   5.856  0.2861  0.1390 -0.8292
   33MOL    H5910363   1.545   1.888   5.741 -0.6751 -1.7846  2.9302
   33MOL    H6010364   1.425   2.253   5.815 -0.9950 -0.7115  2.2151
   33MOL    H6110365   1.574   2.414   5.914  0.1274  0.7644 -1.2016
   33MOL    H6210366   1.880   2.106   5.973  1.5134  1.0750 -2.0313
   33MOL    H6310367   1.749   1.949   5.859  1.5992  1.1963  1.1720
   33MOL    H6410368   1.405   1.922   5.955  3.9523  1.2242 -2.1482
   33MOL    H6510369   1.295   2.023   5.848 -0.4170 -0.3125  0.1682
   33MOL    C6610370   1.279   1.811   5.810 -0.6685 -0.1842  0.5811
   33MOL    C6710371   1.354   1.677   5.820 -0.0117  0.0147 -0.0612
   33MOL    C6810372   1.373   1.604   5.704  0.0139 -0.2742  0.1056
   33MOL    C6910373   1.419   1.472   5.721  0.2620  0.0579  0.5501
   33MOL    C7010374   1.468   1.429   5.845 -0.1999 -0.3328 -0.0197
   33MOL   Cl7110375   1.569   1.289   5.850  0.0752 -0.1528  0.2090
   33MOL    C7210376   1.449   1.507   5.962 -0.2064 -0.7241  0.1299
   33MOL    C7310377   1.389   1.628   5.948  0.5026 -0.4228  0.4190
   33MOL    C7410378   1.143   1.808   5.885 -1.0035  0.2992  0.3426
   33MOL    H7510379   1.260   1.828   5.704 -2.0319  1.7126  1.0884
   33MOL    H7610380   1.351   1.643   5.605 -0.9150  0.2034  0.4909
   33MOL    H7710381   1.442   1.403   5.642  2.1167 -0.0316  1.1575
   33MOL    H7810382   1.482   1.470   6.057 -1.7654  0.8512  1.3260
   33MOL    H7910383   1.370   1.698   6.029  0.0382  0.4419 -0.4236
   33MOL    H8010384   1.088   1.716   5.863 -0.4676 -0.2928  1.4269
   33MOL    H8110385   1.137   1.800   5.993 -0.7126  0.2105  0.3516
   33MOL    C8210386   1.043   1.912   5.841 -0.0209 -0.2749 -0.0063
   33MOL    C8310387   1.031   1.942   5.690  0.3454 -0.0957 -0.3661
   33MOL    C8410388   1.064   2.065   5.636 -0.1052  0.2917 -0.6925
   33MOL    C8510389   1.050   2.088   5.498  0.3359  0.3478  0.2675
   33MOL    C8610390   1.009   1.983   5.416 -0.1610 -0.0169  0.2758
   33MOL   Cl8710391   1.004   2.008   5.244 -0.0330  0.0874  0.2125
   33MOL    C8810392   0.981   1.862   5.471 -0.0870  0.7405  0.0235
   33MOL    C8910393   0.979   1.839   5.606  0.0659  0.1970  0.0429
   33MOL    C9010394   0.901   1.893   5.898  0.3710 -0.0354  0.5921
   33MOL    H9110395   1.075   2.001   5.894  1.0697 -0.9620  0.4864
   33MOL    H9210396   1.096   2.142   5.704  1.3332 -0.4704 -0.4764
   33MOL    H9310397   1.070   2.183   5.451 -1.6484 -1.1250 -3.7895
   33MOL    H9410398   0.968   1.781   5.401  1.8041  3.0212 -3.1392
   33MOL    H9510399   0.947   1.741   5.637 -1.9602  0.0543 -2.2996
   33MOL    H9610400   0.853   1.975   5.846  0.9794  0.1334  0.2939
   33MOL    H9710401   0.852   1.803   5.862 -0.2140  0.3156  0.5104
   33MOL    C9810402   0.878   1.924   6.049 -0.4175  0.6398 -0.2495
   33MOL    C9910403   0.843   2.071   6.091  0.3067 -0.0060  0.8779
   33MOL   C10010404   0.911   2.132   6.202  0.5145  0.1841 -0.5733
   33MOL   C10110405   0.856   2.253   6.252  0.4400  0.2051 -0.6673
   33MOL   C10210406   0.768   2.336   6.179  0.7366 -0.1279  0.2946
   33MOL  Cl10310407   0.714   2.482   6.245  0.1588  0.0584  0.2218
   33MOL   C10410408   0.713   2.276   6.065  0.6322 -0.5810  0.5733
   33MOL   C10510409   0.745   2.144   6.025  0.0753 -0.3736 -0.2346
   33MOL   C10610410   0.783   1.812   6.106  0.3587 -0.5105  0.8491
   33MOL   H10710411   0.968   1.901   6.104 -0.2249  0.7618 -0.5131
   33MOL   H10810412   0.983   2.075   6.259  2.0829  0.5961 -2.0959
   33MOL   H10910413   0.882   2.286   6.352 -1.4130 -1.0649  0.2808
   33MOL   H11010414   0.639   2.334   6.012  0.7640 -0.9093  0.0192
   33MOL   H11110415   0.683   2.103   5.947  0.8555 -2.2575  0.1193
   33MOL   H11210416   0.730   1.862   6.188 -0.4146  2.7572 -1.5197
   33MOL   H11310417   0.712   1.804   6.023  0.7836  0.5246  0.3785
   33MOL   C11410418   0.856   1.677   6.144 -1.0275  0.1445  0.2869
   33MOL   C11510419   0.965   1.692   6.250 -0.5352  0.3526  0.0984
   33MOL   C11610420   1.086   1.625   6.222 -1.0107 -0.0523 -0.4521
   33MOL   C11710421   1.198   1.625   6.307  0.0918 -0.8116  0.7253
   33MOL   C11810422   1.184   1.705   6.423 -0.0273  0.0424 -0.2965
   33MOL  Cl11910423   1.305   1.691   6.536 -0.3421 -0.0892  0.1044
   33MOL   C12010424   1.061   1.774   6.455  0.1592 -0.0677 -0.3422
   33MOL   C12110425   0.953   1.769   6.362  0.2357  0.4993  0.3435
   33MOL   C12210426   0.758   1.575   6.187 -0.8289  0.0958 -1.1904
   33MOL   H12310427   0.905   1.651   6.050  0.3393  0.8454  0.7968
   33MOL   H12410428   1.100   1.569   6.131  1.0432  0.7017 -0.6136
   33MOL   H12510429   1.283   1.569   6.271 -0.1147  0.5263 -1.9721
   33MOL   H12610430   1.045   1.818   6.553 -0.0587 -0.1389 -0.3448
   33MOL   H12710431   0.853   1.799   6.388 -0.2851 -1.6596  0.9409
   33MOL   H12810432   0.769   1.549   6.292 -1.1637 -0.4235 -1.2838
   33MOL   H12910433   0.666   1.634   6.175  0.6931  2.3407 -2.0962
   33MOL   C13010434   0.732   1.453   6.097 -0.6537 -0.4341 -0.8263
   33MOL   C13110435   0.627   1.369   6.167  0.5579 -0.0969  0.4676
   33MOL   C13210436   0.659   1.248   6.233  0.1436  0.4481 -0.5623
   33MOL   C13310437   0.559   1.165   6.293 -0.1361 -0.0468  0.3596
   33MOL   C13410438   0.433   1.215   6.313 -0.2356  0.1256  0.6379
   33MOL  Cl13510439   0.319   1.145   6.427  0.2796  0.3316  0.1115
   33MOL   C13610440   0.406   1.338   6.248 -0.5114 -0.3429 -0.0020
   33MOL   C13710441   0.497   1.412   6.177 -0.2373  0.0060 -0.0315
   33MOL   C13810442   0.697   1.479   5.953 -0.2912  0.9031 -0.5479
   33MOL   H13910443   0.827   1.400   6.101  0.0444  0.8574  0.0181
   33MOL   H14010444   0.759   1.211   6.219 -0.6209 -1.3627 -1.4529
   33MOL   H14110445   0.600   1.078   6.342 -0.9638 -1.4107 -1.3487
   33MOL   H14210446   0.306   1.376   6.263 -1.1834 -2.2351  0.4615
   33MOL   H14310447   0.456   1.496   6.124 -1.3095 -0.3049  0.2881
   33MOL   H14410448   0.626   1.560   5.973 -3.6490 -2.5061  2.1711
   33MOL   H14510449   0.778   1.518   5.892  0.9388 -0.9519 -0.1041
   33MOL   C14610450   0.622   1.370   5.875  0.7882  0.0573  0.1872
   33MOL   C14710451   0.549   1.436   5.758  0.5734  0.3031  0.1867
   33MOL   C14810452   0.613   1.447   5.637 -0.4851  0.0487 -0.6554
   33MOL   C14910453   0.545   1.513   5.534 -0.5532 -0.0420  0.2647
   33MOL   C15010454   0.409   1.556   5.539 -0.8563  0.0066  0.2510
   33MOL  Cl15110455   0.327   1.637   5.407  0.0686 -0.2346  0.0482
   33MOL   C15210456   0.349   1.538   5.665 -0.6061 -0.2292  0.2322
   33MOL   C15310457   0.412   1.470   5.770  0.2523 -0.5678  0.7796
   33MOL   C15410458   0.697   1.241   5.828 -0.2816 -0.0390  0.3139
   33MOL   H15510459   0.533   1.348   5.933  0.4093 -0.0453 -0.4315
   33MOL   H15610460   0.715   1.417   5.621 -0.5619 -1.3777  1.3397
   33MOL   H15710461   0.600   1.527   5.442  1.1354 -1.4356  1.0325
   33MOL   H15810462   0.248   1.575   5.674 -1.2380 -1.7142 -0.5157
   33MOL   H15910463   0.355   1.460   5.862  0.8138 -0.9090  1.0942
   33MOL   H16010464   0.771   1.280   5.758 -1.0080  1.0548  0.1551
   33MOL   H16110465   0.760   1.194   5.904  1.0276 -1.0887 -1.4007
   33MOL   C16210466   0.606   1.125   5.770 -0.1087  0.3944 -0.3434
   33MOL   C16310467   0.674   1.044   5.660 -0.4548  0.5415  0.4171
   33MOL   C16410468   0.743   0.928   5.689  0.5343  0.5044 -0.1588
   33MOL   C16510469   0.798   0.853   5.589  0.5814  0.3303  0.6243
   33MOL   C16610470   0.798   0.898   5.453 -0.1073  1.3322 -0.0465
   33MOL  Cl16710471   0.861   0.799   5.330 -0.2480 -0.1015  0.1106
   33MOL   C16810472   0.738   1.017   5.425 -0.5161  0.6006  0.3915
   33MOL   C16910473   0.681   1.091   5.524  0.0621  0.4684 -0.2170
   33MOL   C17010474   0.542   1.042   5.885  0.4257 -0.6782 -0.2969
   33MOL   H17110475   0.526   1.187   5.729 -0.3961 -0.4389 -1.0433
   33MOL   H17210476   0.748   0.884   5.788 -0.9240  1.6043  0.4145
   33MOL   H17310477   0.838   0.755   5.612  1.3156  0.8094  1.4540
   33MOL   H17410478   0.725   1.057   5.326  0.2900 -1.6478 -0.6447
   33MOL   H17510479   0.628   1.182   5.499 -1.6613 -0.8495 -1.5012
   33MOL   H17610480   0.626   1.028   5.954 -0.3984  0.3445  0.9383
   33MOL   H17710481   0.471   1.100   5.944 -1.7029 -1.4312 -2.0750
   33MOL   C17810482   0.475   0.906   5.864  0.6491 -0.3253  0.5912
   33MOL   C17910483   0.486   0.817   5.982  0.2494  0.0933 -0.0588
   33MOL   C18010484   0.571   0.704   5.974  0.0877  0.1068 -0.5299
   33MOL   C18110485   0.600   0.641   6.101  0.0718  0.1024  0.5246
   33MOL   C18210486   0.530   0.681   6.216  0.4402 -0.2085  1.0413
   33MOL  Cl18310487   0.555   0.595   6.366 -0.0851 -0.0484 -0.0032
   33MOL   C18410488   0.441   0.786   6.218  0.4968 -0.0300 -0.7326
   33MOL   C18510489   0.426   0.862   6.101 -0.3619 -0.7082 -0.0891
   33MOL   C18610490   0.330   0.925   5.809 -0.0875 -0.2132  0.5497
   33MOL   H18710491   0.532   0.856   5.785 -0.8074 -1.9477  0.5484
   33MOL   H18810492   0.630   0.693   5.884 -1.0025 -1.1221 -1.1123
   33MOL   H18910493   0.667   0.557   6.106  0.9944  0.7767 -0.3071
   33MOL   H19010494   0.393   0.800   6.314 -0.8747 -2.2738 -1.0306
   33MOL   H19110495   0.361   0.948   6.096  1.9936  1.0738 -1.7140
   33MOL   H19210496   0.271   0.965   5.892 -0.1790 -2.3779  1.5707
   33MOL   H19310497   0.336   1.001   5.731  2.4456 -1.4402 -0.5162
   33MOL   C19410498   0.258   0.793   5.766 -0.0289 -0.3844  0.0042
   33MOL   C19510499   0.102   0.794   5.776 -0.1575  0.2466 -0.4122
   33MOL   C19610500   0.023   0.909   5.764 -0.5000  0.3661 -0.3049
   33MOL   C19710501   8.327   0.905   5.773  0.3968  0.4159 -0.3777
   33MOL   C19810502   8.254   0.788   5.786 -0.2317 -0.1130  0.0728
   33MOL  Cl19910503   8.088   0.786   5.807 -0.3500 -0.2398 -0.0909
   33MOL   C20010504   8.331   0.664   5.787  0.1209  0.4898 -0.5913
   33MOL   C20110505   0.031   0.666   5.780 -0.8389 -0.1065 -0.2930
   33MOL   C20210506   0.311   0.718   5.633  0.2308 -0.4902  0.7591
   33MOL   H20310507   0.283   0.716   5.839 -2.0112 -1.2410 -0.1959
   33MOL   H20410508   0.075   1.004   5.765 -0.5093  0.3701 -0.1095
   33MOL   H20510509   8.274   0.999   5.764  0.9990  0.8716  0.7855
   33MOL   H20610510   8.283   0.568   5.795  0.6833  0.2657  0.1158
   33MOL   H20710511   0.092   0.577   5.774  0.1375  0.5724 -0.5767
   33MOL   H20810512   0.418   0.739   5.631  0.4224 -1.4908  0.2992
   33MOL   H20910513   0.287   0.614   5.652 -0.3259 -0.9603 -2.2869
   33MOL   C21010514   0.239   0.743   5.499 -0.2284 -1.0199 -0.3471
   33MOL   C21110515   0.303   0.868   5.432 -0.0425 -0.1729  0.0105
   33MOL   C21210516   0.248   0.993   5.462  0.3681 -0.3724  0.2227
   33MOL   C21310517   0.305   1.111   5.419 -0.5741 -0.2342  0.2101
   33MOL   C21410518   0.412   1.099   5.324 -0.0444  0.8285 -0.0467
   33MOL  Cl21510519   0.472   1.248   5.257  0.3792  0.0895 -0.1098
   33MOL   C21610520   0.466   0.979   5.293 -0.2196 -0.1405  0.0712
   33MOL   C21710521   0.417   0.861   5.349  0.0033  0.1290  0.0602
   33MOL   C21810522   0.250   0.627   5.399 -0.1257  0.0572 -0.0130
   33MOL   H21910523   0.134   0.760   5.524 -0.5512 -1.0174 -1.7037
   33MOL   H22010524   0.153   0.998   5.513 -1.2649 -2.4737 -2.4654
   33MOL   H22110525   0.263   1.207   5.448  1.1119  1.1394 -1.6932
   33MOL   H22210526   0.550   0.959   5.227  0.6661  1.0759  0.8039
   33MOL   H22310527   0.472   0.770   5.334 -0.0088  0.3154 -1.1482
   33MOL   H22410528   0.272   0.663   5.298 -0.9853  0.4828 -0.0598
   33MOL   H22510529   0.336   0.565   5.422 -1.6743 -1.6468  1.3213
   33MOL   C22610530   0.119   0.550   5.372  0.1452 -0.0290  0.3185
   33MOL   C22710531   0.014   0.644   5.322 -0.0413 -0.6707  0.3767
   33MOL   C22810532   8.346   0.682   5.398  0.0976 -0.2273  0.4824
   33MOL   C22910533   8.249   0.776   5.348  0.0437 -0.4591 -0.2036
   33MOL   C23010534   8.263   0.828   5.221  0.3045 -0.4231  0.8715
   33MOL  Cl23110535   8.145   0.945   5.159  0.2944 -0.1168 -0.0338
   33MOL   C23210536   8.368   0.783   5.131  0.0716 -0.4852  0.0037
   33MOL   C23310537   0.023   0.696   5.187  0.9055 -0.4474 -0.0145
   33MOL   C23410538   0.136   0.422   5.281 -0.1919 -0.1315 -0.1714
   33MOL   H23510539   0.074   0.507   5.461  2.1403 -1.2573  0.7511
   33MOL   H23610540   8.336   0.650   5.501  1.4307 -0.9371  0.4023
   33MOL   H23710541   8.160   0.805   5.402 -0.1117  2.7755 -2.0841
   33MOL   H23810542   8.385   0.814   5.029 -1.8701 -1.5555 -0.6847
   33MOL   H23910543   0.095   0.666   5.113 -0.4674  1.8500 -2.3789
   33MOL   H24010544   0.044   0.372   5.252 -0.7002  0.5625  0.2406
   33MOL   H24110545   0.181   0.453   5.187 -1.4515  0.2720 -0.6484
   33MOL   C24210546   0.216   0.309   5.351  0.4812  0.0567 -0.5439
   33MOL   C24310547   0.152   0.265   5.485  0.1860  0.1281  0.6809
   33MOL   C24410548   0.028   0.197   5.495 -0.2531 -0.1033 -0.6615
   33MOL   C24510549   8.404   0.180   5.618 -0.2570 -0.4727 -0.5086
   33MOL   C24610550   0.024   0.231   5.738 -0.1732  0.0965  0.4832
   33MOL  Cl24710551   8.380   0.237   5.892 -0.2688  0.0598 -0.2017
   33MOL   C24810552   0.149   0.296   5.731 -0.0962 -0.3173 -0.2177
   33MOL   C24910553   0.214   0.304   5.609  0.6451 -0.6851  0.8019
   33MOL   C25010554   0.247   0.182   5.266  0.0493 -0.3478 -0.1982
   33MOL   H25110555   0.317   0.348   5.361  0.5006  0.9755 -3.6769
   33MOL   H25210556   8.425   0.160   5.404 -2.2958  2.0338 -0.5523
   33MOL   H25310557   8.307   0.133   5.624  0.1968 -1.4741 -0.9572
   33MOL   H25410558   0.205   0.343   5.811  1.0612 -1.4557 -0.3261
   33MOL   H25510559   0.306   0.358   5.598 -0.0636  0.3030 -0.4162
   33MOL   H25610560   0.158   0.161   5.207 -1.7627  2.2150  1.5405
   33MOL   H25710561   0.327   0.220   5.203  0.5585 -1.0715 -0.0017
   33MOL   C25810562   0.292   0.045   5.330  0.2193 -0.0103 -0.5459
   33MOL   C25910563   0.324   8.387   5.217 -0.0063  0.1557 -0.1589
   33MOL   C26010564   0.230   8.285   5.193 -0.3901  0.5860 -0.7869
   33MOL   C26110565   0.263   8.184   5.098 -1.0831 -0.4183  0.2066
   33MOL   C26210566   0.385   8.184   5.029 -0.7364 -0.5061 -0.1701
   33MOL  Cl26310567   0.415   8.060   4.915 -0.1123 -0.2608  0.2830
   33MOL   C26410568   0.483   8.285   5.054 -0.0405 -0.0443  0.2017
   33MOL   C26510569   0.452   8.388   5.149 -0.0722  0.0289 -0.3805
   33MOL   C26610570   0.404   0.050   5.438  0.1173  0.3970 -0.1280
   33MOL   H26710571   0.213   0.010   5.396  0.0354 -0.0380 -0.7802
   33MOL   H26810572   0.135   8.285   5.243  0.4886  3.0912  0.9787
   33MOL   H26910573   0.193   8.104   5.083 -0.9464 -0.5719  0.3840
   33MOL   H27010574   0.572   8.298   4.995 -0.0097 -1.8869 -0.1895
   33MOL   H27110575   0.511   0.034   5.165 -0.8635  0.3414  0.8425
   33MOL   H27210576   0.497   0.058   5.382 -1.6389  0.7784 -3.0734
   33MOL   H27310577   0.411   0.141   5.499  2.9746  0.7720 -0.9553
   33MOL   C27410578   0.423   8.377   5.543  0.0363  0.0525 -0.0934
   33MOL   C27510579   0.565   8.356   5.582  0.8376  0.5569  0.0762
   33MOL   C27610580   0.637   8.280   5.486  0.1994  0.1547 -0.6761
   33MOL   C27710581   0.769   8.237   5.512 -0.1308 -0.8429 -0.3667
   33MOL   C27810582   0.834   8.277   5.631  0.5269 -0.2326  0.6873
   33MOL  Cl27910583   0.991   8.208   5.665  0.6642  0.0850 -0.4974
   33MOL   C28010584   0.768   8.362   5.718  0.8582 -0.3372 -0.2181
   33MOL   C28110585   0.630   8.397   5.697 -0.6694 -0.1336 -0.7655
   33MOL   C28210586   0.331   8.394   5.669  0.6626 -0.3827  0.2099
   33MOL   H28310587   0.394   8.275   5.517 -3.1017  0.3049  2.1333
   33MOL   H28410588   0.583   8.256   5.396 -0.2135  0.1956 -0.4383
   33MOL   H28510589   0.828   8.171   5.450 -2.6978 -1.5305 -2.1395
   33MOL   H28610590   0.820   8.399   5.805 -0.9339  1.8171  0.0086
   33MOL   H28710591   0.595   0.016   5.779 -2.0515 -0.9394 -0.7256
   33MOL   H28810592   0.387   8.430   5.756  2.1946  1.4197 -1.4958
   33MOL   H28910593   0.250   0.020   5.650 -0.4972 -2.1714 -1.5126
   33MOL   C29010594   0.249   8.271   5.718 -0.0086 -0.1230 -0.0888
   33MOL   C29110595   0.208   8.278   5.865  0.0090  0.2157 -0.0989
   33MOL   C29210596   0.100   8.361   5.899 -0.1855  0.0139  0.0277
   33MOL   C29310597   0.055   8.365   6.031  0.2597  0.2612 -0.5672
   33MOL   C29410598   0.119   8.288   6.129  0.3459 -0.1855 -0.0768
   33MOL  Cl29510599   0.064   8.298   6.287 -0.2650  0.2493  0.0793
   33MOL   C29610600   0.233   8.203   6.091  0.2849 -0.3804 -0.4163
   33MOL   C29710601   0.276   8.198   5.959  0.4230  0.0004  0.4436
   33MOL   C29810602   0.134   8.240   5.618  0.4347 -0.1098  0.1897
   33MOL   H29910603   0.320   8.188   5.710  0.5867  0.2734  1.1028
   33MOL   H30010604   0.045   8.416   5.824 -0.6645 -1.4591 -0.7348
   33MOL   H30110605   8.407   8.421   6.044  0.8710  1.2120 -0.2407
   33MOL   H30210606   0.296   8.157   6.165  1.0730 -0.3108 -1.0356
   33MOL   H30310607   0.361   8.142   5.925 -0.2357 -0.1505 -1.0046
   33MOL   H30410608   0.079   8.334   5.615 -1.4799 -1.2177 -5.5668
   33MOL   H30510609   0.177   8.233   5.518 -1.1081  2.7159 -0.7345
   33MOL   C30610610   0.041   8.121   5.637  0.6201  0.0104 -1.2569
   33MOL   C30710611   8.356   8.142   5.566  0.3624 -0.0640 -0.4329
   33MOL   C30810612   8.237   8.107   5.628  0.1432 -0.0894  0.5580
   33MOL   C30910613   8.113   8.135   5.575  0.1383 -0.3235 -0.1309
   33MOL   C31010614   8.107   8.194   5.445  0.0727  0.4233 -0.3907
   33MOL  Cl31110615   7.956   8.251   5.385  0.1754 -0.0224 -0.2181
   33MOL   C31210616   8.227   8.219   5.370 -0.1587 -0.0351  0.4074
   33MOL   C31310617   8.350   8.191   5.434  0.3088  1.0457 -0.1322
   33MOL   C31410618   0.113   7.992   5.599  0.1118  0.1110  0.0875
   33MOL   H31510619   0.020   8.128   5.744 -1.0472 -0.7886 -1.5120
   33MOL   H31610620   8.239   8.071   5.730  0.7161 -1.1152  0.1890
   33MOL   H31710621   8.022   8.125   5.633 -0.7285  0.1664 -1.3713
   33MOL   H31810622   8.218   8.261   5.271  2.1166  0.3746  0.3445
   33MOL   H31910623   0.002   8.205   5.384  0.1036  1.2906 -0.4565
   33MOL   H32010624   0.074   7.898   5.637  0.7799 -0.1910  0.0490
   33MOL   H32110625   0.112   7.978   5.491 -0.4081  0.4812  0.0463
   33MOL   H32210626   0.215   7.985   5.639  0.1021 -1.3376 -0.1043
   34MOL     C110627   4.792   4.079   6.407  0.3818  0.2227  0.5679
   34MOL     C210628   4.702   3.973   6.455  0.0354 -0.1186  0.1823
   34MOL     C310629   4.560   3.979   6.443 -0.1944  0.2151  0.2098
   34MOL     C410630   4.475   3.880   6.495 -0.1459 -0.0838 -0.2432
   34MOL     C510631   4.531   3.771   6.563 -0.3429  0.0477  0.0710
   34MOL    Cl610632   4.433   3.649   6.629  0.0605  0.0252 -0.0584
   34MOL     C710633   4.669   3.767   6.570 -0.2830 -0.0913 -0.2205
   34MOL     C810634   4.757   3.857   6.518 -0.2138  0.4462 -0.5024
   34MOL     C910635   4.765   4.215   6.479  0.1098 -0.1272  0.2705
   34MOL    H1010636   4.796   4.090   6.299  1.6557  1.2064  0.6921
   34MOL    H1110637   4.516   4.063   6.390 -2.6400 -1.8828 -1.2035
   34MOL    H1210638   4.371   3.860   6.469  0.1801 -1.1454 -0.7536
   34MOL    H1310639   4.710   3.693   6.636 -0.6415  0.6167  0.7979
   34MOL    H1410640   4.864   3.856   6.530 -0.1851 -0.2454 -0.8162
   34MOL    H1510641   4.699   4.192   6.563  0.1577 -1.5238 -0.0527
   34MOL    H1610642   4.860   4.244   6.523  0.8825 -0.7861 -0.9282
   34MOL    H1710643   4.896   4.058   6.434  0.1418 -0.0141  1.3081
   34MOL    C1810644   4.709   4.326   6.384  0.2549 -0.0423  0.3017
   34MOL    C1910645   4.558   4.315   6.352  0.1047 -0.3986 -0.3952
   34MOL    C2010646   4.458   4.327   6.454  0.1014 -0.3653  0.1501
   34MOL    C2110647   4.323   4.326   6.424 -0.2413  0.4221  0.4116
   34MOL    C2210648   4.281   4.315   6.290  0.5784 -0.1292  0.3752
   34MOL   Cl2310649   4.108   4.333   6.255 -0.1811 -0.4785  0.1385
   34MOL    C2410650   4.382   4.304   6.188 -0.3302  0.2707  0.3308
   34MOL    C2510651   4.518   4.301   6.222 -0.4167 -0.4038  0.0136
   34MOL    C2610652   4.751   4.466   6.444  0.1338  0.4605  0.7427
   34MOL    H2710653   4.765   4.320   6.291  1.3253 -1.2906  1.0203
   34MOL    H2810654   4.489   4.327   6.557  1.0872  1.0733 -0.1343
   34MOL    H2910655   4.252   4.329   6.505 -1.0653  1.9426 -0.3489
   34MOL    H3010656   4.349   4.311   6.085 -0.0122  2.8254  0.3602
   34MOL    H3110657   4.592   4.305   6.144 -0.2348 -2.4844  0.0455
   34MOL    H3210658   4.707   4.480   6.542 -0.4038 -0.3793  0.6311
   34MOL    H3310659   4.856   4.460   6.473 -0.4497 -0.8722  2.6966
   34MOL    C3410660   4.718   4.594   6.357  0.3688 -0.9898  0.0940
   34MOL    C3510661   4.760   4.719   6.447 -0.1682 -0.3876  0.9452
   34MOL    C3610662   4.893   4.728   6.494 -0.2884 -0.2909 -0.4689
   34MOL    C3710663   4.931   4.825   6.596  0.4511 -0.0229 -0.1829
   34MOL    C3810664   4.828   4.919   6.639  0.7017 -0.0893 -0.6092
   34MOL   Cl3910665   4.864   5.040   6.760 -0.1176 -0.2147 -0.6118
   34MOL    C4010666   4.700   4.910   6.587  0.0685  0.1749  0.0813
   34MOL    C4110667   4.664   4.808   6.501 -0.7642 -0.5237  0.5001
   34MOL    C4210668   4.782   4.593   6.214  0.9018 -0.0329 -0.4835
   34MOL    H4310669   4.611   4.601   6.341  0.1965 -0.9963  1.2077
   34MOL    H4410670   4.963   4.649   6.472  0.7791  1.0438 -1.9799
   34MOL    H4510671   5.032   4.838   6.632  0.0503 -1.0768  1.3640
   34MOL    H4610672   4.625   4.982   6.613  0.8383  0.8993  0.3361
   34MOL    H4710673   4.561   4.794   6.471 -0.1680 -0.3604 -1.7595
   34MOL    H4810674   4.889   4.605   6.228  0.8948  0.4101 -0.7996
   34MOL    H4910675   4.769   4.499   6.160  2.2969  0.5526 -1.8618
   34MOL    C5010676   4.733   4.704   6.115  0.3556 -0.2156  0.5944
   34MOL    C5110677   4.747   4.847   6.163  0.9622 -0.3126 -0.1675
   34MOL    C5210678   4.872   4.900   6.189 -0.1452  0.2176  0.4026
   34MOL    C5310679   4.884   5.034   6.231  1.0759  0.2025  0.1213
   34MOL    C5410680   4.768   5.114   6.236 -0.3025 -0.1250  0.2114
   34MOL   Cl5510681   4.782   5.284   6.266 -0.2954  0.0075  0.2062
   34MOL    C5610682   4.639   5.060   6.224 -0.3055  0.1287  0.3018
   34MOL    C5710683   4.630   4.926   6.173  0.0672  0.2215 -0.7085
   34MOL    C5810684   4.805   4.685   5.973  0.3980 -0.4621 -0.1821
   34MOL    H5910685   4.626   4.687   6.103  0.4282 -0.4671  0.2760
   34MOL    H6010686   4.959   4.838   6.171  1.1194  2.1885 -0.5419
   34MOL    H6110687   4.981   5.080   6.249  1.4151 -1.4061  2.6038
   34MOL    H6210688   4.551   5.118   6.246  0.4283  0.3091  2.9353
   34MOL    H6310689   4.535   4.880   6.150  1.1696 -1.8292 -1.2848
   34MOL    H6410690   4.911   4.706   5.986  0.1600  0.2543  0.6490
   34MOL    H6510691   4.804   4.578   5.949  0.2684 -0.3167 -0.8280
   34MOL    C6610692   4.749   4.773   5.856  0.5496 -0.3786 -0.3077
   34MOL    C6710693   4.850   4.766   5.743 -0.3923 -0.0816 -0.7054
   34MOL    C6810694   4.934   4.651   5.719  0.1762 -0.1549  0.2872
   34MOL    C6910695   5.030   4.656   5.618  0.4209 -0.1533 -0.0228
   34MOL    C7010696   5.045   4.777   5.545 -1.0065  0.3054  0.2444
   34MOL   Cl7110697   5.186   4.783   5.435 -0.1699 -0.0683  0.1368
   34MOL    C7210698   4.957   4.884   5.558  0.2222  0.2288 -0.5796
   34MOL    C7310699   4.871   4.884   5.668  0.1347 -0.2524  0.2648
   34MOL    C7410700   4.614   4.733   5.808 -0.4516  0.4372  0.2586
   34MOL    H7510701   4.746   4.872   5.902 -1.6523 -0.3072 -0.5585
   34MOL    H7610702   4.924   4.560   5.776 -1.3964  0.7338  1.4368
   34MOL    H7710703   5.097   4.576   5.590 -0.3403 -0.7287 -0.2128
   34MOL    H7810704   4.976   4.976   5.505 -1.8722  1.1747  0.2306
   34MOL    H7910705   4.833   4.981   5.695 -0.0961 -0.1854 -0.3046
   34MOL    H8010706   4.620   4.708   5.702  1.1648  0.0909  0.4156
   34MOL    H8110707   4.583   4.646   5.867  0.5880 -0.1093  0.0127
   34MOL    C8210708   4.503   4.843   5.822  0.1045  0.0684 -0.2889
   34MOL    C8310709   4.533   4.978   5.757  0.6984 -0.1701 -0.5703
   34MOL    C8410710   4.530   4.988   5.614 -1.0580  0.4798 -0.3252
   34MOL    C8510711   4.548   5.114   5.554  0.6804 -0.6268 -0.0419
   34MOL    C8610712   4.577   5.219   5.638 -0.3512 -0.0010 -0.0745
   34MOL   Cl8710713   4.628   5.368   5.564  0.0052  0.2353  0.1481
   34MOL    C8810714   4.580   5.209   5.773 -0.1602  0.4767 -0.7646
   34MOL    C8910715   4.562   5.089   5.835  0.0709  0.7487  0.8340
   34MOL    C9010716   4.358   4.799   5.781  0.2652 -0.0165  0.4708
   34MOL    H9110717   4.495   4.862   5.929 -1.6253  0.2614 -0.4452
   34MOL    H9210718   4.520   4.897   5.555 -0.4325  0.3331 -0.2049
   34MOL    H9310719   4.547   5.124   5.447 -0.3227 -1.9260 -0.1619
   34MOL    H9410720   4.620   5.290   5.833 -0.3478 -2.1767  3.1792
   34MOL    H9510721   4.583   5.088   5.941  1.1227  0.8311  0.6293
   34MOL    H9610722   4.299   4.887   5.807 -1.2758 -0.3748 -1.6907
   34MOL    H9710723   4.374   4.784   5.674  1.6559  1.3730  0.4604
   34MOL    C9810724   4.283   4.688   5.865  0.1698  0.1867 -0.1468
   34MOL    C9910725   4.273   4.729   6.017  0.0739 -0.7822  0.0283
   34MOL   C10010726   4.214   4.859   6.052 -0.1635 -0.3040  0.7213
   34MOL   C10110727   4.219   4.900   6.185  0.1530 -0.0192  0.4942
   34MOL   C10210728   4.289   4.829   6.280 -0.1809  0.0380  0.3446
   34MOL  Cl10310729   4.305   4.885   6.444 -0.0782  0.1943 -0.3467
   34MOL   C10410730   4.337   4.704   6.253  0.0200  0.4369 -0.1329
   34MOL   C10510731   4.327   4.648   6.121  0.6175 -0.1042 -0.1023
   34MOL   C10610732   4.144   4.682   5.792 -0.3612 -0.1223  0.3450
   34MOL   H10710733   4.329   4.590   5.862 -1.3456 -0.6134  1.4291
   34MOL   H10810734   4.157   4.916   5.981 -1.2647 -0.2577  1.6390
   34MOL   H10910735   4.186   5.002   6.198  2.8147  1.0437 -0.5577
   34MOL   H11010736   4.394   4.650   6.328 -0.4037  1.6347  1.0816
   34MOL   H11110737   4.386   4.563   6.089 -0.4893 -0.2477 -1.8594
   34MOL   H11210738   4.100   4.781   5.778 -0.7403 -0.1604  1.2451
   34MOL   H11310739   4.163   4.648   5.691 -0.7944 -1.0486  0.5697
   34MOL   C11410740   4.048   4.586   5.865 -0.2744  0.7939 -0.4090
   34MOL   C11510741   3.911   4.580   5.807  0.4706 -1.0633  0.3338
   34MOL   C11610742   3.808   4.524   5.886  0.0382 -0.3536  0.2102
   34MOL   C11710743   3.679   4.517   5.836 -0.1257  0.0556 -0.5169
   34MOL   C11810744   3.649   4.582   5.711  0.0269  0.4105 -0.5226
   34MOL  Cl11910745   3.490   4.578   5.649 -0.3571 -0.0172  0.0128
   34MOL   C12010746   3.748   4.645   5.631  0.0987  0.5126 -0.1592
   34MOL   C12110747   3.879   4.644   5.681 -0.1756  0.6820 -0.2392
   34MOL   C12210748   4.105   4.439   5.888  0.2046 -0.6981  0.5586
   34MOL   H12310749   4.028   4.630   5.963 -0.2710  1.3773 -0.6688
   34MOL   H12410750   3.817   4.496   5.990 -1.5551  4.0372  1.6314
   34MOL   H12510751   3.599   4.468   5.888  0.4506 -1.0278 -0.6292
   34MOL   H12610752   3.721   4.701   5.542 -1.0200 -0.5451 -0.5116
   34MOL   H12710753   3.953   4.679   5.610  0.3787 -1.7821 -0.9224
   34MOL   H12810754   4.193   4.448   5.952  0.5085  2.6489 -0.2417
   34MOL   H12910755   4.034   4.382   5.947  0.5270 -0.6090  1.0385
   34MOL   C13010756   4.147   4.355   5.765 -0.1026 -0.9694 -0.1796
   34MOL   C13110757   4.300   4.353   5.747 -0.0084  1.0489 -0.3360
   34MOL   C13210758   4.378   4.295   5.841  1.0508  0.5780  0.2616
   34MOL   C13310759   4.519   4.303   5.827  0.2155 -0.7568 -0.4577
   34MOL   C13410760   4.577   4.374   5.720  0.1481  0.0133  0.1422
   34MOL  Cl13510761   4.745   4.384   5.703  0.2732  0.2017  0.2288
   34MOL   C13610762   4.498   4.434   5.626  0.0574 -0.1066  0.3553
   34MOL   C13710763   4.357   4.422   5.637  0.1344  0.1132 -0.5049
   34MOL   C13810764   4.099   4.207   5.777  0.2266 -0.0366 -0.4066
   34MOL   H13910765   4.103   4.398   5.675  0.7587  0.3364  0.0042
   34MOL   H14010766   4.331   4.227   5.910  2.0239 -1.5771 -1.1230
   34MOL   H14110767   4.577   4.255   5.904 -1.6032 -1.2302  0.6412
   34MOL   H14210768   4.533   4.493   5.542 -1.4247  1.0164  0.5004
   34MOL   H14310769   4.287   4.468   5.568  1.6417  2.2937 -0.6114
   34MOL   H14410770   4.154   4.144   5.707 -1.2378 -0.5698 -1.0979
   34MOL   H14510771   4.110   4.179   5.882 -2.5276  2.2121  0.5470
   34MOL   C14610772   3.949   4.196   5.738 -0.1650  0.0018  0.5430
   34MOL   C14710773   3.908   4.230   5.593  0.0799 -0.2244  0.1933
   34MOL   C14810774   3.996   4.191   5.485 -0.9403  0.4925  0.8522
   34MOL   C14910775   3.966   4.224   5.356  0.2195  0.4340 -0.1494
   34MOL   C15010776   3.850   4.301   5.329  0.2362 -0.1628  0.8359
   34MOL  Cl15110777   3.824   4.348   5.163  0.3539 -0.1427 -0.2403
   34MOL   C15210778   3.766   4.343   5.430 -0.0401  0.2977 -0.2147
   34MOL   C15310779   3.799   4.309   5.560 -0.1428  0.7283 -0.2765
   34MOL   C15410780   3.904   4.050   5.761  0.6923  0.0717 -0.0916
   34MOL   H15510781   3.885   4.264   5.794 -0.6923  0.4920 -0.6190
   34MOL   H15610782   4.084   4.131   5.505 -1.8658 -1.3445 -0.4721
   34MOL   H15710783   4.034   4.192   5.279 -0.0110 -2.1730  0.7075
   34MOL   H15810784   3.686   4.413   5.410  0.2599  0.4445 -0.9010
   34MOL   H15910785   3.732   4.338   5.640  0.3620  0.0526  0.3964
   34MOL   H16010786   3.800   4.055   5.731  0.4530  2.7222  1.1077
   34MOL   H16110787   3.949   3.976   5.695  0.8110 -0.4510  0.5595
   34MOL   C16210788   3.891   4.009   5.911  0.0381 -0.0756  0.0804
   34MOL   C16310789   3.788   4.087   5.987 -0.5454  0.1991  0.4475
   34MOL   C16410790   3.650   4.054   5.986 -0.0500  0.1045  0.6781
   34MOL   C16510791   3.561   4.140   6.051  0.6056  0.1108  0.4130
   34MOL   C16610792   3.609   4.240   6.136 -0.3157 -0.4675 -0.6839
   34MOL  Cl16710793   3.501   4.333   6.227 -0.0396 -0.2731 -0.2816
   34MOL   C16810794   3.743   4.273   6.144  0.3871  0.2779  0.4711
   34MOL   C16910795   3.833   4.187   6.068  0.4555 -0.5985 -0.5108
   34MOL   C17010796   3.873   3.857   5.940 -0.0899 -0.3958 -0.2830
   34MOL   H17110797   3.992   4.030   5.946  0.5355 -0.2193 -1.2536
   34MOL   H17210798   3.611   3.974   5.924  1.8083 -2.8329  3.1942
   34MOL   H17310799   3.458   4.113   6.035 -1.0789  5.8580  0.1583
   34MOL   H17410800   3.779   4.352   6.209  2.1196 -0.1955  0.1092
   34MOL   H17510801   3.937   4.213   6.073 -0.5987  3.8911  0.4686
   34MOL   H17610802   3.856   3.840   6.046  0.9933  0.5951  0.0589
   34MOL   H17710803   3.780   3.826   5.892 -0.6137 -0.4272  0.7341
   34MOL   C17810804   3.986   3.765   5.896  0.0933  0.3529  0.0697
   34MOL   C17910805   4.119   3.817   5.953 -0.7020 -0.8551  0.3209
   34MOL   C18010806   4.226   3.855   5.871  0.3312  0.1411  0.1244
   34MOL   C18110807   4.350   3.905   5.922 -0.5599 -0.0762 -0.4377
   34MOL   C18210808   4.365   3.920   6.061 -0.3606  0.5808 -0.1447
   34MOL  Cl18310809   4.528   3.972   6.112 -0.0965  0.0584 -0.3817
   34MOL   C18410810   4.262   3.881   6.149  0.3845  0.3769  0.3484
   34MOL   C18510811   4.139   3.836   6.092 -0.1194  0.4585  0.4657
   34MOL   C18610812   3.971   3.617   5.920 -0.5261  0.3826  0.1236
   34MOL   H18710813   3.994   3.776   5.787 -1.0859 -0.2694 -0.0804
   34MOL   H18810814   4.212   3.854   5.764 -1.5526 -0.4939  0.3522
   34MOL   H18910815   4.423   3.947   5.855 -1.8368  2.5485 -0.2245
   34MOL   H19010816   4.272   3.898   6.255  0.0883 -2.1035  0.7872
   34MOL   H19110817   4.062   3.798   6.157 -1.7327  2.2239 -0.3673
   34MOL   H19210818   3.951   3.601   6.026 -2.9679  3.5177  0.2316
   34MOL   H19310819   3.876   3.592   5.873 -1.2285 -0.6136  2.0167
   34MOL   C19410820   4.085   3.525   5.870  0.1663  0.1590 -0.1911
   34MOL   C19510821   4.199   3.514   5.969  0.1019 -0.6271 -0.7181
   34MOL   C19610822   4.173   3.476   6.106 -0.0708  0.0956  0.3550
   34MOL   C19710823   4.287   3.475   6.192  0.7286  0.3146  0.8675
   34MOL   C19810824   4.413   3.515   6.150  1.0428 -0.0565 -0.6728
   34MOL  Cl19910825   4.530   3.556   6.268  0.5130 -0.0704  0.5005
   34MOL   C20010826   4.437   3.543   6.017 -0.0059 -0.1983 -0.6478
   34MOL   C20110827   4.331   3.543   5.927 -0.5236 -0.3564 -0.6135
   34MOL   C20210828   4.033   3.390   5.830  0.0026 -0.3699  0.1302
   34MOL   H20310829   4.118   3.586   5.786  0.4050  2.1744  1.3205
   34MOL   H20410830   4.079   3.437   6.142 -0.8269  1.5116 -0.0350
   34MOL   H20510831   4.272   3.464   6.298  1.4174  1.3335  1.0765
   34MOL   H20610832   4.539   3.558   5.985  0.6075 -1.3420  0.7139
   34MOL   H20710833   4.351   3.560   5.822 -1.7501 -0.7351 -0.9188
   34MOL   H20810834   4.096   3.313   5.874 -2.8274 -2.9770 -0.1783
   34MOL   H20910835   3.934   3.375   5.875 -0.0155  1.5256  0.7362
   34MOL   C21010836   4.021   3.367   5.678  0.5626  0.1398  0.6315
   34MOL   C21110837   4.159   3.356   5.612 -0.2942 -0.1243  0.6843
   34MOL   C21210838   4.214   3.471   5.549  0.3690  0.4337  0.1472
   34MOL   C21310839   4.346   3.467   5.495  0.7217 -0.4940  0.0929
   34MOL   C21410840   4.417   3.346   5.514 -0.9257  0.0686  0.5082
   34MOL  Cl21510841   4.582   3.335   5.458  0.1697 -0.1675  0.0588
   34MOL   C21610842   4.366   3.235   5.584  0.3249 -0.6337  0.4668
   34MOL   C21710843   4.242   3.245   5.644  0.5198  0.2887 -0.1993
   34MOL   C21810844   3.931   3.242   5.639 -0.4702 -0.9902  0.3020
   34MOL   H21910845   3.966   3.448   5.630  0.5252 -0.9144 -1.1491
   34MOL   H22010846   4.152   3.560   5.547 -0.3783 -0.0640  0.7858
   34MOL   H22110847   4.388   3.556   5.453  0.6776  0.4597  2.0095
   34MOL   H22210848   4.425   3.147   5.605 -0.9451 -1.7506 -0.5769
   34MOL   H22310849   4.208   3.156   5.695 -0.1308  0.2231 -0.7384
   34MOL   H22410850   3.928   3.234   5.531  0.5409  0.1832  0.1869
   34MOL   H22510851   3.980   3.152   5.677  0.2006 -0.4173  0.8066
   34MOL   C22610852   3.783   3.242   5.676  0.5841  0.1569  0.2462
   34MOL   C22710853   3.716   3.372   5.633 -0.2374 -0.2459  0.7752
   34MOL   C22810854   3.708   3.403   5.497 -0.1660 -0.8428 -0.1448
   34MOL   C22910855   3.627   3.505   5.454  0.1198 -0.1842 -0.0478
   34MOL   C23010856   3.561   3.588   5.541  0.2489 -0.0247 -0.5540
   34MOL  Cl23110857   3.456   3.714   5.486  0.2530 -0.2885 -0.1649
   34MOL   C23210858   3.582   3.574   5.678 -0.1276  0.9961  0.4480
   34MOL   C23310859   3.656   3.463   5.726 -0.2906  0.3922  0.0325
   34MOL   C23410860   3.710   3.119   5.607  0.2806  0.1521 -0.4897
   34MOL   H23510861   3.777   3.243   5.785 -1.7300  0.9358  0.1202
   34MOL   H23610862   3.751   3.339   5.421 -0.8546 -2.2753  0.6528
   34MOL   H23710863   3.626   3.535   5.350  1.4231 -0.0486 -0.0216
   34MOL   H23810864   3.539   3.642   5.751 -0.2116 -0.1787  1.5099
   34MOL   H23910865   3.661   3.440   5.832  0.5929  1.1805  0.1681
   34MOL   H24010866   3.721   3.123   5.499 -5.0149  0.7536 -1.1123
   34MOL   H24110867   3.753   3.024   5.640 -1.2894 -0.9867 -1.6491
   34MOL   C24210868   3.556   3.102   5.637 -0.3165 -0.4056  0.1281
   34MOL   C24310869   3.489   3.006   5.536  0.1225 -0.3474 -0.2069
   34MOL   C24410870   3.556   2.892   5.493  0.0195 -0.2411  0.1350
   34MOL   C24510871   3.504   2.814   5.388  0.5016  0.0304  0.0198
   34MOL   C24610872   3.374   2.838   5.346  0.2360  0.4298 -0.4468
   34MOL  Cl24710873   3.293   2.743   5.232  0.1589  0.4779  0.4311
   34MOL   C24810874   3.298   2.941   5.394  0.8262 -0.1289 -0.2846
   34MOL   C24910875   3.358   3.029   5.482 -0.7577 -0.2109 -0.4451
   34MOL   C25010876   3.525   3.054   5.775 -0.0412  0.1413 -0.0563
   34MOL   H25110877   3.507   3.199   5.633  3.3384  1.4974 -1.0658
   34MOL   H25210878   3.641   2.857   5.548  0.8230  2.6398  0.8183
   34MOL   H25310879   3.564   2.733   5.351 -0.5440 -1.8241  2.2417
   34MOL   H25410880   3.197   2.947   5.355  1.3408 -1.0781 -1.8194
   34MOL   H25510881   3.306   3.122   5.498  2.5445  1.2028  2.7053
   34MOL   H25610882   3.495   2.949   5.780  0.6096 -0.0795 -0.7013
   34MOL   H25710883   3.610   3.037   5.841  0.8239 -0.6808 -1.3449
   34MOL   C25810884   3.433   3.148   5.853 -0.5329 -0.1241 -0.2355
   34MOL   C25910885   3.298   3.154   5.795  0.7549  0.0492 -0.0473
   34MOL   C26010886   3.215   3.039   5.802 -0.0260 -0.3692 -0.5417
   34MOL   C26110887   3.096   3.038   5.725 -0.0774 -0.0214 -0.2910
   34MOL   C26210888   3.048   3.151   5.654  0.1199  0.0800 -0.8950
   34MOL  Cl26310889   2.908   3.152   5.555 -0.0576 -0.4073  0.0112
   34MOL   C26410890   3.131   3.266   5.650 -0.4317 -0.4410 -0.0306
   34MOL   C26510891   3.256   3.267   5.719 -0.0880  0.2100 -0.1832
   34MOL   C26610892   3.437   3.109   6.004  0.3204  0.6345 -0.2495
   34MOL   H26710893   3.481   3.245   5.838  2.0836 -1.3896 -0.4622
   34MOL   H26810894   3.249   2.947   5.846 -0.9205 -1.5536 -2.2931
   34MOL   H26910895   3.045   2.947   5.695 -4.0278  2.2405 -0.7370
   34MOL   H27010896   3.102   3.347   5.585 -0.1047 -1.7808 -1.8650
   34MOL   H27110897   3.318   3.356   5.713 -2.1236  1.5483 -2.5546
   34MOL   H27210898   3.342   3.140   6.047  0.1379  1.0724 -0.9609
   34MOL   H27310899   3.453   3.003   6.025 -1.0416  1.4629  5.8973
   34MOL   C27410900   3.551   3.185   6.073  0.0095 -0.1577  0.2494
   34MOL   C27510901   3.529   3.333   6.088  0.0654 -0.5094 -0.4316
   34MOL   C27610902   3.403   3.404   6.090  0.0980  0.2162 -0.0797
   34MOL   C27710903   3.405   3.545   6.096 -0.6536 -0.8244  0.3043
   34MOL   C27810904   3.526   3.613   6.117  0.7054  0.6638 -0.1878
   34MOL  Cl27910905   3.517   3.777   6.135 -0.1148 -0.0572  0.1710
   34MOL   C28010906   3.653   3.542   6.112 -0.0138  1.1423 -0.2264
   34MOL   C28110907   3.651   3.401   6.102 -0.0044 -0.5253  0.3941
   34MOL   C28210908   3.580   3.124   6.216  0.6560 -0.4894  0.2794
   34MOL   H28310909   3.643   3.164   6.017  0.4243  2.4917 -0.1079
   34MOL   H28410910   3.315   3.347   6.067  0.0188 -0.6355  2.2180
   34MOL   H28510911   3.316   3.605   6.088  0.1365  0.0060 -3.3842
   34MOL   H28610912   3.744   3.599   6.126  1.2648 -0.3770 -2.1404
   34MOL   H28710913   3.750   3.358   6.103  0.2006 -0.1000 -1.3095
   34MOL   H28810914   3.628   3.204   6.273 -1.6934  1.0440  0.2090
   34MOL   H28910915   3.486   3.109   6.271  1.2045  2.0304  2.0234
   34MOL   C29010916   3.666   2.994   6.222 -0.0613 -0.4345 -0.0761
   34MOL   C29110917   3.810   3.011   6.161 -0.9564  0.0094  0.4906
   34MOL   C29210918   3.904   3.100   6.218 -0.4346 -0.3690  0.1290
   34MOL   C29310919   4.033   3.111   6.159  0.0895  0.5510  0.5630
   34MOL   C29410920   4.071   3.039   6.047  0.4400  0.4352  0.3737
   34MOL  Cl29510921   4.224   3.058   5.979 -0.1001  0.8062  0.3463
   34MOL   C29610922   3.983   2.950   5.996 -0.2982 -0.1992 -0.3806
   34MOL   C29710923   3.851   2.939   6.044  0.9189  0.3471 -0.2265
   34MOL   C29810924   3.667   2.925   6.361 -0.9907 -0.0378 -0.2562
   34MOL   H29910925   3.619   2.920   6.157 -0.0065  1.4201 -2.2716
   34MOL   H30010926   3.889   3.155   6.309 -0.4788 -0.0510 -0.0718
   34MOL   H30110927   4.102   3.175   6.213 -0.8478  2.0462  0.0351
   34MOL   H30210928   4.020   2.893   5.913  1.3673 -0.1605  0.3251
   34MOL   H30310929   3.778   2.878   5.993 -1.4185  2.6111  0.2793
   34MOL   H30410930   3.734   2.840   6.357 -2.9004 -1.5767 -0.0597
   34MOL   H30510931   3.713   2.977   6.446 -0.2343  0.7351 -1.1186
   34MOL   C30610932   3.538   2.861   6.405  0.0026 -0.3496 -0.0283
   34MOL   C30710933   3.454   2.793   6.301 -0.2977  0.0476 -0.8112
   34MOL   C30810934   3.338   2.846   6.254  0.5197 -0.1904 -0.2035
   34MOL   C30910935   3.272   2.791   6.143  0.2552 -0.5568 -0.6469
   34MOL   C31010936   3.323   2.668   6.087  0.2657  0.3593  0.3659
   34MOL  Cl31110937   3.240   2.595   5.959  0.0104 -0.0574  0.2041
   34MOL   C31210938   3.437   2.601   6.135 -0.0279 -0.3427 -0.3676
   34MOL   C31310939   3.501   2.676   6.235 -0.0208  0.4202 -0.9352
   34MOL   C31410940   3.553   2.773   6.527  0.1216 -0.6175  0.1865
   34MOL   H31510941   3.477   2.948   6.431 -1.4024 -1.5444  0.7979
   34MOL   H31610942   3.286   2.929   6.299  0.9604  1.6153 -2.8864
   34MOL   H31710943   3.183   2.834   6.099  0.0991 -0.8853 -0.6550
   34MOL   H31810944   3.462   2.505   6.093  0.4968  0.0892 -1.0565
   34MOL   H31910945   3.597   2.638   6.270  1.0834  1.5727 -2.6461
   34MOL   H32010946   3.619   2.687   6.516  1.3392  0.3243  0.0342
   34MOL   H32110947   3.600   2.830   6.607 -0.9667 -1.4371  1.4177
   34MOL   H32210948   3.456   2.739   6.563 -0.0138 -1.0602 -0.5942
   35MOL     C110949   2.269   3.901   2.585  0.2022 -0.3948 -0.1260
   35MOL     C210950   2.245   3.866   2.442  0.1001 -0.2840 -0.0722
   35MOL     C310951   2.121   3.890   2.382  0.0276 -0.3507 -0.1013
   35MOL     C410952   2.109   3.877   2.242 -0.2990  0.6584  0.1798
   35MOL     C510953   2.227   3.849   2.168 -0.4270  0.4977  0.5973
   35MOL    Cl610954   2.229   3.855   2.001  0.2462  0.0453  0.3379
   35MOL     C710955   2.349   3.815   2.231 -0.0362  0.1999  0.9586
   35MOL     C810956   2.352   3.820   2.371 -0.8516 -0.4487  0.3638
   35MOL     C910957   2.312   3.786   2.686  0.3176  0.4734 -0.3672
   35MOL    H1010958   2.182   3.943   2.635  1.1414  1.1185  0.2708
   35MOL    H1110959   2.051   3.938   2.448  1.6940  0.1819  1.3006
   35MOL    H1210960   2.012   3.895   2.199 -1.2292 -2.3613  0.9240
   35MOL    H1310961   2.446   3.790   2.189  0.2343 -1.3804  2.4372
   35MOL    H1410962   2.443   3.784   2.416 -0.8237 -1.7524 -0.7068
   35MOL    H1510963   2.250   3.787   2.776  0.5335  0.3006 -0.2149
   35MOL    H1610964   2.287   3.689   2.644  2.1175 -1.0014  1.8332
   35MOL    H1710965   2.343   3.981   2.587 -0.0407 -0.1608 -0.4096
   35MOL    C1810966   2.464   3.804   2.722  0.3902 -0.0330  0.1052
   35MOL    C1910967   2.497   3.929   2.796  0.4314  0.5279  0.1904
   35MOL    C2010968   2.432   3.957   2.917  0.5952 -0.1661 -0.2134
   35MOL    C2110969   2.469   4.065   2.994 -0.1051  0.2526 -0.0433
   35MOL    C2210970   2.556   4.161   2.943  0.0669 -0.1509  0.1526
   35MOL   Cl2310971   2.591   4.314   3.011  0.0902  0.1973  0.0195
   35MOL    C2410972   2.611   4.136   2.813 -0.0981 -0.3221  0.4273
   35MOL    C2510973   2.590   4.015   2.743 -0.8936  0.1910  0.1824
   35MOL    C2610974   2.537   3.682   2.782 -0.2716  0.2109  0.2229
   35MOL    H2710975   2.512   3.819   2.625  0.3947  2.7452  0.5016
   35MOL    H2810976   2.351   3.894   2.949  0.0393  0.8775  0.4742
   35MOL    H2910977   2.416   4.083   3.087  3.1745 -0.1848  1.9916
   35MOL    H3010978   2.671   4.213   2.767 -0.4453  0.4863  1.3053
   35MOL    H3110979   2.645   3.996   2.652 -2.0048 -0.8545 -0.2879
   35MOL    H3210980   2.641   3.702   2.806 -0.5198 -0.2471  1.7016
   35MOL    H3310981   2.472   3.657   2.865 -1.9651 -0.8430 -1.3636
   35MOL    C3410982   2.539   3.547   2.695  0.2685  0.1497 -0.5226
   35MOL    C3510983   2.575   3.562   2.547 -1.1022 -0.2974 -0.5285
   35MOL    C3610984   2.699   3.623   2.508  0.0917  0.3797 -0.2305
   35MOL    C3710985   2.731   3.618   2.368  0.2263  0.0104  0.5867
   35MOL    C3810986   2.644   3.547   2.283 -0.0608 -0.0780  0.3248
   35MOL   Cl3910987   2.695   3.531   2.119 -0.3320  0.3437 -0.1099
   35MOL    C4010988   2.523   3.496   2.319  0.1089  1.1026 -0.0234
   35MOL    C4110989   2.494   3.498   2.456 -0.4359 -0.0689  0.4267
   35MOL    C4210990   2.622   3.437   2.758  0.7277 -0.1112 -0.8663
   35MOL    H4310991   2.437   3.511   2.685  0.2964 -0.4704  1.2801
   35MOL    H4410992   2.780   3.663   2.567  1.3650 -0.6049 -1.2653
   35MOL    H4510993   2.824   3.656   2.330 -0.2240  0.6640  0.1304
   35MOL    H4610994   2.454   3.447   2.252  0.8799  0.6036 -0.4603
   35MOL    H4710995   2.402   3.451   2.486 -1.2160  1.6177  0.7382
   35MOL    H4810996   2.595   3.343   2.710  0.5208  0.4129 -1.7803
   35MOL    H4910997   2.729   3.450   2.741  0.6061  1.4457 -0.4659
   35MOL    C5010998   2.592   3.406   2.903 -0.0777  0.0741 -0.2559
   35MOL    C5110999   2.442   3.409   2.945  0.8334  0.2157  0.3460
   35MOL    C5211000   2.395   3.498   3.044 -0.1694  0.5948 -0.5513
   35MOL    C5311001   2.254   3.499   3.079  0.1609  0.0639  0.4201
   35MOL    C5411002   2.165   3.411   3.021  0.5879 -0.1878  0.4977
   35MOL   Cl5511003   1.994   3.424   3.052 -0.0432  0.0521  0.2899
   35MOL    C5611004   2.218   3.321   2.927 -0.1606 -0.5026 -0.2231
   35MOL    C5711005   2.351   3.313   2.894 -0.0190 -0.2239 -0.7981
   35MOL    C5811006   2.679   3.290   2.968 -0.1246  0.1098  0.0168
   35MOL    H5911007   2.625   3.492   2.960 -2.6016 -0.7506  2.5675
   35MOL    H6011008   2.466   3.557   3.100 -0.2300  1.8854 -1.8219
   35MOL    H6111009   2.223   3.562   3.161  0.7422 -0.1321  0.7924
   35MOL    H6211010   2.142   3.260   2.880  0.4799 -0.9191 -0.7248
   35MOL    H6311011   2.385   3.236   2.827  2.9750  0.2583  0.1097
   35MOL    H6411012   2.650   3.198   2.916 -1.8814  1.1571 -0.9132
   35MOL    H6511013   2.787   3.301   2.962 -0.3773  1.7217 -2.2545
   35MOL    C6611014   2.644   3.250   3.108 -0.2521 -0.1391  0.2210
   35MOL    C6711015   2.712   3.117   3.137  0.2757  0.4291  0.4428
   35MOL    C6811016   2.854   3.099   3.132 -0.6738  0.5160  0.4878
   35MOL    C6911017   2.902   2.968   3.150  0.0407 -0.3022  0.0609
   35MOL    C7011018   2.817   2.864   3.191 -0.5923  0.2481 -0.0660
   35MOL   Cl7111019   2.881   2.704   3.226 -0.0145  0.0311 -0.1120
   35MOL    C7211020   2.681   2.891   3.211 -0.2519  0.5847  0.0288
   35MOL    C7311021   2.631   3.011   3.166  0.2721  0.4929 -0.0416
   35MOL    C7411022   2.683   3.355   3.222 -0.0907 -0.8159  0.1945
   35MOL    H7511023   2.536   3.238   3.109 -0.4940  1.9052  0.3939
   35MOL    H7611024   2.917   3.182   3.104 -2.5775  1.4316 -1.2523
   35MOL    H7711025   3.008   2.952   3.154  0.0249 -0.1051  1.6944
   35MOL    H7811026   2.610   2.813   3.237 -0.7086  0.6706 -0.9256
   35MOL    H7911027   2.525   3.019   3.145  0.0401 -2.5989 -0.3484
   35MOL    H8011028   2.789   3.357   3.245 -0.0941  1.9409  0.1110
   35MOL    H8111029   2.670   3.451   3.173 -2.2485 -1.2009 -0.0468
   35MOL    C8211030   2.595   3.339   3.343  0.3935  0.6053  0.2006
   35MOL    C8311031   2.645   3.221   3.433 -0.1914 -0.1708  0.2853
   35MOL    C8411032   2.772   3.221   3.498  0.4157  0.2781  1.0982
   35MOL    C8511033   2.803   3.121   3.588  0.7420  0.4728  0.0998
   35MOL    C8611034   2.723   3.011   3.606  0.1641  0.0369  0.1001
   35MOL   Cl8711035   2.767   2.898   3.728 -0.0399 -0.1268 -0.1769
   35MOL    C8811036   2.603   3.008   3.536 -0.2894 -0.2687  0.3673
   35MOL    C8911037   2.565   3.108   3.447  0.2270 -0.4027  0.0755
   35MOL    C9011038   2.589   3.476   3.419 -0.0740  0.0320 -0.1518
   35MOL    H9111039   2.493   3.321   3.309 -0.1367  1.9899  1.0140
   35MOL    H9211040   2.831   3.310   3.487  1.8790 -0.6611  1.1211
   35MOL    H9311041   2.894   3.143   3.641 -0.5061  2.6078  1.4393
   35MOL    H9411042   2.535   2.925   3.543 -0.7231 -0.0112 -0.6609
   35MOL    H9511043   2.470   3.096   3.397  0.6595 -4.2021 -0.0113
   35MOL    H9611044   2.690   3.514   3.434 -1.0034  1.6896  2.2043
   35MOL    H9711045   2.552   3.550   3.348 -0.1927 -0.2527 -0.3872
   35MOL    C9811046   2.519   3.478   3.558  0.3650 -0.3371  0.4571
   35MOL    C9911047   2.533   3.624   3.614  0.9797  0.0320 -0.1575
   35MOL   C10011048   2.469   3.737   3.551  0.0212 -0.1681 -0.2333
   35MOL   C10111049   2.478   3.863   3.615 -0.2651  0.4300 -0.3949
   35MOL   C10211050   2.549   3.875   3.733 -0.2336 -0.2630  0.4497
   35MOL  Cl10311051   2.556   4.028   3.818 -0.2423 -0.3179  0.2019
   35MOL   C10411052   2.618   3.768   3.793 -0.6856  0.0494 -0.0536
   35MOL   C10511053   2.615   3.642   3.729  0.3938 -0.1991 -0.4314
   35MOL   C10611054   2.369   3.431   3.576  0.0186  0.4059  0.1944
   35MOL   H10711055   2.582   3.414   3.619  1.0232 -1.4673 -1.3826
   35MOL   H10811056   2.417   3.734   3.457  0.4025 -0.1654 -0.4449
   35MOL   H10911057   2.429   3.949   3.571  0.2020 -0.2339 -2.2549
   35MOL   H11011058   2.671   3.779   3.887  3.6969 -1.4969 -2.1731
   35MOL   H11111059   2.664   3.557   3.774 -0.6156  0.4104  1.9159
   35MOL   H11211060   2.298   3.495   3.523  0.2318 -0.4373 -1.1256
   35MOL   H11311061   2.352   3.336   3.525 -2.1319  0.4379  0.8075
   35MOL   C11411062   2.329   3.421   3.724  0.2347 -0.5030 -0.4266
   35MOL   C11511063   2.175   3.432   3.740  0.3114 -0.3886  0.3703
   35MOL   C11611064   2.116   3.533   3.808 -0.0862 -0.0445  0.0983
   35MOL   C11711065   1.977   3.517   3.835 -0.5338  0.5534 -0.1269
   35MOL   C11811066   1.901   3.411   3.784 -0.4606  0.6622 -0.6463
   35MOL  Cl11911067   1.734   3.396   3.799  0.7640  0.1090 -0.3415
   35MOL   C12011068   1.961   3.319   3.700  0.2900  0.1349  0.7009
   35MOL   C12111069   2.099   3.329   3.674  0.1178 -0.2291 -0.1247
   35MOL   C12211070   2.398   3.309   3.802  0.5523 -0.0226  1.2278
   35MOL   H12311071   2.358   3.515   3.771 -1.1263  0.8531 -2.2364
   35MOL   H12411072   2.177   3.616   3.841 -0.3793  1.4274 -2.8491
   35MOL   H12511073   1.914   3.592   3.882  0.8908  0.8047  1.4271
   35MOL   H12611074   1.902   3.235   3.668  0.4673  0.0558  0.5809
   35MOL   H12711075   2.158   3.255   3.623  0.0472  0.1038 -0.6860
   35MOL   H12811076   2.349   3.213   3.787 -0.3500  0.5428  0.5930
   35MOL   H12911077   2.497   3.288   3.762 -0.4273  0.0476 -1.2898
   35MOL   C13011078   2.410   3.321   3.962 -0.0626  0.0427 -0.0291
   35MOL   C13111079   2.455   3.194   4.024 -0.3980  0.1806  0.8483
   35MOL   C13211080   2.581   3.139   3.979 -0.2184  0.3410  0.1185
   35MOL   C13311081   2.626   3.017   4.024 -0.2332 -0.0188  0.3486
   35MOL   C13411082   2.553   2.942   4.115 -0.1327 -0.0955 -0.3076
   35MOL  Cl13511083   2.611   2.790   4.175  0.3222  0.2387  0.3878
   35MOL   C13611084   2.428   2.994   4.159 -0.0016  0.3698  0.3346
   35MOL   C13711085   2.373   3.113   4.109  0.6142  0.2699 -0.1326
   35MOL   C13811086   2.490   3.447   4.009 -0.2556  0.5534 -0.6491
   35MOL   H13911087   2.315   3.337   4.013  0.2317 -0.0904  0.5671
   35MOL   H14011088   2.647   3.205   3.926 -0.0351 -0.4044 -0.5883
   35MOL   H14111089   2.725   2.985   3.995 -0.1092  0.2293  0.4994
   35MOL   H14211090   2.370   2.932   4.226  1.2476 -0.0418  1.0648
   35MOL   H14311091   2.273   3.137   4.143  0.5771  1.0243 -0.7526
   35MOL   H14411092   2.593   3.433   3.976  0.3297  3.1503 -0.0754
   35MOL   H14511093   2.456   3.541   3.965 -0.3357  0.6983 -0.2816
   35MOL   C14611094   2.511   3.469   4.160  0.5639  0.0775  0.7662
   35MOL   C14711095   2.606   3.581   4.180  0.1983 -0.2552 -0.0080
   35MOL   C14811096   2.582   3.714   4.136 -0.0261 -0.1655 -0.0423
   35MOL   C14911097   2.670   3.817   4.171 -0.0300  0.6855  0.4642
   35MOL   C15011098   2.780   3.796   4.253  0.0674 -0.3579  0.6262
   35MOL  Cl15111099   2.886   3.929   4.286  0.0896  0.2209  0.1052
   35MOL   C15211100   2.802   3.665   4.295 -0.0850  0.5483 -0.3385
   35MOL   C15311101   2.717   3.559   4.265  0.1228  0.5948  0.5251
   35MOL   C15411102   2.378   3.494   4.227  0.3624  0.0999 -0.3837
   35MOL   H15511103   2.550   3.376   4.201  1.0649 -0.2460 -0.4172
   35MOL   H15611104   2.496   3.749   4.082 -0.6654 -0.8811  0.5106
   35MOL   H15711105   2.642   3.915   4.135  1.0432  1.3385  1.3437
   35MOL   H15811106   2.883   3.657   4.366 -0.8728  1.0743  0.6286
   35MOL   H15911107   2.740   3.460   4.301 -2.6673 -0.1088  0.5535
   35MOL   H16011108   2.334   3.578   4.173 -1.4734  0.5999  1.7959
   35MOL   H16111109   2.301   3.419   4.207 -0.3684  0.0534  2.3902
   35MOL   C16211110   2.380   3.505   4.380  0.7988 -0.4088 -0.6255
   35MOL   C16311111   2.261   3.592   4.426  0.0267 -0.7539 -0.0651
   35MOL   C16411112   2.279   3.691   4.526  0.4289 -0.6485 -0.1253
   35MOL   C16511113   2.168   3.769   4.565 -0.1031  0.0717 -0.4340
   35MOL   C16611114   2.041   3.736   4.528 -0.4124 -1.4418  0.7000
   35MOL  Cl16711115   1.913   3.839   4.597 -0.0001  0.3968 -0.1170
   35MOL   C16811116   2.020   3.639   4.434 -0.9194 -0.1692  0.0752
   35MOL   C16911117   2.132   3.570   4.377  0.1389 -0.7385 -0.0937
   35MOL   C17011118   2.388   3.363   4.441 -0.6905  0.1666 -0.3498
   35MOL   H17111119   2.466   3.565   4.411  0.7082 -1.3200  1.4972
   35MOL   H17211120   2.377   3.710   4.568  0.7302  3.1531 -2.3747
   35MOL   H17311121   2.172   3.844   4.642  1.8851  0.9274 -1.3614
   35MOL   H17411122   1.922   3.614   4.396 -1.5878  1.2470  0.8193
   35MOL   H17511123   2.126   3.494   4.301  2.1729 -0.8562 -0.1663
   35MOL   H17611124   2.288   3.346   4.481 -1.2797  1.8356 -1.0787
   35MOL   H17711125   2.392   3.288   4.363  0.5110 -1.7384  1.4881
   35MOL   C17811126   2.497   3.349   4.553 -0.2604  0.6126  0.6507
   35MOL   C17911127   2.458   3.416   4.683 -0.4817 -0.0499  0.5026
   35MOL   C18011128   2.530   3.526   4.725 -0.0288  0.4676 -0.4006
   35MOL   C18111129   2.494   3.594   4.841  0.4245 -0.4009  0.4320
   35MOL   C18211130   2.395   3.539   4.926  0.0106 -0.4647  0.1560
   35MOL  Cl18311131   2.347   3.633   5.061 -0.2450 -0.3514 -0.1266
   35MOL   C18411132   2.326   3.422   4.889 -0.8006  0.3382  0.2779
   35MOL   C18511133   2.357   3.363   4.762 -0.5914  0.2567  0.3602
   35MOL   C18611134   2.542   3.205   4.571  0.2573  0.2341 -0.2888
   35MOL   H18711135   2.587   3.404   4.526  1.1383 -0.6636  2.5775
   35MOL   H18811136   2.613   3.567   4.670 -0.4524  1.8402 -0.0235
   35MOL   H18911137   2.542   3.687   4.869  1.8347 -0.9263 -0.1789
   35MOL   H19011138   2.244   3.384   4.949 -1.4608  1.0424 -0.1626
   35MOL   H19111139   2.304   3.275   4.731 -2.5190  1.1623  1.0201
   35MOL   H19211140   2.601   3.206   4.662 -0.0431 -3.7659  0.0140
   35MOL   H19311141   2.455   3.144   4.595 -0.0150 -0.0921 -2.0349
   35MOL   C19411142   2.634   3.154   4.452 -0.5390  0.3270 -0.4544
   35MOL   C19511143   2.773   3.222   4.432  0.6440  0.1231 -0.1451
   35MOL   C19611144   2.828   3.207   4.302  0.2957 -0.1017 -0.3964
   35MOL   C19711145   2.948   3.273   4.271 -0.3877 -1.1663 -0.4522
   35MOL   C19811146   3.014   3.352   4.370 -0.0980  0.1201  0.1076
   35MOL  Cl19911147   3.160   3.432   4.326  0.0179 -0.0675  0.4401
   35MOL   C20011148   2.963   3.360   4.500  0.3633 -0.1080  0.5604
   35MOL   C20111149   2.844   3.294   4.532  0.2467 -0.1514  0.5002
   35MOL   C20211150   2.639   2.999   4.448 -0.0142 -0.1452  0.1467
   35MOL   H20311151   2.598   3.188   4.355 -0.5276 -0.3369 -0.6938
   35MOL   H20411152   2.782   3.145   4.227 -1.3260 -1.9106  1.9932
   35MOL   H20511153   2.993   3.242   4.178  0.1670 -0.7529 -0.3273
   35MOL   H20611154   3.026   3.421   4.564  1.3204 -0.7632  0.2559
   35MOL   H20711155   2.808   3.308   4.633 -1.0089 -0.5067  0.1106
   35MOL   H20811156   2.539   2.956   4.443  0.3287 -1.0829  1.2735
   35MOL   H20911157   2.691   2.980   4.354 -1.1860 -0.6842 -0.3961
   35MOL   C21011158   2.726   2.937   4.558 -0.6189  1.1232  0.0761
   35MOL   C21111159   2.668   2.937   4.698 -0.2845  0.0301 -0.5350
   35MOL   C21211160   2.744   3.005   4.801  0.0907  0.0475  0.4218
   35MOL   C21311161   2.679   3.017   4.927 -0.0493  0.6011  0.9198
   35MOL   C21411162   2.553   2.956   4.952 -0.6406 -0.3933 -0.2552
   35MOL  Cl21511163   2.485   2.953   5.112  0.0316  0.0965 -0.0060
   35MOL   C21611164   2.490   2.884   4.844 -0.4474 -0.9956 -0.4252
   35MOL   C21711165   2.547   2.875   4.718 -0.3331 -0.5790  0.4561
   35MOL   C21811166   2.760   2.787   4.521 -0.1244  0.4758  0.4637
   35MOL   H21911167   2.816   2.999   4.554  0.4241 -0.4043 -1.2540
   35MOL   H22011168   2.836   3.058   4.783 -1.3161  2.0265 -1.1991
   35MOL   H22111169   2.741   3.064   5.001  2.9929 -0.7199 -0.6908
   35MOL   H22211170   2.392   2.845   4.867 -0.8793 -0.5889 -1.5140
   35MOL   H22311171   2.493   2.826   4.638 -0.5822  0.0262  0.2560
   35MOL   H22411172   2.667   2.730   4.523  1.6343 -2.5431 -0.5794
   35MOL   H22511173   2.795   2.780   4.418  0.2564  0.8833  0.5639
   35MOL   C22611174   2.856   2.729   4.624 -0.8766  0.1930  0.2076
   35MOL   C22711175   2.849   2.573   4.626 -0.0968  0.2194  0.2154
   35MOL   C22811176   2.861   2.487   4.511  0.0169 -0.9123  0.7993
   35MOL   C22911177   2.842   2.346   4.537 -0.1329 -0.0887  0.7068
   35MOL   C23011178   2.814   2.290   4.661  0.1639  0.3434 -1.0574
   35MOL  Cl23111179   2.787   2.125   4.691 -0.0597  0.1134 -0.1925
   35MOL   C23211180   2.788   2.379   4.762 -0.4920  0.5409 -1.0853
   35MOL   C23311181   2.810   2.517   4.754 -1.0323  0.3174  0.6978
   35MOL   C23411182   2.997   2.779   4.580 -0.1759 -0.4408  0.3992
   35MOL   H23511183   2.823   2.758   4.724 -0.6944  0.3122  0.2326
   35MOL   H23611184   2.897   2.519   4.414  1.5685 -0.0332  1.6329
   35MOL   H23711185   2.851   2.273   4.458 -0.7512  1.8975 -1.2568
   35MOL   H23811186   2.753   2.341   4.858  1.4690  2.0450  0.2606
   35MOL   H23911187   2.805   2.566   4.851  0.0144 -0.3991  1.1179
   35MOL   H24011188   3.057   2.706   4.525  1.1131  1.5270 -0.8643
   35MOL   H24111189   2.976   2.863   4.514  1.6537 -0.2150  0.0946
   35MOL   C24211190   3.082   2.838   4.688 -0.7225  0.3858 -0.9842
   35MOL   C24311191   3.131   2.731   4.783 -0.0397  0.2583 -0.5101
   35MOL   C24411192   3.077   2.710   4.908 -0.1468  0.3346  0.0538
   35MOL   C24511193   3.122   2.601   4.987  0.0429 -0.0988  0.1171
   35MOL   C24611194   3.234   2.532   4.946  0.8542  0.6136 -0.1284
   35MOL  Cl24711195   3.298   2.419   5.061  0.0752  0.8409 -0.0168
   35MOL   C24811196   3.294   2.544   4.819  0.5623 -0.2535 -0.5844
   35MOL   C24911197   3.235   2.645   4.734  0.1285 -0.2218  0.0430
   35MOL   C25011198   3.183   2.945   4.650 -0.5664  0.0566 -0.3233
   35MOL   H25111199   3.008   2.890   4.749  1.2569  2.7311 -0.5002
   35MOL   H25211200   3.009   2.784   4.949  0.8025  0.3006  1.7433
   35MOL   H25311201   3.075   2.581   5.082  0.3124  0.1378  0.2997
   35MOL   H25411202   3.362   2.471   4.779  0.1125 -1.1387  0.2466
   35MOL   H25511203   3.294   2.674   4.648  2.6875  0.2959  1.9171
   35MOL   H25611204   3.251   2.895   4.582 -2.3280 -1.4416 -1.0161
   35MOL   H25711205   3.134   3.006   4.574  1.2100  0.5689 -1.0942
   35MOL   C25811206   3.252   3.035   4.754  0.9954 -0.0204 -0.1982
   35MOL   C25911207   3.155   3.108   4.839 -0.5755  0.2494  0.4332
   35MOL   C26011208   3.124   3.055   4.964 -0.6751  0.2457 -0.2522
   35MOL   C26111209   3.031   3.130   5.038  0.9776  0.4950 -0.3090
   35MOL   C26211210   2.986   3.259   4.997  0.3759 -0.4844  0.1561
   35MOL  Cl26311211   2.858   3.343   5.081  0.5018 -0.1497 -0.5735
   35MOL   C26411212   3.024   3.311   4.873  0.0176 -0.1008 -0.0788
   35MOL   C26511213   3.111   3.237   4.790  0.3626 -0.2394  0.1865
   35MOL   C26611214   3.368   2.968   4.824 -0.6355 -0.0137 -0.3691
   35MOL   H26711215   3.296   3.110   4.689 -0.7769  1.3268  0.0993
   35MOL   H26811216   3.159   2.961   5.006 -1.2114  1.8612  4.0521
   35MOL   H26911217   2.999   3.096   5.136  3.2569 -1.1085 -0.0869
   35MOL   H27011218   2.966   3.394   4.835  1.9525  1.2279 -0.1691
   35MOL   H27111219   3.136   3.271   4.690  0.0712  1.6141  0.7366
   35MOL   H27211220   3.340   2.890   4.895 -0.7245  1.3839  1.1468
   35MOL   H27311221   3.417   2.918   4.740 -2.6458 -1.0033 -0.9896
   35MOL   C27411222   3.482   3.056   4.884  0.0702  0.1900  0.3121
   35MOL   C27511223   3.547   3.135   4.773 -0.6207 -0.4475  1.3741
   35MOL   C27611224   3.508   3.266   4.734  0.5697  0.6014 -0.2799
   35MOL   C27711225   3.585   3.338   4.636 -0.2068 -0.0717  0.6830
   35MOL   C27811226   3.690   3.275   4.561 -0.6397 -0.0624 -0.6239
   35MOL  Cl27911227   3.780   3.346   4.427 -0.0204  0.4789 -0.2538
   35MOL   C28011228   3.719   3.144   4.600 -0.6503  0.2487 -0.3625
   35MOL   C28111229   3.656   3.076   4.699  0.2016  0.2133 -0.3653
   35MOL   C28211230   3.435   3.139   5.005 -0.5153 -0.0849 -0.2856
   35MOL   H28311231   3.556   2.988   4.925 -0.0138 -1.5209 -2.2751
   35MOL   H28411232   3.433   3.319   4.791 -1.1923 -1.7831 -0.2877
   35MOL   H28511233   3.552   3.437   4.608  0.5240  0.3718  1.3675
   35MOL   H28611234   3.803   3.095   4.551 -0.4727 -1.5337  1.6586
   35MOL   H28711235   3.696   2.980   4.728 -1.3717 -0.2356  0.3841
   35MOL   H28811236   3.357   3.203   4.964 -0.5639  0.0195 -0.0285
   35MOL   H28911237   3.389   3.068   5.074  0.7121  0.9594  1.6720
   35MOL   C29011238   3.531   3.231   5.083 -0.6550 -0.6423  0.0797
   35MOL   C29111239   3.454   3.339   5.155  0.1462 -0.4982 -0.2963
   35MOL   C29211240   3.471   3.478   5.122 -0.0231 -0.6152  0.1237
   35MOL   C29311241   3.388   3.572   5.178  0.0348 -0.1755 -0.0756
   35MOL   C29411242   3.283   3.538   5.266  0.4209  0.0775 -0.0272
   35MOL  Cl29511243   3.165   3.652   5.307 -0.2321 -0.0024 -0.0505
   35MOL   C29611244   3.273   3.406   5.302 -0.4960  0.4513 -0.3359
   35MOL   C29711245   3.360   3.302   5.257  0.2540  0.0406  1.0953
   35MOL   C29811246   3.613   3.154   5.183  0.3098 -0.2631 -0.4125
   35MOL   H29911247   3.605   3.279   5.018 -0.1609  1.5091  2.1570
   35MOL   H30011248   3.543   3.507   5.047 -0.5469 -0.5870 -0.3737
   35MOL   H30111249   3.408   3.674   5.148  1.5669  0.2006  2.1486
   35MOL   H30211250   3.191   3.374   5.365 -0.2234 -0.9234 -0.6580
   35MOL   H30311251   3.343   3.199   5.287 -1.0169 -0.1216 -0.1303
   35MOL   H30411252   3.627   3.217   5.271 -3.1161 -1.0010  0.7551
   35MOL   H30511253   3.553   3.073   5.223  0.6789  0.9996  2.8044
   35MOL   C30611254   3.758   3.110   5.141 -0.7650  0.7828 -0.3972
   35MOL   C30711255   3.849   3.229   5.106 -0.1587  0.1332 -0.1045
   35MOL   C30811256   3.874   3.253   4.965  0.7643  0.4375  0.3328
   35MOL   C30911257   3.931   3.374   4.924 -0.1915  0.5467 -0.1622
   35MOL   C31011258   3.995   3.460   5.018 -0.0418  0.1651  0.0657
   35MOL  Cl31111259   4.066   3.607   4.965  0.0490 -0.1840  0.0301
   35MOL   C31211260   3.987   3.427   5.152  0.1758  0.0180  0.1232
   35MOL   C31311261   3.916   3.314   5.194  0.3097 -0.1934  0.3093
   35MOL   C31411262   3.825   3.012   5.236  0.1558 -0.3115 -0.1629
   35MOL   H31511263   3.742   3.056   5.048 -0.1313  0.1569 -0.1399
   35MOL   H31611264   3.830   3.189   4.890  2.1063  0.3622 -0.4197
   35MOL   H31711265   3.918   3.401   4.820  2.1323  2.4442 -0.0038
   35MOL   H31811266   4.027   3.498   5.222  1.8914  2.7772 -3.5221
   35MOL   H31911267   3.918   3.296   5.300 -0.0655  2.0077  0.7090
   35MOL   H32011268   3.851   3.064   5.328 -1.8287  0.0266  0.2368
   35MOL   H32111269   3.756   2.932   5.261  0.4352 -0.7707 -0.8461
   35MOL   H32211270   3.916   2.970   5.193  0.4595  1.8387 -1.7477
   36MOL     C111271   2.367   7.582   6.584  0.1746  0.1990 -0.0045
   36MOL     C211272   2.515   7.555   6.620 -0.5985  0.5979  0.6617
   36MOL     C311273   2.537   7.450   6.709 -0.4895  0.7204  0.5670
   36MOL     C411274   2.667   7.411   6.745  0.3644 -0.4398  0.2833
   36MOL     C511275   2.770   7.499   6.706 -0.2808 -0.6237  0.1375
   36MOL    Cl611276   2.934   7.468   6.756  0.1310 -0.0359  0.0896
   36MOL     C711277   2.753   7.606   6.615  0.3244  0.4544 -0.7300
   36MOL     C811278   2.626   7.629   6.567 -0.1719  0.0558  0.5246
   36MOL     C911279   2.330   7.493   6.460 -0.8983 -0.5245 -0.6474
   36MOL    H1011280   2.348   7.687   6.562 -0.2538 -0.4255 -2.8757
   36MOL    H1111281   2.457   7.401   6.763  0.5444 -0.0286  1.4291
   36MOL    H1211282   2.692   7.333   6.816  0.8475  1.2458  2.0134
   36MOL    H1311283   2.839   7.667   6.591  0.6033  0.6974  0.8571
   36MOL    H1411284   2.608   7.709   6.497 -1.4240  0.5443  1.3911
   36MOL    H1511285   2.400   7.514   6.379  1.1319  1.4910  1.5151
   36MOL    H1611286   2.352   7.388   6.483  0.5612  0.1117  1.0181
   36MOL    H1711287   2.300   7.550   6.663 -0.7649  2.7986  0.2853
   36MOL    C1811288   2.181   7.508   6.421  0.5058 -0.2441  0.1169
   36MOL    C1911289   2.134   7.649   6.391  0.5988  0.1019  0.2574
   36MOL    C2011290   2.192   7.717   6.286  0.0112  0.2436  0.6106
   36MOL    C2111291   2.143   7.842   6.241 -0.1124  0.2019  0.2426
   36MOL    C2211292   2.035   7.898   6.306 -0.0994 -0.2340 -0.1913
   36MOL   Cl2311293   1.968   8.049   6.261  0.0060  0.5010 -0.2863
   36MOL    C2411294   1.981   7.834   6.425  1.1398  0.2761 -0.2077
   36MOL    C2511295   2.034   7.709   6.471  0.5808  0.0843 -0.1678
   36MOL    C2611296   2.143   7.413   6.305  0.4147 -0.1970  0.3761
   36MOL    H2711297   2.126   7.483   6.512  0.3520  0.4338  0.2093
   36MOL    H2811298   2.271   7.667   6.231  0.5311  0.0265  1.5365
   36MOL    H2911299   2.183   7.892   6.154 -1.6535 -0.7415 -1.0434
   36MOL    H3011300   1.898   7.883   6.473  1.3624 -0.6673  1.1867
   36MOL    H3111301   1.996   7.654   6.556 -0.1671 -0.4930 -0.8780
   36MOL    H3211302   2.190   7.444   6.211 -2.0716 -0.7589 -1.0923
   36MOL    H3311303   2.194   7.317   6.315  2.3166  0.8071  0.6159
   36MOL    C3411304   1.990   7.392   6.281  0.2963 -0.2814 -0.1285
   36MOL    C3511305   1.960   7.366   6.135  0.4137  0.0946 -1.3557
   36MOL    C3611306   1.929   7.472   6.049  0.4858  0.2763 -0.3817
   36MOL    C3711307   1.899   7.447   5.911 -0.7059 -0.2453 -0.2630
   36MOL    C3811308   1.899   7.312   5.864 -0.7698 -0.6130  0.2554
   36MOL   Cl3911309   1.872   7.274   5.699 -0.0617  0.5096 -0.0459
   36MOL    C4011310   1.926   7.207   5.951 -0.3389 -0.2182 -0.3452
   36MOL    C4111311   1.954   7.232   6.085  0.0706  0.1673 -0.1277
   36MOL    C4211312   1.942   7.286   6.387  1.1585  0.1903  0.5106
   36MOL    H4311313   1.942   7.484   6.315  1.5253  0.5545 -0.6262
   36MOL    H4411314   1.919   7.574   6.083 -0.8482  0.7420 -2.1104
   36MOL    H4511315   1.865   7.524   5.844 -2.0485  0.2269  0.9314
   36MOL    H4611316   1.916   7.103   5.922  2.6309 -0.1660 -1.7258
   36MOL    H4711317   1.971   7.149   6.153 -0.4523  0.2067  0.0544
   36MOL    H4811318   1.991   7.190   6.372  0.9295  0.1685 -0.1040
   36MOL    H4911319   1.968   7.317   6.489 -2.4686  1.4062  1.1647
   36MOL    C5011320   1.792   7.232   6.365 -0.3101 -0.3947  0.0689
   36MOL    C5111321   1.784   7.080   6.370  0.2342 -0.3371  0.7073
   36MOL    C5211322   1.838   7.014   6.485 -0.5240  0.4645  0.2940
   36MOL    C5311323   1.829   6.871   6.484 -0.1004 -0.3427 -0.3183
   36MOL    C5411324   1.771   6.794   6.385 -0.1952  0.2237  0.0334
   36MOL   Cl5511325   1.787   6.621   6.387  0.1319  0.3586  0.0172
   36MOL    C5611326   1.708   6.856   6.278 -0.2473  0.3185  0.4224
   36MOL    C5711327   1.714   7.000   6.271  0.6585  0.2603 -0.6448
   36MOL    C5811328   1.679   7.289   6.450 -0.1014  0.2199 -0.0352
   36MOL    H5911329   1.779   7.256   6.260  1.7595  0.8666  0.0627
   36MOL    H6011330   1.881   7.060   6.573 -2.9679  1.1283  1.1822
   36MOL    H6111331   1.849   6.816   6.575 -0.9203 -3.0141 -1.6958
   36MOL    H6211332   1.653   6.800   6.204 -0.3838  2.0991 -0.8598
   36MOL    H6311333   1.665   7.046   6.186 -0.2448 -0.1307 -0.3437
   36MOL    H6411334   1.582   7.246   6.425  1.2497 -2.2369 -1.1906
   36MOL    H6511335   1.695   7.259   6.554  2.0920 -2.2387 -1.0406
   36MOL    C6611336   1.668   7.447   6.447 -0.2090  0.4352  0.0572
   36MOL    C6711337   1.653   7.506   6.309 -0.4652 -0.1728  0.5985
   36MOL    C6811338   1.581   7.447   6.204  0.2656  0.2658  0.0214
   36MOL    C6911339   1.571   7.506   6.077 -0.2155  0.6574 -0.1492
   36MOL    C7011340   1.625   7.634   6.058 -0.6597 -0.4700  0.3837
   36MOL   Cl7111341   1.625   7.712   5.906 -0.1726  0.6269 -0.2135
   36MOL    C7211342   1.685   7.699   6.169 -0.6808  0.1299 -0.6666
   36MOL    C7311343   1.699   7.640   6.296 -0.2594 -0.0495 -0.3949
   36MOL    C7411344   1.557   7.505   6.534  0.1825  0.8940 -0.8384
   36MOL    H7511345   1.760   7.495   6.481  1.0105 -1.9698  0.2562
   36MOL    H7611346   1.532   7.351   6.219 -0.7279  0.5975 -0.9492
   36MOL    H7711347   1.525   7.453   5.995 -0.9219  0.7774  0.1652
   36MOL    H7811348   1.715   7.802   6.160 -2.7637  1.0942  2.3861
   36MOL    H7911349   1.750   7.686   6.380  0.3251  2.8242 -2.2714
   36MOL    H8011350   1.574   7.613   6.530 -3.4233  1.6138  1.1992
   36MOL    H8111351   1.458   7.500   6.488 -0.2417 -3.0386  0.3304
   36MOL    C8211352   1.559   7.449   6.687 -0.1412 -0.4240  1.0767
   36MOL    C8311353   1.696   7.487   6.748 -0.1014  0.4374  0.1807
   36MOL    C8411354   1.747   7.621   6.743 -0.4774 -0.3661 -0.3487
   36MOL    C8511355   1.872   7.656   6.794  0.2380  0.1480  0.2727
   36MOL    C8611356   1.940   7.555   6.870  0.4424  0.5984 -0.0253
   36MOL   Cl8711357   2.101   7.594   6.917 -0.1722 -0.0605 -0.1139
   36MOL    C8811358   1.888   7.424   6.876  0.2176 -0.2634 -0.3678
   36MOL    C8911359   1.771   7.387   6.815  0.2933  0.0460  0.2021
   36MOL    C9011360   1.442   7.510   6.766 -0.3114  0.4643  0.7541
   36MOL    H9111361   1.548   7.340   6.691  1.1883 -0.5776  0.7720
   36MOL    H9211362   1.678   7.693   6.701  2.2218  1.9089 -0.9912
   36MOL    H9311363   1.918   7.754   6.798 -0.3218  0.5265 -2.1967
   36MOL    H9411364   1.944   7.338   6.910 -2.7908 -2.5611 -0.9212
   36MOL    H9511365   1.746   7.282   6.812 -1.5109  0.4939 -1.4829
   36MOL    H9611366   1.454   7.618   6.759  1.7225  0.3007  1.3709
   36MOL    H9711367   1.359   7.480   6.703 -0.9645  1.3873  1.1735
   36MOL    C9811368   1.428   7.450   6.909 -0.1228 -0.7079 -0.7625
   36MOL    C9911369   1.388   7.561   7.010 -0.0576  0.7155 -0.1845
   36MOL   C10011370   1.271   7.644   7.002  0.3779 -0.9507 -0.0284
   36MOL   C10111371   1.259   7.755   7.092  0.1118  0.7869  0.2275
   36MOL   C10211372   1.368   7.781   7.177  0.5755 -0.2135  0.0677
   36MOL  Cl10311373   1.360   7.914   7.289  0.1443  0.4096  0.3156
   36MOL   C10411374   1.475   7.693   7.193 -0.3240 -0.3452  0.0222
   36MOL   C10511375   1.491   7.587   7.104 -0.3523  0.0010 -0.2080
   36MOL   C10611376   1.333   7.326   6.922 -0.3670  0.0525  0.0176
   36MOL   H10711377   1.528   7.421   6.944  0.6040  0.4312 -1.8646
   36MOL   H10811378   1.190   7.621   6.934 -0.8386  0.7126  0.8339
   36MOL   H10911379   1.179   7.827   7.089 -1.2144 -0.7353 -2.1440
   36MOL   H11011380   1.546   7.712   7.271 -0.0634 -1.1194 -0.0234
   36MOL   H11111381   1.577   7.522   7.116 -1.2753 -1.1959  0.0583
   36MOL   H11211382   1.316   7.312   7.029  0.3856 -0.9342  0.0135
   36MOL   H11311383   1.239   7.359   6.877 -0.2294  0.5550  0.0926
   36MOL   C11411384   1.369   7.191   6.857  0.2112  0.5246  0.3874
   36MOL   C11511385   1.504   7.133   6.904 -1.0259  0.6161 -0.2807
   36MOL   C11611386   1.559   7.159   7.033  0.9443  0.4157  0.2595
   36MOL   C11711387   1.671   7.093   7.075  0.7563 -0.3397 -0.2034
   36MOL   C11811388   1.733   7.001   6.986  0.2190 -0.4652 -0.1243
   36MOL  Cl11911389   1.866   6.910   7.050 -0.1005  0.0354  0.1554
   36MOL   C12011390   1.683   6.977   6.856  0.2654  0.7252 -0.3665
   36MOL   C12111391   1.568   7.043   6.815  0.1972 -0.5956  0.0919
   36MOL   C12211392   1.258   7.088   6.866 -0.1384  0.1360 -0.1510
   36MOL   H12311393   1.402   7.213   6.756  0.2873 -1.9243 -0.1442
   36MOL   H12411394   1.501   7.221   7.100  0.4090 -1.2727  1.4051
   36MOL   H12511395   1.699   7.107   7.178 -2.3961 -0.5389  0.7342
   36MOL   H12611396   1.724   6.905   6.786 -1.2037  0.9301 -1.4662
   36MOL   H12711397   1.526   7.027   6.717 -0.3657 -0.5498  0.3284
   36MOL   H12811398   1.305   6.990   6.866 -1.4575 -0.5138 -0.7026
   36MOL   H12911399   1.222   7.111   6.966 -2.3837  2.6141 -1.4379
   36MOL   C13011400   1.150   7.097   6.759  0.4503  0.7230  0.2024
   36MOL   C13111401   1.209   7.085   6.619  0.2218 -0.6379  0.1412
   36MOL   C13211402   1.292   6.977   6.584 -0.2262  0.2965  0.0808
   36MOL   C13311403   1.362   6.987   6.458 -0.3524  0.0179  0.0754
   36MOL   C13411404   1.348   7.095   6.368  0.1658  0.2162 -0.1527
   36MOL  Cl13511405   1.417   7.101   6.208 -0.1515 -0.0194 -0.0128
   36MOL   C13611406   1.260   7.197   6.402  0.6014 -0.1530 -0.2334
   36MOL   C13711407   1.195   7.191   6.530 -0.0273  0.2993  0.3121
   36MOL   C13811408   1.044   6.992   6.797  0.0860 -0.1261  0.3766
   36MOL   H13911409   1.104   7.196   6.763  0.1388  0.6344 -1.0163
   36MOL   H14011410   1.316   6.906   6.661  1.2446  0.6758 -0.0068
   36MOL   H14111411   1.432   6.905   6.447  1.4269  0.8381  4.2177
   36MOL   H14211412   1.247   7.276   6.330  1.2870 -0.1280 -0.3383
   36MOL   H14311413   1.134   7.276   6.558  3.0794  1.9343  2.3526
   36MOL   H14411414   0.994   6.981   6.700 -0.4904 -0.0181  0.6619
   36MOL   H14511415   1.089   6.895   6.814  1.1144  0.5152  1.3570
   36MOL   C14611416   0.945   7.023   6.905 -0.3542  0.1570  0.1065
   36MOL   C14711417   0.837   7.116   6.858  0.0136 -0.8783 -0.1596
   36MOL   C14811418   0.747   7.074   6.757 -0.3521  0.0849 -0.0672
   36MOL   C14911419   0.667   7.168   6.698  0.3603 -0.4961 -0.2321
   36MOL   C15011420   0.663   7.305   6.748  0.0186  0.7992  0.0712
   36MOL  Cl15111421   0.558   7.416   6.679  0.0413 -0.4895 -0.1440
   36MOL   C15211422   0.745   7.344   6.853  0.8696  0.0602  0.0883
   36MOL   C15311423   0.833   7.247   6.908 -0.2316  0.3420 -0.1252
   36MOL   C15411424   0.886   6.893   6.970 -0.4583  0.0036 -0.1340
   36MOL   H15511425   0.989   7.085   6.983 -0.5785  0.4100  0.0309
   36MOL   H15611426   0.733   6.976   6.714  0.3281  0.5999 -1.4916
   36MOL   H15711427   0.611   7.143   6.609 -0.8826 -1.4510  0.8119
   36MOL   H15811428   0.739   7.442   6.897  2.5192  1.0800 -1.8572
   36MOL   H15911429   0.888   7.267   6.998  1.4594 -2.1789 -0.5356
   36MOL   H16011430   0.813   6.931   7.042  1.8029  1.4781  1.4571
   36MOL   H16111431   0.826   6.826   6.909 -1.2915  0.6753 -0.0572
   36MOL   C16211432   0.973   6.807   7.062  0.5374  0.3962 -0.2686
   36MOL   C16311433   1.041   6.889   7.172 -0.1108 -0.0582  0.3605
   36MOL   C16411434   1.186   6.892   7.175 -0.4002  0.1669 -0.3050
   36MOL   C16511435   1.250   6.964   7.279  1.0465 -0.3323 -0.0212
   36MOL   C16611436   1.173   7.033   7.380  0.3558  0.3818 -0.5157
   36MOL  Cl16711437   1.241   7.117   7.511 -0.3862 -0.3265 -0.2575
   36MOL   C16811438   1.032   7.035   7.367  0.4878 -0.4696  0.2673
   36MOL   C16911439   0.967   6.967   7.265 -0.1131  0.2805 -0.1284
   36MOL   C17011440   0.897   6.685   7.130  0.4749 -0.0083  0.7874
   36MOL   H17111441   1.050   6.766   6.997 -0.2296 -1.9356  0.2563
   36MOL   H17211442   1.241   6.836   7.101  1.5046 -1.7419  2.4268
   36MOL   H17311443   1.357   6.966   7.297  1.3858 -0.8210 -1.9493
   36MOL   H17411444   0.979   7.074   7.453  2.4253 -3.2554  2.8257
   36MOL   H17511445   0.859   6.965   7.272 -0.0413  1.7308  1.8299
   36MOL   H17611446   0.816   6.721   7.193 -1.2716 -3.8373  0.8828
   36MOL   H17711447   0.842   6.632   7.052  1.7311  0.4696 -0.4354
   36MOL   C17811448   0.974   6.585   7.221  0.6376 -0.2159 -0.2172
   36MOL   C17911449   1.010   6.645   7.365  0.1008  0.9619  0.7032
   36MOL   C18011450   1.141   6.644   7.415  0.4957  0.5893 -0.0684
   36MOL   C18111451   1.162   6.672   7.554 -0.5340  0.2750 -0.3823
   36MOL   C18211452   1.056   6.690   7.635  0.7573 -0.6758 -0.3719
   36MOL  Cl18311453   1.081   6.708   7.799 -0.1671  0.0580  0.3941
   36MOL   C18411454   0.929   6.702   7.586 -0.3840  0.4082  0.2958
   36MOL   C18511455   0.907   6.689   7.453  0.0151 -1.3620  0.0794
   36MOL   C18611456   0.918   6.438   7.214  0.3041 -0.0123  0.0484
   36MOL   H18711457   1.071   6.573   7.173  0.5266  1.3348 -0.8790
   36MOL   H18811458   1.226   6.619   7.352  0.0230 -3.7159  0.8658
   36MOL   H18911459   1.261   6.671   7.598  0.7256 -1.0625 -3.1128
   36MOL   H19011460   0.849   6.724   7.655  0.3614  2.8637  0.4425
   36MOL   H19111461   0.810   6.688   7.405  0.2970 -2.5276 -0.5025
   36MOL   H19211462   0.924   6.405   7.110  1.5704 -0.2127  0.1724
   36MOL   H19311463   0.991   6.373   7.262 -1.3708 -1.7485  0.3029
   36MOL   C19411464   0.777   6.391   7.266 -0.1432 -0.6123  0.0017
   36MOL   C19511465   0.662   6.468   7.207 -0.0916 -0.2807 -0.1177
   36MOL   C19611466   0.594   6.565   7.287 -0.4893  0.5384  0.2167
   36MOL   C19711467   0.491   6.634   7.228 -0.5821  0.0096  0.1359
   36MOL   C19811468   0.467   6.621   7.091 -0.0334 -0.5300  0.2107
   36MOL  Cl19911469   0.348   6.722   7.007  0.0964 -0.0158 -0.2909
   36MOL   C20011470   0.532   6.524   7.008  0.4539 -1.0592  0.1192
   36MOL   C20111471   0.628   6.444   7.071 -0.4386 -0.5457  0.0653
   36MOL   C20211472   0.757   6.235   7.260 -0.5557  0.4330 -0.0539
   36MOL   H20311473   0.785   6.416   7.372 -1.0678  1.4457 -0.4055
   36MOL   H20411474   0.625   6.597   7.385 -0.4267  2.8617 -0.5120
   36MOL   H20511475   0.439   6.708   7.287 -1.2681 -0.0779 -0.3389
   36MOL   H20611476   0.515   6.515   6.902  0.0501  0.0375  0.0894
   36MOL   H20711477   0.687   6.383   7.003  0.6568  0.1155  0.4020
   36MOL   H20811478   0.650   6.213   7.265 -0.3211 -0.0826  3.7761
   36MOL   H20911479   0.788   6.210   7.158 -1.0102  2.1782 -0.6325
   36MOL   C21011480   0.836   6.161   7.372  0.6079  0.0369  0.7465
   36MOL   C21111481   0.805   6.218   7.508  0.1660 -0.6981  0.5983
   36MOL   C21211482   0.669   6.227   7.555 -0.9356 -0.4298  0.0333
   36MOL   C21311483   0.639   6.313   7.662 -0.7572 -0.3063  0.4606
   36MOL   C21411484   0.740   6.376   7.737  0.0576  0.7889  0.2533
   36MOL  Cl21511485   0.688   6.472   7.875 -0.2057 -0.0098  0.2100
   36MOL   C21611486   0.878   6.361   7.695 -0.5511 -0.9090  0.1941
   36MOL   C21711487   0.914   6.279   7.582  0.4732 -0.3353  0.0339
   36MOL   C21811488   0.830   6.008   7.376 -0.1403 -0.0677  0.3146
   36MOL   H21911489   0.938   6.185   7.345  0.6896 -0.9378  0.1377
   36MOL   H22011490   0.590   6.189   7.491 -0.1749 -3.7860  1.0373
   36MOL   H22111491   0.534   6.329   7.685 -0.8253  0.3868 -0.3185
   36MOL   H22211492   0.949   6.420   7.751 -0.4105 -0.3815 -0.5222
   36MOL   H22311493   1.015   6.267   7.546  0.2714 -1.7947 -0.0603
   36MOL   H22411494   0.910   5.973   7.442 -1.2607 -4.8612 -0.6332
   36MOL   H22511495   0.730   5.974   7.401 -2.2233  2.1505 -4.3653
   36MOL   C22611496   0.857   5.934   7.247  0.3667 -0.1940  0.1438
   36MOL   C22711497   0.987   5.982   7.185 -0.4352 -0.1433 -0.2978
   36MOL   C22811498   0.979   6.063   7.070  0.4134 -0.4663 -0.9194
   36MOL   C22911499   1.091   6.118   7.011  0.1501 -0.4793 -0.5975
   36MOL   C23011500   1.217   6.080   7.054 -0.1138 -0.6487 -0.1686
   36MOL  Cl23111501   1.351   6.141   6.964  0.2880 -0.3719  0.1076
   36MOL   C23211502   1.233   5.991   7.167 -0.7870  0.3504  0.8627
   36MOL   C23311503   1.115   5.953   7.239 -0.2233  0.0629  0.2224
   36MOL   C23411504   0.857   5.778   7.266 -0.1026  0.2654 -0.2555
   36MOL   H23511505   0.774   5.955   7.179  0.3251 -1.3259 -0.1689
   36MOL   H23611506   0.882   6.092   7.032 -0.2959 -1.4987  0.0466
   36MOL   H23711507   1.079   6.177   6.922  0.1218  1.6415  0.7893
   36MOL   H23811508   1.336   5.983   7.200 -0.0579 -0.6600 -1.5575
   36MOL   H23911509   1.119   5.891   7.326  0.3342  1.6700  1.3584
   36MOL   H24011510   0.948   5.742   7.315  0.7960  0.1278 -1.9759
   36MOL   H24111511   0.777   5.758   7.337  0.5720  0.3864  0.5595
   36MOL   C24211512   0.833   5.695   7.139  0.0092  0.8538 -0.1142
   36MOL   C24311513   0.868   5.544   7.165 -0.1333 -0.2382 -0.0931
   36MOL   C24411514   0.864   5.480   7.291 -0.0021 -0.8022 -0.3766
   36MOL   C24511515   0.916   5.350   7.310  0.3912  0.5440  0.0508
   36MOL   C24611516   0.971   5.285   7.199 -0.2565  0.0225  0.1885
   36MOL  Cl24711517   1.051   5.138   7.224  0.1596 -0.3306 -0.4625
   36MOL   C24811518   0.977   5.349   7.072 -0.2306 -0.2394 -0.6218
   36MOL   C24911519   0.927   5.477   7.057  0.0466 -1.0359  0.0401
   36MOL   C25011520   0.687   5.704   7.084 -0.4014  0.0206 -0.7113
   36MOL   H25111521   0.894   5.735   7.058 -0.2655  0.0692 -0.7038
   36MOL   H25211522   0.815   5.526   7.376  1.9551  0.3357  0.1831
   36MOL   H25311523   0.920   5.317   7.413  0.4706  2.6477  0.7530
   36MOL   H25411524   1.033   5.291   7.000  2.0059 -1.2157  1.8109
   36MOL   H25511525   0.936   5.527   6.962  0.5544 -0.0725  0.5892
   36MOL   H25611526   0.626   5.633   7.140 -3.0202  1.1970 -2.0101
   36MOL   H25711527   0.647   5.802   7.110 -0.8902  0.3945 -2.7549
   36MOL   C25811528   0.652   5.687   6.939 -0.3465 -0.1133 -0.6860
   36MOL   C25911529   0.504   5.646   6.919  0.0025 -0.4617  0.0487
   36MOL   C26011530   0.400   5.724   6.974  0.0165  0.3789  0.1105
   36MOL   C26111531   0.270   5.692   6.940  0.2771  0.0649 -0.6125
   36MOL   C26211532   0.240   5.577   6.855 -0.3192 -0.4155 -0.2472
   36MOL  Cl26311533   0.082   5.535   6.797  0.0211 -0.1174  0.0785
   36MOL   C26411534   0.345   5.493   6.814  0.2184  0.3765 -0.0384
   36MOL   C26511535   0.477   5.526   6.849 -0.9017  0.4141 -0.4880
   36MOL   C26611536   0.685   5.813   6.857  0.5093 -0.1666  0.9232
   36MOL   H26711537   0.710   5.602   6.902  1.1355  1.5818 -2.3582
   36MOL   H26811538   0.431   5.809   7.034 -2.8311  1.2263  0.4451
   36MOL   H26911539   0.188   5.757   6.965  0.1135 -0.5219  0.3779
   36MOL   H27011540   0.316   5.404   6.762 -1.4458  0.4369  0.7579
   36MOL   H27111541   0.554   5.455   6.821 -1.8341  0.2993 -2.8767
   36MOL   H27211542   0.612   5.890   6.880 -1.1133 -1.7701  1.2781
   36MOL   H27311543   0.778   5.852   6.900  0.7763  1.3350 -0.9212
   36MOL   C27411544   0.706   5.785   6.709 -0.8778 -0.1345  0.5969
   36MOL   C27511545   0.586   5.753   6.621 -0.1925 -0.2769  0.0194
   36MOL   C27611546   0.463   5.807   6.644  0.1209 -0.3552  0.0195
   36MOL   C27711547   0.358   5.778   6.554  0.2465 -0.6084  0.0840
   36MOL   C27811548   0.374   5.691   6.445  0.1618 -0.5790  0.4215
   36MOL  Cl27911549   0.242   5.651   6.331 -0.1681  0.0586  0.0310
   36MOL   C28011550   0.499   5.641   6.423 -0.2301  0.0722 -0.2805
   36MOL   C28111551   0.604   5.670   6.510 -0.4737 -0.2384 -0.9294
   36MOL   C28211552   0.786   5.907   6.653  0.2775  0.1270 -0.1137
   36MOL   H28311553   0.767   5.695   6.707 -0.9814 -0.1934 -1.2397
   36MOL   H28411554   0.447   5.884   6.718  2.4839  0.1294  0.0491
   36MOL   H28511555   0.263   5.828   6.567  1.0499  0.8774  0.4476
   36MOL   H28611556   0.523   5.569   6.346  0.3804  0.6228 -0.6038
   36MOL   H28711557   0.707   5.641   6.493 -0.6531 -1.1369 -0.4903
   36MOL   H28811558   0.792   5.880   6.547  3.0812 -0.6464  0.1902
   36MOL   H28911559   0.716   5.989   6.668 -2.8744 -2.4257 -0.2774
   36MOL   C29011560   0.931   5.929   6.689  0.3459  0.6024 -0.0407
   36MOL   C29111561   1.010   5.800   6.706  0.0324  0.3474  0.0343
   36MOL   C29211562   1.015   5.703   6.603  0.1543  0.3571  0.0008
   36MOL   C29311563   1.086   5.581   6.629 -0.0043  0.6762 -0.2557
   36MOL   C29411564   1.153   5.562   6.751  0.0553 -0.0588  0.4494
   36MOL  Cl29511565   1.236   5.408   6.771 -0.2127  0.0795 -0.2142
   36MOL   C29611566   1.147   5.661   6.848 -0.8184 -0.0754  0.3030
   36MOL   C29711567   1.070   5.776   6.831 -0.1885  0.1856 -0.2571
   36MOL   C29811568   1.004   6.028   6.588 -0.4246 -0.4199 -0.5151
   36MOL   H29911569   0.929   5.979   6.786  0.4273  1.2832 -0.3881
   36MOL   H30011570   0.969   5.720   6.507  1.0424  0.7996 -0.3588
   36MOL   H30111571   1.084   5.512   6.546  3.8869 -1.6512  1.4787
   36MOL   H30211572   1.191   5.636   6.943  0.0752  0.4795  0.0435
   36MOL   H30311573   1.060   5.855   6.903  1.0121  1.0870 -1.0602
   36MOL   H30411574   1.102   6.033   6.635 -0.8367 -0.9386  0.4286
   36MOL   H30511575   1.018   5.981   6.491 -0.6144 -0.7700 -0.3762
   36MOL   C30611576   0.955   6.170   6.574 -1.1546 -0.7463 -0.8605
   36MOL   C30711577   1.070   6.261   6.549  0.0256 -0.6506 -1.1413
   36MOL   C30811578   1.118   6.354   6.646  0.5646  0.1964 -0.1435
   36MOL   C30911579   1.224   6.442   6.615 -0.0079  0.4431 -0.3966
   36MOL   C31011580   1.285   6.438   6.486 -0.4093  0.4151 -0.1298
   36MOL  Cl31111581   1.410   6.564   6.454  0.3181 -0.2018 -0.4051
   36MOL   C31211582   1.246   6.347   6.389  0.2223  0.3625  0.2241
   36MOL   C31311583   1.140   6.259   6.425 -0.2524 -0.5536  0.4605
   36MOL   C31411584   0.846   6.185   6.476  0.7334  0.5462 -0.1210
   36MOL   H31511585   0.928   6.199   6.676 -0.4116 -1.5747 -0.4209
   36MOL   H31611586   1.064   6.357   6.739 -1.5010 -1.3415 -1.2484
   36MOL   H31711587   1.253   6.514   6.690  2.7301 -1.6689  0.6603
   36MOL   H31811588   1.287   6.347   6.289  0.4774 -0.8501  0.3118
   36MOL   H31911589   1.116   6.191   6.345 -3.3887  0.9780  0.0559
   36MOL   H32011590   0.874   6.142   6.380 -0.0010 -0.4462  0.1061
   36MOL   H32111591   0.751   6.149   6.515  0.9644  1.2241  1.1166
   36MOL   H32211592   0.836   6.292   6.454 -0.6830  0.1018 -1.7220
   37MOL     C111593   0.344   2.739   4.467  0.3678  0.6404 -0.2540
   37MOL     C211594   0.227   2.650   4.418  0.4494  0.3006 -0.4092
   37MOL     C311595   0.219   2.602   4.286 -0.0973  0.3214  0.0673
   37MOL     C411596   0.116   2.518   4.249 -0.0558 -0.1636 -0.3485
   37MOL     C511597   0.009   2.491   4.335  0.2827 -0.7854 -0.7687
   37MOL    Cl611598   8.312   2.388   4.288 -0.2095  0.3059  0.5067
   37MOL     C711599   0.005   2.552   4.459 -0.0024 -0.1207  0.4300
   37MOL     C811600   0.114   2.628   4.500 -0.4970 -0.4100 -0.4033
   37MOL     C911601   0.401   2.712   4.604  0.2253  0.5514  0.9040
   37MOL    H1011602   0.313   2.842   4.452 -2.0736 -0.1594 -0.9335
   37MOL    H1111603   0.293   2.629   4.213 -1.7148 -0.1274 -1.7715
   37MOL    H1211604   0.113   2.476   4.150 -0.0651 -0.7329 -0.1107
   37MOL    H1311605   8.364   2.518   4.516 -0.8295 -0.4299 -0.9418
   37MOL    H1411606   0.107   2.676   4.597  0.9270 -0.1546 -0.4208
   37MOL    H1511607   0.328   2.745   4.678 -0.7923 -2.2067  1.1681
   37MOL    H1611608   0.411   2.604   4.614 -3.2689  0.0866  0.0122
   37MOL    H1711609   0.425   2.719   4.396 -0.1513  2.4077 -1.3650
   37MOL    C1811610   0.535   2.778   4.645 -0.0252 -0.4928 -0.5192
   37MOL    C1911611   0.648   2.729   4.557  0.2051 -0.1611 -0.3363
   37MOL    C2011612   0.709   2.803   4.451  0.5660  0.8965  0.1803
   37MOL    C2111613   0.819   2.753   4.382 -0.2186  0.0817  0.6255
   37MOL    C2211614   0.869   2.622   4.415 -0.1567 -0.4835 -0.0981
   37MOL   Cl2311615   1.000   2.550   4.331  0.0144 -0.0730  0.1159
   37MOL    C2411616   0.805   2.544   4.509 -0.6690 -0.0064 -0.7698
   37MOL    C2511617   0.699   2.599   4.585  0.1414  0.0825 -0.0983
   37MOL    C2611618   0.527   2.931   4.645 -0.2399  0.1931 -0.5265
   37MOL    H2711619   0.565   2.756   4.748 -0.9596  2.2669  0.4185
   37MOL    H2811620   0.671   2.897   4.414  1.9719  1.4728  0.1557
   37MOL    H2911621   0.863   2.810   4.301  1.5084  0.6379  1.9339
   37MOL    H3011622   0.842   2.447   4.538 -1.7686  0.9105  4.1091
   37MOL    H3111623   0.659   2.547   4.671  0.5149  0.2665  0.1892
   37MOL    H3211624   0.631   2.963   4.650 -0.2936  0.2501  0.2584
   37MOL    H3311625   0.486   2.951   4.546  1.4934 -0.3709 -1.3714
   37MOL    C3411626   0.443   3.008   4.753  0.4364 -0.0155  0.0556
   37MOL    C3511627   0.495   2.967   4.891  0.0970 -0.3476 -0.1548
   37MOL    C3611628   0.630   2.962   4.914 -0.4635  0.5599 -0.5050
   37MOL    C3711629   0.674   2.923   5.044 -0.3681 -0.0382 -0.0384
   37MOL    C3811630   0.581   2.899   5.146  0.3197  0.6664  0.3362
   37MOL   Cl3911631   0.633   2.865   5.308 -0.3743 -0.2435 -0.1849
   37MOL    C4011632   0.443   2.909   5.124  0.1333 -0.1798 -0.0949
   37MOL    C4111633   0.400   2.938   4.992 -0.1951 -0.0748  0.3492
   37MOL    C4211634   0.434   3.158   4.730 -0.9369 -0.0794  0.5888
   37MOL    H4311635   0.342   2.967   4.759  1.3107 -1.9701  2.0990
   37MOL    H4411636   0.705   2.977   4.838 -0.3514 -2.5877 -1.1079
   37MOL    H4511637   0.776   2.917   5.078 -0.3862 -0.8586 -0.1196
   37MOL    H4611638   0.372   2.904   5.206  0.2680 -1.9044 -0.0681
   37MOL    H4711639   0.295   2.947   4.969 -0.1711  1.5052  0.7972
   37MOL    H4811640   0.433   3.222   4.818 -1.5433  0.0190  0.5083
   37MOL    H4911641   0.524   3.181   4.672  0.2686 -0.8032  2.1249
   37MOL    C5011642   0.310   3.183   4.639 -0.3931 -0.3770 -0.0861
   37MOL    C5111643   0.179   3.153   4.707 -0.0666 -0.0778 -0.1279
   37MOL    C5211644   0.135   3.232   4.818  0.0259 -0.3725  0.2899
   37MOL    C5311645   0.018   3.192   4.886  0.1020 -0.3898 -0.0610
   37MOL    C5411646   8.391   3.075   4.839  0.0493 -0.6168 -0.1038
   37MOL   Cl5511647   8.253   3.037   4.937 -0.1292  0.6179 -0.1275
   37MOL    C5611648   8.428   3.002   4.722 -0.3622  0.2293  0.4145
   37MOL    C5711649   0.100   3.050   4.653  0.0938 -0.2496  0.9453
   37MOL    C5811650   0.302   3.329   4.585 -0.0564  0.0857  0.6284
   37MOL    H5911651   0.317   3.122   4.549 -2.2505 -0.9245  0.1237
   37MOL    H6011652   0.197   3.317   4.844  1.9049 -1.0324 -1.9270
   37MOL    H6111653   8.423   3.257   4.962  2.0454 -0.7265  1.2447
   37MOL    H6211654   8.369   2.919   4.687 -0.4549  0.1177  0.8335
   37MOL    H6311655   0.137   3.000   4.565  2.0163  1.6211  0.6473
   37MOL    H6411656   0.194   3.339   4.571  0.0481 -0.1819 -0.3742
   37MOL    H6511657   0.331   3.399   4.664  3.0762 -0.4678  0.0103
   37MOL    C6611658   0.364   3.359   4.447 -0.1361 -0.1267 -0.2717
   37MOL    C6711659   0.310   3.263   4.343  0.3130  0.3817  0.0379
   37MOL    C6811660   0.169   3.246   4.321 -0.2167  0.6522  0.1058
   37MOL    C6911661   0.119   3.152   4.229 -0.3965 -0.5912  0.0056
   37MOL    C7011662   0.206   3.085   4.146 -0.1726 -0.6565  0.6271
   37MOL   Cl7111663   0.140   2.952   4.055 -0.2606 -0.0250 -0.4367
   37MOL    C7211664   0.343   3.103   4.163  0.0026  0.6771 -0.0598
   37MOL    C7311665   0.391   3.200   4.250 -0.1190  0.3111  0.2059
   37MOL    C7411666   0.341   3.504   4.409 -0.1245 -0.1897 -0.7492
   37MOL    H7511667   0.471   3.342   4.460 -0.2281 -0.8491 -0.4500
   37MOL    H7611668   0.098   3.290   4.390 -0.2261  2.4041 -0.9751
   37MOL    H7711669   0.015   3.125   4.220  0.1633 -1.9887 -2.9631
   37MOL    H7811670   0.421   3.046   4.114 -0.9504 -1.3870  0.7621
   37MOL    H7911671   0.499   3.208   4.253 -0.0170 -0.7501 -0.3175
   37MOL    H8011672   0.236   3.527   4.423  0.1651  1.2268 -0.8327
   37MOL    H8111673   0.405   3.567   4.470 -1.3690  0.8200 -0.4795
   37MOL    C8211674   0.361   3.537   4.256  1.0088 -0.4757  0.7087
   37MOL    C8311675   0.304   3.672   4.221  0.0890  0.2192  0.5474
   37MOL    C8411676   0.163   3.691   4.199 -0.3349 -0.0505 -0.1977
   37MOL    C8511677   0.119   3.821   4.174  0.2578 -0.0281 -0.6589
   37MOL    C8611678   0.197   3.933   4.170  0.1156 -0.1256  0.3742
   37MOL   Cl8711679   0.129   4.092   4.168 -0.0889 -0.1914  0.1606
   37MOL    C8811680   0.337   3.916   4.178 -0.4911 -0.6693 -0.6943
   37MOL    C8911681   0.386   3.788   4.207  0.4335  0.0292 -0.2054
   37MOL    C9011682   0.504   3.517   4.206 -0.0744 -1.4742 -0.1317
   37MOL    H9111683   0.301   3.466   4.199 -0.2630  1.4414 -0.3837
   37MOL    H9211684   0.090   3.612   4.205  0.4775 -0.8066 -0.1828
   37MOL    H9311685   0.014   3.830   4.153  0.2458 -1.9631 -1.5002
   37MOL    H9411686   0.404   3.997   4.153 -0.0846 -1.4734 -2.2910
   37MOL    H9511687   0.493   3.789   4.222  0.5698 -3.3931 -0.6131
   37MOL    H9611688   0.562   3.598   4.248 -1.0394 -0.6523 -0.3645
   37MOL    H9711689   0.546   3.421   4.234 -1.6401 -2.3127 -0.5754
   37MOL    C9811690   0.526   3.535   4.052  0.1704  0.1950 -0.5955
   37MOL    C9911691   0.664   3.583   4.014 -0.0126 -0.2239  0.7789
   37MOL   C10011692   0.676   3.687   3.924  0.3007 -0.0737 -0.0900
   37MOL   C10111693   0.803   3.722   3.880  0.1104 -0.0354 -0.0571
   37MOL   C10211694   0.921   3.657   3.928  0.3115  0.2022 -0.2672
   37MOL  Cl10311695   1.085   3.713   3.886 -0.3294  0.1693  0.0976
   37MOL   C10411696   0.908   3.556   4.023 -0.0026 -0.5953 -0.2505
   37MOL   C10511697   0.780   3.516   4.063  0.8419  0.0658 -0.8433
   37MOL   C10611698   0.473   3.407   3.974 -0.2361 -0.0901 -0.7022
   37MOL   H10711699   0.461   3.618   4.023 -0.8177 -0.6671 -0.8619
   37MOL   H10811700   0.589   3.729   3.876 -0.4078  1.2529  2.2672
   37MOL   H10911701   0.821   3.801   3.809 -2.4245  0.8657  0.2454
   37MOL   H11011702   0.994   3.507   4.066  1.6695  1.9715 -0.5836
   37MOL   H11111703   0.769   3.428   4.125 -0.5217  0.5015 -0.4523
   37MOL   H11211704   0.554   3.334   3.983  0.6669  1.2599  2.7572
   37MOL   H11311705   0.400   3.355   4.037  0.9504  1.1662  1.7719
   37MOL   C11411706   0.432   3.418   3.829 -0.0107  0.1841 -0.8849
   37MOL   C11511707   0.389   3.282   3.767  0.2845  0.7310 -0.4525
   37MOL   C11611708   0.461   3.236   3.656 -0.3800  0.0962  0.0248
   37MOL   C11711709   0.417   3.116   3.595 -0.0245 -0.6441  0.5562
   37MOL   C11811710   0.312   3.045   3.650 -0.1268  0.3238 -0.1590
   37MOL  Cl11911711   0.259   2.896   3.580 -0.1494 -0.1046 -0.2076
   37MOL   C12011712   0.234   3.096   3.755 -0.2662  0.3465 -0.2951
   37MOL   C12111713   0.275   3.213   3.820  0.5473  0.0469  0.1230
   37MOL   C12211714   0.306   3.519   3.834  0.1609 -0.2643 -0.9948
   37MOL   H12311715   0.521   3.457   3.780  1.1757  0.0582  1.1350
   37MOL   H12411716   0.546   3.288   3.614 -0.7595  2.5966  2.2424
   37MOL   H12511717   0.466   3.072   3.510  0.4376  0.2682  0.3422
   37MOL   H12611718   0.138   3.054   3.781  0.0875 -0.1336  0.2659
   37MOL   H12711719   0.215   3.254   3.901 -0.5780 -1.2652 -0.0296
   37MOL   H12811720   0.241   3.479   3.911  2.6501 -0.1665  1.2325
   37MOL   H12911721   0.320   3.619   3.875  1.0932 -0.9462  0.3960
   37MOL   C13011722   0.240   3.545   3.696  0.3400 -0.0566  0.2795
   37MOL   C13111723   0.097   3.586   3.720  0.0134 -0.2278  0.1167
   37MOL   C13211724   0.060   3.696   3.807 -0.4918 -0.1505  0.6600
   37MOL   C13311725   8.368   3.713   3.846  0.4687 -0.6389  0.7955
   37MOL   C13411726   8.270   3.627   3.790 -0.6911  0.5639 -0.2201
   37MOL  Cl13511727   8.108   3.650   3.836 -0.0336 -0.2299 -0.0146
   37MOL   C13611728   8.304   3.527   3.701  0.9187 -0.0550 -0.0147
   37MOL   C13711729   8.439   3.502   3.671  0.3515  0.6279 -0.0777
   37MOL   C13811730   0.324   3.652   3.618 -0.1773  0.5187 -1.0972
   37MOL   H13911731   0.233   3.444   3.656 -2.9144 -0.6094  2.0603
   37MOL   H14011732   0.138   3.761   3.843 -0.7687  1.5499 -1.6947
   37MOL   H14111733   8.337   3.799   3.903 -0.5206 -0.6414  0.2678
   37MOL   H14211734   8.230   3.457   3.663  1.1518 -0.6558  0.6368
   37MOL   H14311735   0.020   3.412   3.617  2.6362  1.5809 -0.6962
   37MOL   H14411736   0.264   3.722   3.561 -1.4033  0.2804 -0.1097
   37MOL   H14511737   0.365   3.721   3.691  0.4803  0.1684 -1.1231
   37MOL   C14611738   0.427   3.595   3.523 -0.5094 -0.6125 -0.3706
   37MOL   C14711739   0.384   3.606   3.378  0.1522  0.0178  0.2811
   37MOL   C14811740   0.333   3.486   3.325 -0.1000  0.5353  0.2484
   37MOL   C14911741   0.309   3.479   3.183  0.5096  0.9850 -0.3309
   37MOL   C15011742   0.327   3.598   3.105  1.1995  0.4368  0.2987
   37MOL  Cl15111743   0.268   3.585   2.946 -0.4376  0.1310  0.5532
   37MOL   C15211744   0.373   3.715   3.161  0.6970 -0.0564 -0.0515
   37MOL   C15311745   0.409   3.720   3.296  0.6992 -0.2840  0.0687
   37MOL   C15411746   0.574   3.645   3.543 -1.4778 -0.1275  0.8671
   37MOL   H15511747   0.426   3.487   3.541 -0.5764 -0.9141 -2.0343
   37MOL   H15611748   0.323   3.395   3.383  0.9440  0.7648  0.7999
   37MOL   H15711749   0.263   3.389   3.145  1.4662  0.2048  0.3385
   37MOL   H15811750   0.381   3.799   3.093  2.4026  0.1077  0.3327
   37MOL   H15911751   0.446   3.810   3.342  0.1038  0.1956 -0.3920
   37MOL   H16011752   0.576   3.754   3.540  1.3455 -0.1491  0.1342
   37MOL   H16111753   0.613   3.614   3.640  1.2873  1.2361  0.2421
   37MOL   C16211754   0.675   3.604   3.426  0.0328 -0.3810 -0.6537
   37MOL   C16311755   0.809   3.677   3.452 -0.1358  0.2053  0.6906
   37MOL   C16411756   0.838   3.801   3.394  0.0708 -0.3184 -0.0850
   37MOL   C16511757   0.965   3.866   3.405 -0.2737  0.0672  1.6455
   37MOL   C16611758   1.071   3.791   3.469 -0.3318 -0.0924  0.6947
   37MOL  Cl16711759   1.219   3.876   3.488 -0.3047 -0.4366  0.5423
   37MOL   C16811760   1.039   3.668   3.532 -0.0212  0.5511 -0.4343
   37MOL   C16911761   0.906   3.615   3.523 -0.2799  0.0047 -0.6010
   37MOL   C17011762   0.676   3.452   3.396  0.4879  0.3250 -0.5699
   37MOL   H17111763   0.633   3.659   3.342 -2.4245 -2.1283 -0.6013
   37MOL   H17211764   0.753   3.844   3.343  0.8432  0.6251 -0.6029
   37MOL   H17311765   0.986   3.961   3.358 -0.1321  0.4518  2.4741
   37MOL   H17411766   1.108   3.614   3.597  0.4257  0.1207 -1.2595
   37MOL   H17511767   0.889   3.513   3.557 -0.7280 -0.0804 -1.0689
   37MOL   H17611768   0.692   3.403   3.492 -0.0534  2.0655  0.4328
   37MOL   H17711769   0.578   3.417   3.362  1.3550 -0.3941 -2.4114
   37MOL   C17811770   0.772   3.411   3.285 -0.0390  0.2092 -0.0617
   37MOL   C17911771   0.809   3.260   3.311  0.0929 -0.2787  0.6104
   37MOL   C18011772   0.715   3.155   3.312  0.3314  0.2848  0.7145
   37MOL   C18111773   0.760   3.026   3.299  0.7339 -0.0790  0.3606
   37MOL   C18211774   0.895   2.990   3.285  0.2221  0.4687  0.2408
   37MOL  Cl18311775   0.935   2.822   3.275 -0.4193 -0.6192 -0.2418
   37MOL   C18411776   0.989   3.103   3.276  0.7675  0.0311  0.6228
   37MOL   C18511777   0.949   3.233   3.296 -0.4190 -0.4492  0.0048
   37MOL   C18611778   0.712   3.438   3.147  0.2259 -0.1107 -0.0734
   37MOL   H18711779   0.864   3.464   3.311 -0.2682  0.5143  0.1253
   37MOL   H18811780   0.610   3.180   3.313  0.4997  0.9985  2.0109
   37MOL   H18911781   0.681   2.953   3.299 -0.0242  0.7291 -0.2447
   37MOL   H19011782   1.089   3.083   3.243  1.3765  3.4609  0.1992
   37MOL   H19111783   1.016   3.316   3.284 -1.8224  0.8318  0.8332
   37MOL   H19211784   0.640   3.357   3.141 -0.0085 -0.0616  1.6857
   37MOL   H19311785   0.655   3.531   3.154 -0.3155 -0.5080  0.8943
   37MOL   C19411786   0.814   3.453   3.036  0.3714 -0.0502  0.3874
   37MOL   C19511787   0.749   3.437   2.898 -0.0139 -0.4623  0.1953
   37MOL   C19611788   0.649   3.520   2.858  0.4383  0.2188  0.0794
   37MOL   C19711789   0.588   3.503   2.731  0.1271 -0.1533  0.7336
   37MOL   C19811790   0.627   3.401   2.641 -0.1966  0.6429  0.3235
   37MOL  Cl19911791   0.544   3.371   2.483  0.1575 -0.0793 -0.4195
   37MOL   C20011792   0.738   3.323   2.678  0.0985 -0.3716  0.6030
   37MOL   C20111793   0.794   3.344   2.807 -0.0661  0.1086 -0.5126
   37MOL   C20211794   0.887   3.589   3.044  0.0362 -0.0759  0.1741
   37MOL   H20311795   0.891   3.376   3.049  0.6480 -0.3096 -2.4287
   37MOL   H20411796   0.607   3.592   2.928 -2.8958 -1.4916 -0.0565
   37MOL   H20511797   0.507   3.573   2.714  0.6633 -0.1846 -2.2315
   37MOL   H20611798   0.783   3.251   2.611  0.5857 -0.3493  0.9027
   37MOL   H20711799   0.873   3.281   2.844 -0.4842 -0.5691 -0.7673
   37MOL   H20811800   0.819   3.673   3.026  0.0956 -0.0485  0.0794
   37MOL   H20911801   0.903   3.611   3.150 -0.5130  0.8860  0.0687
   37MOL   C21011802   1.026   3.595   2.967 -0.3894  0.2410  0.2347
   37MOL   C21111803   1.011   3.603   2.818 -0.4796 -0.3888 -0.1076
   37MOL   C21211804   0.934   3.710   2.764  0.1399 -0.2855 -0.4269
   37MOL   C21311805   0.911   3.719   2.628 -0.1378 -0.3085 -0.2522
   37MOL   C21411806   0.971   3.625   2.542 -0.1282 -0.5063  0.1287
   37MOL  Cl21511807   0.960   3.645   2.371 -0.1147 -0.3986 -0.4067
   37MOL   C21611808   1.039   3.513   2.597 -0.2386  0.0473 -0.4827
   37MOL   C21711809   1.054   3.504   2.736  0.1020  0.5007  0.1849
   37MOL   C21811810   1.129   3.691   3.020 -0.8768 -0.3039  0.0644
   37MOL   H21911811   1.064   3.495   2.991  0.1480  0.1597 -0.8977
   37MOL   H22011812   0.897   3.786   2.832  2.4877 -1.0042  1.7185
   37MOL   H22111813   0.856   3.795   2.574 -0.2575 -0.5682 -0.4975
   37MOL   H22211814   1.081   3.439   2.530  1.3167  0.1545  0.3411
   37MOL   H22311815   1.103   3.417   2.780 -1.2263  0.6949  2.1230
   37MOL   H22411816   1.087   3.791   3.007 -2.1691 -0.9688 -0.9979
   37MOL   H22511817   1.140   3.670   3.126 -0.6963  0.7118  0.2538
   37MOL   C22611818   1.273   3.686   2.977 -0.6454  0.6588 -0.3883
   37MOL   C22711819   1.353   3.788   3.053 -0.0385 -0.6391  0.2322
   37MOL   C22811820   1.391   3.912   2.990  0.6331  0.6349  0.3513
   37MOL   C22911821   1.441   4.026   3.057 -0.6651 -0.3765  0.2324
   37MOL   C23011822   1.495   4.002   3.188  0.1600  0.5557 -0.8278
   37MOL  Cl23111823   1.580   4.126   3.271  0.2254 -0.0905  0.2336
   37MOL   C23211824   1.471   3.878   3.252 -0.2994 -0.7814 -0.2731
   37MOL   C23311825   1.403   3.776   3.185 -0.5329  0.0186 -0.1053
   37MOL   C23411826   1.334   3.539   2.995 -0.6299 -0.1747 -0.2327
   37MOL   H23511827   1.276   3.715   2.872 -0.8226 -0.9387 -0.8563
   37MOL   H23611828   1.370   3.933   2.886 -1.1144  0.1693  0.5996
   37MOL   H23711829   1.455   4.116   3.001 -1.2196 -0.9573 -0.8486
   37MOL   H23811830   1.516   3.866   3.350 -0.3310 -0.6044 -0.2366
   37MOL   H23911831   1.387   3.682   3.235 -0.3408  0.1921  0.2877
   37MOL   H24011832   1.310   3.505   3.096 -1.0003 -3.1956 -1.2826
   37MOL   H24111833   1.282   3.467   2.933 -0.7440 -0.7945  0.5663
   37MOL   C24211834   1.497   3.531   2.971  0.0414 -0.5345 -0.0778
   37MOL   C24311835   1.577   3.434   3.064 -0.0025  0.0504  0.7489
   37MOL   C24411836   1.641   3.478   3.179 -0.0285 -0.2767 -0.4160
   37MOL   C24511837   1.709   3.400   3.274 -0.3044 -0.4018 -0.6378
   37MOL   C24611838   1.732   3.270   3.237 -0.2124 -0.7296 -0.0681
   37MOL  Cl24711839   1.827   3.172   3.343 -0.1534  0.0029  0.2319
   37MOL   C24811840   1.668   3.215   3.126  0.1793  0.1016  0.0472
   37MOL   C24911841   1.587   3.296   3.040 -0.4185 -0.5266 -0.4474
   37MOL   C25011842   1.525   3.512   2.822  0.1976 -0.0237 -0.2692
   37MOL   H25111843   1.534   3.629   3.001 -0.2625  0.4345 -2.7730
   37MOL   H25211844   1.625   3.582   3.202 -1.3095 -0.5130 -0.2210
   37MOL   H25311845   1.743   3.437   3.369 -0.2084  1.0133 -1.2124
   37MOL   H25411846   1.688   3.111   3.105  0.2580  0.0548  0.3512
   37MOL   H25511847   1.537   3.247   2.958  1.0469 -2.1035 -0.4208
   37MOL   H25611848   1.482   3.416   2.795 -1.9873  1.2608 -1.5177
   37MOL   H25711849   1.456   3.576   2.766 -0.7638 -1.1937 -0.4275
   37MOL   C25811850   1.672   3.533   2.778 -1.0035 -0.0103 -0.8284
   37MOL   C25911851   1.701   3.430   2.675 -0.6448  0.2117  0.0075
   37MOL   C26011852   1.652   3.446   2.541  0.1258  0.0774 -0.2055
   37MOL   C26111853   1.697   3.368   2.432 -0.1932 -0.8243  0.0473
   37MOL   C26211854   1.785   3.264   2.457  0.2185 -0.1794  0.4423
   37MOL  Cl26311855   1.833   3.169   2.331  0.0188 -0.3066 -0.4357
   37MOL   C26411856   1.837   3.244   2.587  0.6602  0.1128  0.3137
   37MOL   C26511857   1.795   3.328   2.693 -0.0546 -0.2355 -0.0218
   37MOL   C26611858   1.706   3.675   2.733  0.1996  0.5931 -0.0574
   37MOL   H26711859   1.727   3.513   2.870  0.2148  0.6644 -1.3967
   37MOL   H26811860   1.589   3.532   2.526 -0.0992  0.1628  1.1672
   37MOL   H26911861   1.657   3.373   2.332  1.4549  0.1052 -0.5993
   37MOL   H27011862   1.914   3.171   2.603  0.9550  0.4714  0.5313
   37MOL   H27111863   1.835   3.318   2.793 -0.8263  1.1389  0.4275
   37MOL   H27211864   1.645   3.700   2.646 -1.7223  0.7326  1.2907
   37MOL   H27311865   1.657   3.738   2.806  0.5900  0.9511 -0.1060
   37MOL   C27411866   1.856   3.713   2.714  0.1419 -1.0477  0.1141
   37MOL   C27511867   1.936   3.638   2.608  0.0095  0.3366  0.2586
   37MOL   C27611868   2.035   3.542   2.646  0.0937 -0.7399 -0.2232
   37MOL   C27711869   2.108   3.469   2.548 -0.0361  0.2020  0.5677
   37MOL   C27811870   2.072   3.492   2.416 -0.5996 -0.1851 -0.2229
   37MOL  Cl27911871   2.157   3.404   2.294  0.1568  0.2627 -0.2784
   37MOL   C28011872   1.967   3.582   2.371  0.2751  1.4283  0.2917
   37MOL   C28111873   1.899   3.649   2.471  0.3700  0.4205  1.1760
   37MOL   C28211874   1.891   3.859   2.704 -0.1938 -0.3240 -0.2050
   37MOL   H28311875   1.898   3.670   2.805  1.0844 -0.1464  0.1153
   37MOL   H28411876   2.060   3.537   2.751 -0.2309  4.6866  0.2447
   37MOL   H28511877   2.189   3.402   2.572 -0.2218 -0.5338 -0.7928
   37MOL   H28611878   1.959   3.606   2.266 -0.4989  1.9985  0.4815
   37MOL   H28711879   1.826   3.721   2.437 -1.4990 -2.2298 -0.7009
   37MOL   H28811880   1.999   3.865   2.690  0.1132 -0.2891  1.9979
   37MOL   H28911881   1.837   3.903   2.619 -0.4510 -0.5294 -0.1477
   37MOL   C29011882   1.865   3.946   2.837 -1.3704  0.4138 -0.3451
   37MOL   C29111883   1.923   3.881   2.964 -0.1628 -0.9605  0.3011
   37MOL   C29211884   2.061   3.865   2.982 -0.3953 -0.7511 -0.4542
   37MOL   C29311885   2.109   3.811   3.101  0.0218  0.2096  0.1375
   37MOL   C29411886   2.020   3.759   3.198 -0.3139  0.7761  0.3821
   37MOL  Cl29511887   2.078   3.704   3.351  0.3379  0.0028 -0.1319
   37MOL   C29611888   1.882   3.766   3.176  0.0665 -0.4756  0.0213
   37MOL   C29711889   1.840   3.835   3.062 -0.6245  0.7308  0.0901
   37MOL   C29811890   1.900   4.091   2.817  0.0062 -0.6614 -0.4033
   37MOL   H29911891   1.760   3.946   2.864 -1.3451  2.0465 -0.2141
   37MOL   H30011892   2.126   3.904   2.904 -1.1303  0.1601 -0.6138
   37MOL   H30111893   2.215   3.801   3.115  0.0522  0.4744  0.1009
   37MOL   H30211894   1.814   3.723   3.248  0.0490 -0.2361  0.1466
   37MOL   H30311895   1.733   3.849   3.049 -1.0228 -1.7988  0.3396
   37MOL   H30411896   2.009   4.088   2.805 -0.0277 -2.3375 -0.4062
   37MOL   H30511897   1.839   4.117   2.731 -3.1302 -1.5169  1.4844
   37MOL   C30611898   1.876   4.196   2.927  0.0868 -0.8555  0.1347
   37MOL   C30711899   1.932   4.334   2.891 -0.0841  0.0808  0.4959
   37MOL   C30811900   1.875   4.409   2.791  0.3292 -0.5735  0.1496
   37MOL   C30911901   1.911   4.545   2.770 -0.6086  0.0697  0.5696
   37MOL   C31011902   2.007   4.598   2.846 -0.2084 -0.6937 -0.1204
   37MOL  Cl31111903   2.071   4.752   2.810 -0.4828  0.3664  0.2648
   37MOL   C31211904   2.073   4.521   2.943  0.3897  0.5798  0.4855
   37MOL   C31311905   2.035   4.390   2.969  0.2010 -0.1118 -0.0703
   37MOL   C31411906   1.734   4.214   2.962  0.0101  0.6176 -0.1593
   37MOL   H31511907   1.933   4.157   3.011  1.7729  2.1320  0.4618
   37MOL   H31611908   1.800   4.363   2.728  1.0293 -0.3329 -0.8676
   37MOL   H31711909   1.856   4.590   2.688 -0.9359 -2.1556 -0.4560
   37MOL   H31811910   2.153   4.578   2.987  2.8523  0.1270 -3.2307
   37MOL   H31911911   2.086   4.332   3.044  3.2297  0.6096 -1.4770
   37MOL   H32011912   1.736   4.300   3.028 -0.6718  1.9738 -1.8662
   37MOL   H32111913   1.674   4.224   2.871 -1.1645  0.6043  0.6045
   37MOL   H32211914   1.710   4.124   3.019  0.0030 -0.7051 -2.1596
   38MOL     C111915   6.951   2.070   5.825  0.2673 -0.3392  0.1463
   38MOL     C211916   6.938   2.075   5.676  0.0645  0.1037  0.2813
   38MOL     C311917   6.814   2.064   5.613 -0.2930 -0.1809 -0.2080
   38MOL     C411918   6.805   2.077   5.475 -0.5327 -0.0805 -1.3313
   38MOL     C511919   6.917   2.101   5.395 -0.6990 -0.1211  0.2261
   38MOL    Cl611920   6.906   2.135   5.226 -0.3079 -0.2853  0.3198
   38MOL     C711921   7.042   2.120   5.457 -0.5999  0.0766  0.4148
   38MOL     C811922   7.050   2.098   5.594 -0.6492  0.0236  0.2540
   38MOL     C911923   7.025   1.941   5.880 -0.3294  0.1235 -0.3471
   38MOL    H1011924   6.856   2.076   5.879  0.2932 -0.6316  0.2276
   38MOL    H1111925   6.726   2.046   5.674 -2.1688 -2.0684 -3.3412
   38MOL    H1211926   6.705   2.067   5.434 -1.6521  0.1037  1.2657
   38MOL    H1311927   7.127   2.141   5.392  0.0879 -0.7425  1.0375
   38MOL    H1411928   7.141   2.111   5.650  0.2468  0.3167 -1.2444
   38MOL    H1511929   7.133   1.934   5.863 -0.4476 -0.4966 -0.8821
   38MOL    H1611930   7.027   1.960   5.987  1.1617 -1.2032 -0.1209
   38MOL    H1711931   7.006   2.153   5.868  0.6750 -0.2044 -0.6325
   38MOL    C1811932   6.952   1.807   5.849 -0.0322  0.7627  0.3757
   38MOL    C1911933   6.809   1.811   5.904 -0.6541  0.1577  0.0959
   38MOL    C2011934   6.793   1.820   6.047  0.0728  0.3406 -0.2295
   38MOL    C2111935   6.663   1.820   6.103 -0.1160 -0.3006 -0.7805
   38MOL    C2211936   6.551   1.820   6.022  0.4064  1.1172 -0.1329
   38MOL   Cl2311937   6.396   1.815   6.102  0.2612 -0.5968  0.0077
   38MOL    C2411938   6.560   1.819   5.880 -0.2042  0.4601  0.3952
   38MOL    C2511939   6.689   1.809   5.824 -0.1892 -0.0492  0.6713
   38MOL    C2611940   6.980   1.755   5.705  0.0792 -0.7130  0.1492
   38MOL    H2711941   6.998   1.729   5.910 -0.6657 -1.1240 -1.4530
   38MOL    H2811942   6.886   1.824   6.101  1.2523 -0.4621 -2.1381
   38MOL    H2911943   6.648   1.818   6.209 -1.5417  2.9765 -0.8900
   38MOL    H3011944   6.475   1.822   5.814  0.2522 -0.0114 -0.2199
   38MOL    H3111945   6.705   1.791   5.718  2.6612 -0.7801  1.1853
   38MOL    H3211946   6.916   1.808   5.634  2.2277 -0.5521 -1.7245
   38MOL    H3311947   7.080   1.783   5.670 -0.3500  2.0453  0.9817
   38MOL    C3411948   6.955   1.601   5.686  0.3551 -0.1276  0.2999
   38MOL    C3511949   6.931   1.568   5.538 -0.3457 -0.0386  0.4983
   38MOL    C3611950   6.819   1.482   5.504 -0.2088 -0.3841  0.2608
   38MOL    C3711951   6.809   1.449   5.367  0.0112 -0.6340  0.3727
   38MOL    C3811952   6.906   1.489   5.270  0.1776  0.0538  0.4818
   38MOL   Cl3911953   6.902   1.452   5.101  0.6906  0.3479 -0.0376
   38MOL    C4011954   7.019   1.570   5.307  0.8185 -0.2016  0.0491
   38MOL    C4111955   7.027   1.611   5.441  0.3045 -0.1132  0.1352
   38MOL    C4211956   7.073   1.517   5.745 -0.0396 -0.4325  0.9024
   38MOL    H4311957   6.864   1.572   5.739  0.6221  0.3203  1.0196
   38MOL    H4411958   6.758   1.449   5.588  0.6323  1.4165  1.6148
   38MOL    H4511959   6.733   1.380   5.334  1.5810 -2.8082  1.1587
   38MOL    H4611960   7.097   1.591   5.236  1.6159  0.1642  1.0208
   38MOL    H4711961   7.091   1.693   5.469 -1.6634  1.7640 -0.6492
   38MOL    H4811962   7.159   1.561   5.696 -1.7796 -0.0742 -1.9440
   38MOL    H4911963   7.094   1.530   5.851  0.4219 -1.1596  0.9027
   38MOL    C5011964   7.078   1.362   5.715 -0.2835  0.3751 -0.1812
   38MOL    C5111965   7.212   1.302   5.761 -0.3143  0.2911  0.4818
   38MOL    C5211966   7.244   1.310   5.900 -0.2433  0.6839  0.2244
   38MOL    C5311967   7.372   1.272   5.951  0.3905 -0.4176 -0.4685
   38MOL    C5411968   7.480   1.242   5.862  0.3037  0.2578  0.2422
   38MOL   Cl5511969   7.641   1.218   5.921  0.1395  0.6334 -0.1280
   38MOL    C5611970   7.448   1.226   5.725 -0.2376 -0.1187 -0.4811
   38MOL    C5711971   7.317   1.255   5.674  0.0214 -0.1415  0.5291
   38MOL    C5811972   6.950   1.291   5.791 -0.1194  0.4750 -0.5418
   38MOL    H5911973   7.074   1.353   5.606  1.5769  0.8180 -0.3049
   38MOL    H6011974   7.181   1.353   5.977 -0.1324  2.0429 -0.4269
   38MOL    H6111975   7.391   1.283   6.057 -2.3109 -0.2698  0.0340
   38MOL    H6211976   7.524   1.178   5.665  0.2662 -1.7634  1.4026
   38MOL    H6311977   7.298   1.243   5.568 -0.7820 -2.3052  0.8925
   38MOL    H6411978   6.977   1.273   5.895  0.7089  1.5000 -0.5631
   38MOL    H6511979   6.861   1.354   5.783 -1.0102 -0.3295  2.4934
   38MOL    C6611980   6.894   1.169   5.718 -0.6086  0.4093  0.3986
   38MOL    C6711981   7.002   1.073   5.674 -0.2622  0.2261  0.5153
   38MOL    C6811982   7.009   1.019   5.540 -0.5194  0.1635  0.4642
   38MOL    C6911983   7.119   0.935   5.508 -0.0239  0.0720 -0.5357
   38MOL    C7011984   7.203   0.895   5.604 -0.5316 -0.5560 -0.1872
   38MOL   Cl7111985   7.349   0.811   5.573  0.3666 -0.1830  0.3318
   38MOL    C7211986   7.190   0.938   5.738  0.2334 -0.1376 -0.5974
   38MOL    C7311987   7.093   1.031   5.772 -0.6783 -0.5041  0.6457
   38MOL    C7411988   6.779   1.110   5.801 -0.2651  0.2939 -0.1186
   38MOL    H7511989   6.840   1.203   5.630 -0.7493  2.9872  1.4304
   38MOL    H7611990   6.936   1.057   5.469 -0.6051  1.3279  1.1663
   38MOL    H7711991   7.133   0.897   5.408  0.0212  1.0600 -0.9161
   38MOL    H7811992   7.274   0.916   5.803  2.0349  0.5038 -2.6304
   38MOL    H7911993   7.084   1.070   5.872 -0.1566  1.0309  0.1042
   38MOL    H8011994   6.813   1.071   5.896 -0.8698 -2.3074 -0.9137
   38MOL    H8111995   6.706   1.189   5.818 -0.8645  0.1882 -1.9974
   38MOL    C8211996   6.697   0.993   5.732  0.0767  0.4343  0.1471
   38MOL    C8311997   6.751   0.850   5.765 -0.1401 -0.6247  0.0192
   38MOL    C8411998   6.744   0.799   5.902 -0.1785 -0.4953  0.3722
   38MOL    C8511999   6.790   0.667   5.930 -0.2370  0.2932  0.5611
   38MOL    C8612000   6.817   0.584   5.818  0.3147 -0.2795 -0.4049
   38MOL   Cl8712001   6.854   0.420   5.859  0.1137 -0.3658  0.4705
   38MOL    C8812002   6.804   0.629   5.683  0.3791  0.3166 -0.4501
   38MOL    C8912003   6.785   0.761   5.660  0.3399 -0.0991  0.2909
   38MOL    C9012004   6.545   1.012   5.769  0.3391  0.4895  0.1907
   38MOL    H9112005   6.701   1.005   5.624 -3.9282 -0.0743 -0.1623
   38MOL    H9212006   6.713   0.865   5.981 -1.2050  0.1957 -0.5825
   38MOL    H9312007   6.799   0.626   6.030 -3.0465 -0.7308  0.4198
   38MOL    H9412008   6.841   0.566   5.604  0.5490  1.9457 -1.6918
   38MOL    H9512009   6.798   0.780   5.555  0.3212  2.7782  0.7768
   38MOL    H9612010   6.498   0.914   5.761 -0.2776  0.8261 -0.3244
   38MOL    H9712011   6.526   1.033   5.875  0.4984 -0.0646  0.3294
   38MOL    C9812012   6.474   1.121   5.680 -0.2746 -0.5550  0.2220
   38MOL    C9912013   6.480   1.081   5.538 -0.0131 -0.1919  0.2634
   38MOL   C10012014   6.449   0.955   5.489  0.2253  0.4228  0.2021
   38MOL   C10112015   6.450   0.927   5.354  0.2264  0.5381 -0.5098
   38MOL   C10212016   6.491   1.026   5.262 -0.0283 -0.0261 -0.3485
   38MOL  Cl10312017   6.463   1.002   5.092 -0.3990  0.0428 -0.1799
   38MOL   C10412018   6.534   1.157   5.309 -0.6218  0.3330 -0.5163
   38MOL   C10512019   6.534   1.174   5.445  0.5243 -0.4847 -0.1569
   38MOL   C10612020   6.318   1.130   5.727  0.7426 -0.1518  0.2436
   38MOL   H10712021   6.525   1.215   5.699  1.5619 -1.0867 -1.8307
   38MOL   H10812022   6.419   0.869   5.547 -0.7299  1.7544  1.7227
   38MOL   H10912023   6.408   0.834   5.320 -2.8264  1.5505  0.2528
   38MOL   H11012024   6.577   1.228   5.238 -0.6164 -0.2009 -1.0521
   38MOL   H11112025   6.577   1.268   5.474  0.9961 -0.9996  0.8347
   38MOL   H11212026   6.277   1.040   5.681  1.0152  0.3554 -1.0166
   38MOL   H11312027   6.292   1.108   5.830 -0.7428  0.1129 -0.0663
   38MOL   C11412028   6.232   1.251   5.679  0.3659 -0.3404  0.4564
   38MOL   C11512029   6.081   1.213   5.690  0.0171 -0.5922  0.1430
   38MOL   C11612030   5.990   1.228   5.585  0.5126 -0.6793  0.0152
   38MOL   C11712031   5.853   1.192   5.603 -0.4828 -0.6345  0.1316
   38MOL   C11812032   5.805   1.141   5.723  0.6930  0.0266 -0.3573
   38MOL  Cl11912033   5.637   1.084   5.731  0.2453 -0.3339  0.2654
   38MOL   C12012034   5.898   1.115   5.823 -0.7311  0.7712 -0.0858
   38MOL   C12112035   6.034   1.149   5.813 -0.0260  0.3682  0.3048
   38MOL   C12212036   6.266   1.387   5.743 -0.2216 -0.2455  0.3712
   38MOL   H12312037   6.256   1.262   5.574 -1.7108  0.1866  0.0192
   38MOL   H12412038   6.033   1.256   5.490 -1.8274 -0.5833 -1.0409
   38MOL   H12512039   5.784   1.208   5.522  0.9496 -0.2659 -1.0462
   38MOL   H12612040   5.864   1.063   5.912  1.1766 -1.9235 -0.8484
   38MOL   H12712041   6.096   1.125   5.897 -0.7632 -1.5945  0.3093
   38MOL   H12812042   6.234   1.380   5.847  0.0909  0.3015  0.5080
   38MOL   H12912043   6.372   1.378   5.763 -0.1757 -2.0555 -0.6408
   38MOL   C13012044   6.216   1.515   5.674 -0.4186  0.5449  0.3671
   38MOL   C13112045   6.289   1.539   5.534 -0.0023 -0.4866 -0.5021
   38MOL   C13212046   6.218   1.504   5.414  0.1018 -0.5025  0.0004
   38MOL   C13312047   6.293   1.515   5.291  0.2666  0.7851 -0.6721
   38MOL   C13412048   6.428   1.560   5.292  1.0726  0.2672  0.1990
   38MOL  Cl13512049   6.515   1.572   5.143  0.1122  0.6323 -0.1895
   38MOL   C13612050   6.501   1.584   5.414 -0.0765  0.6480  0.0791
   38MOL   C13712051   6.427   1.561   5.533  0.3840  0.4471 -0.2867
   38MOL   C13812052   6.071   1.545   5.683  0.0881 -0.2200  0.3451
   38MOL   H13912053   6.263   1.596   5.729  0.1040  0.5053 -0.0179
   38MOL   H14012054   6.114   1.481   5.401  0.3033 -1.4911  0.0726
   38MOL   H14112055   6.248   1.490   5.196  1.3253 -0.7606 -0.7851
   38MOL   H14212056   6.608   1.600   5.412  0.3818 -2.1630 -1.3832
   38MOL   H14312057   6.477   1.565   5.629 -0.2591  1.5147  0.0095
   38MOL   H14412058   6.022   1.469   5.623  0.0647 -1.1901  1.5727
   38MOL   H14512059   6.038   1.502   5.778  2.4313  1.3434  1.9072
   38MOL   C14612060   6.016   1.685   5.660 -0.4392 -0.6454 -0.7195
   38MOL   C14712061   5.879   1.672   5.595 -0.1532 -0.7278  0.2074
   38MOL   C14812062   5.861   1.675   5.456  0.0671 -0.0753  0.0975
   38MOL   C14912063   5.739   1.643   5.398  0.3327  0.7534 -0.1049
   38MOL   C15012064   5.627   1.624   5.477 -0.0026  0.5999  0.0484
   38MOL  Cl15112065   5.469   1.605   5.399  0.1634 -0.1128 -0.1689
   38MOL   C15212066   5.639   1.637   5.617 -0.4025  0.5352  0.2402
   38MOL   C15312067   5.768   1.650   5.674  0.3493 -0.1301 -1.0209
   38MOL   C15412068   6.019   1.776   5.784  0.5013  0.2277 -0.3958
   38MOL   H15512069   6.083   1.734   5.589  1.2711 -1.3186  0.3905
   38MOL   H15612070   5.941   1.696   5.386  0.5988 -0.7155  0.5171
   38MOL   H15712071   5.732   1.649   5.291 -1.1712  3.6146  0.1122
   38MOL   H15812072   5.546   1.614   5.667  0.1218 -0.3210  0.8382
   38MOL   H15912073   5.777   1.639   5.781 -0.4893 -1.0339 -1.0263
   38MOL   H16012074   5.928   1.761   5.842  0.1428  0.1938 -0.9724
   38MOL   H16112075   6.087   1.718   5.847  1.7253  2.7491  0.7254
   38MOL   C16212076   6.074   1.925   5.766  0.8165  0.0832 -0.6047
   38MOL   C16312077   5.991   2.015   5.676 -0.5917  0.3598  0.1379
   38MOL   C16412078   6.031   2.048   5.548 -0.5677 -0.0098  0.0415
   38MOL   C16512079   5.936   2.124   5.462 -0.0227  0.3009 -0.1559
   38MOL   C16612080   5.811   2.163   5.506  0.6601 -0.5023  0.4056
   38MOL  Cl16712081   5.719   2.275   5.424  0.4479 -0.4822 -0.1545
   38MOL   C16812082   5.777   2.134   5.639 -0.1458 -0.1340 -0.4838
   38MOL   C16912083   5.862   2.061   5.722 -0.3958 -0.2675  0.6161
   38MOL   C17012084   6.098   1.992   5.909  1.2738  1.5314  0.3646
   38MOL   H17112085   6.169   1.907   5.714  1.4565 -2.9849  1.4875
   38MOL   H17212086   6.129   2.024   5.508 -0.5905  0.3122 -0.2225
   38MOL   H17312087   5.970   2.158   5.365  1.5658 -0.0559  0.2459
   38MOL   H17412088   5.684   2.166   5.683  1.6868  1.2779  2.5475
   38MOL   H17512089   5.827   2.021   5.817 -0.7605  0.3158  0.7327
   38MOL   H17612090   6.007   2.020   5.964 -1.1458 -1.7736 -1.7453
   38MOL   H17712091   6.135   1.914   5.976  0.0296 -0.5301 -1.2884
   38MOL   C17812092   6.203   2.109   5.930  0.1226 -1.1993 -0.1481
   38MOL   C17912093   6.202   2.208   5.816 -0.6844 -0.3485  0.3410
   38MOL   C18012094   6.096   2.305   5.788 -0.1098 -0.2990  0.7772
   38MOL   C18112095   6.096   2.389   5.676 -0.4020  0.6489 -0.4195
   38MOL   C18212096   6.207   2.389   5.590  0.3339 -0.2560  0.9451
   38MOL  Cl18312097   6.229   2.503   5.458 -0.1167  0.0347  0.1763
   38MOL   C18412098   6.309   2.298   5.605 -0.4693  0.6769  0.2318
   38MOL   C18512099   6.308   2.208   5.719 -0.1209  0.0615  0.0107
   38MOL   C18612100   6.176   2.182   6.062 -0.6419  0.0167  0.4118
   38MOL   H18712101   6.301   2.059   5.930  0.7783  0.0589  0.8743
   38MOL   H18812102   6.016   2.312   5.859 -0.7972 -2.4450  0.2511
   38MOL   H18912103   6.016   2.461   5.668  0.5398  2.0209  2.1290
   38MOL   H19012104   6.396   2.314   5.544 -0.9910  0.9200 -0.4528
   38MOL   H19112105   6.392   2.141   5.714  0.6801  1.0280  0.3387
   38MOL   H19212106   6.125   2.278   6.051  0.5391  0.7953  1.6586
   38MOL   H19312107   6.108   2.131   6.130 -0.1592 -2.0361 -0.5837
   38MOL   C19412108   6.294   2.203   6.155 -0.2181 -0.3556  0.5588
   38MOL   C19512109   6.413   2.276   6.092 -0.3028  0.2679  0.0577
   38MOL   C19612110   6.542   2.218   6.097  0.0010 -0.2337 -0.3829
   38MOL   C19712111   6.651   2.285   6.044  0.2621  0.2255 -0.0321
   38MOL   C19812112   6.631   2.405   5.981 -0.0788 -0.5925  0.1288
   38MOL  Cl19912113   6.771   2.485   5.918  0.0049 -0.4069 -0.1114
   38MOL   C20012114   6.502   2.469   5.978  0.4651  0.1716  0.0423
   38MOL   C20112115   6.395   2.408   6.039 -0.0712  0.5748  0.0965
   38MOL   C20212116   6.252   2.269   6.288  0.4430  0.5456  0.0087
   38MOL   H20312117   6.323   2.098   6.166  0.5787 -0.6059 -3.0935
   38MOL   H20412118   6.552   2.116   6.131 -0.4492  0.6175  2.4637
   38MOL   H20512119   6.745   2.232   6.045 -1.1572 -2.3407  1.3995
   38MOL   H20612120   6.498   2.569   5.939  2.4821 -0.0729 -0.8320
   38MOL   H20712121   6.303   2.461   6.057 -0.2089 -0.3145  2.2632
   38MOL   H20812122   6.342   2.290   6.346  2.3592 -1.9587 -1.9372
   38MOL   H20912123   6.226   2.375   6.280 -1.6008  0.2969  2.7535
   38MOL   C21012124   6.155   2.205   6.380 -0.8200  0.3654 -0.4707
   38MOL   C21112125   6.197   2.061   6.406  0.1953 -0.1634 -0.0071
   38MOL   C21212126   6.330   2.035   6.456  0.1880  0.0603 -0.6390
   38MOL   C21312127   6.360   1.908   6.499 -0.5378 -0.6429 -0.5451
   38MOL   C21412128   6.269   1.804   6.487  0.3823  0.0126 -0.0053
   38MOL  Cl21512129   6.326   1.651   6.537 -0.0779 -0.1401 -0.3589
   38MOL   C21612130   6.139   1.829   6.445 -0.2630 -0.0161  0.0979
   38MOL   C21712131   6.099   1.956   6.409 -0.3701 -0.1544  0.4075
   38MOL   C21812132   6.149   2.274   6.517 -0.0820  0.1054  0.3102
   38MOL   H21912133   6.053   2.208   6.343 -0.2712 -0.3240 -2.1111
   38MOL   H22012134   6.413   2.104   6.455  1.5947 -1.5372  1.3747
   38MOL   H22112135   6.457   1.887   6.540  0.0101  1.6012 -0.6289
   38MOL   H22212136   6.068   1.747   6.445 -1.3009  0.8621 -1.1201
   38MOL   H22312137   6.001   1.960   6.363  0.7185 -3.1897 -2.3415
   38MOL   H22412138   6.108   2.209   6.595  0.9553  0.5160  1.2249
   38MOL   H22512139   6.250   2.293   6.553 -0.0842 -0.4101  0.6068
   38MOL   C22612140   6.055   2.398   6.519 -0.3254  0.2664 -0.3414
   38MOL   C22712141   5.903   2.370   6.507 -0.4421 -0.6388  0.7579
   38MOL   C22812142   5.841   2.273   6.589  0.2447  0.1627 -0.2886
   38MOL   C22912143   5.702   2.255   6.579  0.0697 -0.1549  0.0457
   38MOL   C23012144   5.623   2.330   6.485  0.1280  0.1364  0.5138
   38MOL  Cl23112145   5.457   2.302   6.481  0.1684  0.2819 -0.1835
   38MOL   C23212146   5.687   2.427   6.404  0.7198 -0.6361 -1.0042
   38MOL   C23312147   5.822   2.451   6.417 -0.5241 -0.2985 -0.2888
   38MOL   C23412148   6.080   2.482   6.645  0.8417  0.0413 -0.0054
   38MOL   H23512149   6.083   2.455   6.430 -1.2526 -0.4531 -1.1080
   38MOL   H23612150   5.901   2.217   6.659 -0.6205 -1.1246 -0.5710
   38MOL   H23712151   5.653   2.182   6.642 -0.7559  1.0489  0.8079
   38MOL   H23812152   5.617   2.491   6.353 -1.6301 -0.5604  2.1693
   38MOL   H23912153   5.865   2.532   6.358 -0.9262  0.7104  0.7781
   38MOL   H24012154   5.998   2.553   6.647  2.1421  1.5815 -0.4978
   38MOL   H24112155   6.082   2.417   6.733 -2.6386 -0.6620 -0.3809
   38MOL   C24212156   6.213   2.556   6.649  0.7592  0.3039 -0.3351
   38MOL   C24312157   6.257   2.620   6.520 -0.4992  0.5457  0.3616
   38MOL   C24412158   6.171   2.704   6.454 -0.4748 -0.6550 -0.0586
   38MOL   C24512159   6.202   2.767   6.333  0.2333  0.2206 -0.2788
   38MOL   C24612160   6.329   2.743   6.275  0.8445  0.1600  0.3703
   38MOL  Cl24712161   6.370   2.808   6.123 -0.2243 -0.1837  0.1467
   38MOL   C24812162   6.416   2.651   6.336 -0.1401  0.0733 -0.2229
   38MOL   C24912163   6.383   2.590   6.462  0.2694  0.1408 -0.0583
   38MOL   C25012164   6.225   2.657   6.767 -0.2720  0.5299 -0.1433
   38MOL   H25112165   6.293   2.484   6.668  2.4660  1.7913 -1.7782
   38MOL   H25212166   6.081   2.726   6.510 -0.5179 -1.3981  0.1695
   38MOL   H25312167   6.127   2.825   6.281 -0.7249 -0.9342 -0.1900
   38MOL   H25412168   6.512   2.626   6.293  0.0770  0.7048 -0.1111
   38MOL   H25512169   6.452   2.515   6.497 -0.9266 -1.2873 -0.7545
   38MOL   H25612170   6.303   2.727   6.736  0.0202  0.5728  0.6569
   38MOL   H25712171   6.146   2.732   6.774 -0.5949  0.3410 -1.8193
   38MOL   C25812172   6.259   2.608   6.912 -0.4094  0.2218 -0.4386
   38MOL   C25912173   6.398   2.550   6.922  0.4779  0.0099  0.0713
   38MOL   C26012174   6.506   2.642   6.936 -0.1400 -0.4628 -0.2620
   38MOL   C26112175   6.633   2.585   6.963 -0.2145 -0.3314 -0.3854
   38MOL   C26212176   6.655   2.445   6.972 -0.0981  0.1637 -0.4735
   38MOL  Cl26312177   6.816   2.386   6.974 -0.3424  0.0405 -0.5008
   38MOL   C26412178   6.549   2.358   6.961 -0.1125 -0.1288 -0.7428
   38MOL   C26512179   6.420   2.410   6.942  0.3246  0.3799  1.1693
   38MOL   C26612180   6.240   2.721   7.018 -0.3711 -0.0143 -0.0715
   38MOL   H26712181   6.194   2.526   6.941  0.0478 -0.2215 -0.6573
   38MOL   H26812182   6.491   2.744   6.904  1.2112 -0.3731 -0.6268
   38MOL   H26912183   6.722   2.647   6.967  1.2887 -2.4081 -0.7618
   38MOL   H27012184   6.563   2.251   6.966 -0.3945 -0.1725 -0.8372
   38MOL   H27112185   6.334   2.344   6.940  1.2385 -0.7885  0.2218
   38MOL   H27212186   6.296   2.710   7.111 -0.3185 -1.4493 -0.2600
   38MOL   H27312187   6.285   2.807   6.969 -0.6003  0.4168  0.4619
   38MOL   C27412188   6.094   2.752   7.063  0.2197 -0.1696  0.0600
   38MOL   C27512189   6.048   2.645   7.164  0.1388 -0.0520  0.2146
   38MOL   C27612190   5.940   2.559   7.128  0.2418  0.1109  0.5110
   38MOL   C27712191   5.889   2.470   7.219  0.5732  0.1582  0.4787
   38MOL   C27812192   5.952   2.459   7.346  0.0308 -0.7165 -0.0692
   38MOL  Cl27912193   5.893   2.345   7.454 -0.0041 -0.0702  0.2202
   38MOL   C28012194   6.066   2.539   7.380  0.0474 -0.6437 -0.2296
   38MOL   C28112195   6.114   2.631   7.288  0.0481 -0.4545  0.5514
   38MOL   C28212196   6.077   2.890   7.125  0.1800 -0.0506 -1.1692
   38MOL   H28312197   6.029   2.753   6.976  0.9162 -2.4873 -0.5324
   38MOL   H28412198   5.887   2.561   7.034 -0.3316 -1.0881  0.7970
   38MOL   H28512199   5.798   2.416   7.200 -0.9567  2.8699 -0.0824
   38MOL   H28612200   6.115   2.512   7.473 -1.7419 -0.1553  0.8895
   38MOL   H28712201   6.190   2.702   7.317  0.7859 -1.3260  0.7769
   38MOL   H28812202   5.970   2.899   7.145  0.4440  0.8500 -0.0862
   38MOL   H28912203   6.118   2.880   7.226  0.4223 -2.0429 -1.4449
   38MOL   C29012204   6.114   3.015   7.054 -0.2543 -0.4185 -0.0351
   38MOL   C29112205   6.086   3.007   6.900 -0.4196  0.2045 -0.6378
   38MOL   C29212206   6.184   3.040   6.800  0.3810 -0.5070  0.0720
   38MOL   C29312207   6.160   3.044   6.664 -0.3478 -0.1757  0.2349
   38MOL   C29412208   6.030   3.025   6.618 -0.2156 -0.0156 -0.2574
   38MOL  Cl29512209   5.983   3.037   6.448 -0.2695 -0.1233 -0.0374
   38MOL   C29612210   5.931   2.996   6.716  0.0930 -0.2427  0.0877
   38MOL   C29712211   5.956   2.989   6.854  0.3822  0.7620 -0.2145
   38MOL   C29812212   6.062   3.144   7.130  0.3437  0.2723  0.5209
   38MOL   H29912213   6.222   3.011   7.067 -0.3142 -0.9658  0.3066
   38MOL   H30012214   6.280   3.074   6.837 -0.4454  1.0003  0.8279
   38MOL   H30112215   6.233   3.068   6.588 -0.2071 -1.1032  0.0604
   38MOL   H30212216   5.833   2.979   6.674 -0.5872  0.9189  1.1641
   38MOL   H30312217   5.877   2.965   6.924 -0.7696  0.7144 -1.5186
   38MOL   H30412218   5.957   3.152   7.100  0.5653 -0.9362 -0.5933
   38MOL   H30512219   6.068   3.124   7.237  3.3010  1.9334  0.7163
   38MOL   C30612220   6.128   3.273   7.091 -0.1730  0.0958 -0.0855
   38MOL   C30712221   6.077   3.389   7.178 -0.2766  0.0264 -0.6565
   38MOL   C30812222   6.091   3.388   7.319 -0.5450 -0.9176  0.3375
   38MOL   C30912223   6.034   3.489   7.398  0.6934 -0.1483  0.3487
   38MOL   C31012224   5.973   3.603   7.331 -0.1758  1.1239 -0.0715
   38MOL  Cl31112225   5.915   3.731   7.424 -0.6116  0.0663 -0.0688
   38MOL   C31212226   5.950   3.600   7.191 -0.5695 -0.5736 -0.5197
   38MOL   C31312227   6.004   3.495   7.115  0.0651  0.5076 -0.6387
   38MOL   C31412228   6.281   3.269   7.105  0.0392  0.2085  1.1180
   38MOL   H31512229   6.104   3.303   6.989 -2.1911 -0.5231  0.1914
   38MOL   H31612230   6.135   3.307   7.375  0.2057 -1.3476 -0.8678
   38MOL   H31712231   6.051   3.493   7.505 -1.6348  1.2595  0.6912
   38MOL   H31812232   5.906   3.681   7.135 -0.1334  0.3410  0.4335
   38MOL   H31912233   6.000   3.500   7.007 -4.9592 -0.6739 -0.6381
   38MOL   H32012234   6.340   3.192   7.057 -2.9233 -0.6153 -1.4038
   38MOL   H32112235   6.327   3.363   7.074  0.9475 -0.5241  0.2245
   38MOL   H32212236   6.301   3.268   7.213 -1.5459 -1.4960  1.4222
   39MOL     C112237   4.780   8.089   2.933  0.4026  1.6944  0.2587
   39MOL     C212238   4.822   8.234   2.924 -0.0132  0.4580 -0.6444
   39MOL     C312239   4.751   8.321   2.838  0.4511  0.5177  0.9126
   39MOL     C412240   4.800   0.010   2.828  0.2630 -0.3846  0.1679
   39MOL     C512241   4.922   0.051   2.886 -0.5474 -0.4098  0.1723
   39MOL    Cl612242   4.976   0.215   2.867 -0.0918  0.0268  0.6259
   39MOL     C712243   4.985   8.407   2.975  0.3914  0.2400 -0.4822
   39MOL     C812244   4.931   8.284   2.998  0.5753  0.1899 -0.2918
   39MOL     C912245   4.888   8.005   2.859  1.0135  0.6237  0.1603
   39MOL    H1012246   4.680   8.087   2.889  0.2621 -1.2507  0.5763
   39MOL    H1112247   4.672   8.292   2.772  0.0995  1.6682  0.8240
   39MOL    H1212248   4.737   0.081   2.776  1.5193  0.2069 -0.5527
   39MOL    H1312249   5.059   8.443   3.045 -0.4493 -0.1509  0.6282
   39MOL    H1412250   4.965   8.213   3.072  0.8195  1.0760  0.4480
   39MOL    H1512251   4.902   8.050   2.760  0.7307  2.0333  0.7426
   39MOL    H1612252   4.989   8.003   2.900  1.8660 -1.9280 -1.9168
   39MOL    H1712253   4.769   8.045   3.032 -0.1173  2.5438  0.5778
   39MOL    C1812254   4.849   7.860   2.841 -0.1821  0.5086  0.1130
   39MOL    C1912255   4.944   7.788   2.737 -0.9951 -0.3265 -0.2936
   39MOL    C2012256   5.076   7.742   2.758 -0.4519 -0.3023  0.3367
   39MOL    C2112257   5.139   7.668   2.660  0.4706 -0.3576  0.2244
   39MOL    C2212258   5.074   7.634   2.543 -0.8000 -0.3035 -0.0387
   39MOL   Cl2312259   5.154   7.529   2.423  0.0069 -0.4557  0.2947
   39MOL    C2412260   4.944   7.685   2.516 -0.0095 -0.2282 -0.4487
   39MOL    C2512261   4.883   7.766   2.611 -0.0958  0.1191 -0.0765
   39MOL    C2612262   4.820   7.777   2.966  0.4281 -0.6089 -0.2946
   39MOL    H2712263   4.756   7.867   2.785 -0.1292 -1.4766 -0.2821
   39MOL    H2812264   5.132   7.762   2.849  2.9569 -0.8711 -1.5692
   39MOL    H2912265   5.236   7.627   2.683  0.8310 -1.1129 -2.5160
   39MOL    H3012266   4.894   7.655   2.426 -0.4294  0.3830 -0.4234
   39MOL    H3112267   4.791   7.817   2.585  0.0456  1.4235  1.8197
   39MOL    H3212268   4.912   7.718   2.980  0.0215 -1.1516  0.1188
   39MOL    H3312269   4.820   7.838   3.056 -0.1827 -0.8183 -0.1513
   39MOL    C3412270   4.698   7.690   2.956 -0.4763 -0.6795  0.4061
   39MOL    C3512271   4.709   7.586   2.841 -0.2080 -0.0100  0.7172
   39MOL    C3612272   4.815   7.490   2.842 -0.4079 -0.3725 -0.1660
   39MOL    C3712273   4.827   7.411   2.728  0.7058  0.4348 -0.0829
   39MOL    C3812274   4.738   7.412   2.621 -0.7307 -0.0968  0.0669
   39MOL   Cl3912275   4.784   7.333   2.474 -0.0083 -0.0689 -0.0983
   39MOL    C4012276   4.628   7.500   2.629 -0.0913 -1.0200  1.2215
   39MOL    C4112277   4.613   7.588   2.736  0.1621 -0.0853  0.6945
   39MOL    C4212278   4.668   7.617   3.088 -0.7350  0.0383  0.2736
   39MOL    H4312279   4.611   7.752   2.933 -1.8567 -2.5961  0.3607
   39MOL    H4412280   4.882   7.486   2.928 -0.0432  3.9902 -0.1084
   39MOL    H4512281   4.909   7.341   2.735  0.1855 -0.3644 -1.9519
   39MOL    H4612282   4.551   7.496   2.553 -0.0100 -0.4160  1.1061
   39MOL    H4712283   4.531   7.658   2.730  0.5533  0.3292  0.1347
   39MOL    H4812284   4.591   7.545   3.058  0.3942 -1.2437  0.4249
   39MOL    H4912285   4.755   7.553   3.103 -0.3438  0.1760 -1.3019
   39MOL    C5012286   4.611   7.701   3.207 -0.5647 -0.5870  0.3423
   39MOL    C5112287   4.484   7.778   3.170 -0.4185  0.0230 -0.1320
   39MOL    C5212288   4.470   7.915   3.185  0.1154  0.0398 -0.6119
   39MOL    C5312289   4.350   7.986   3.164 -0.0477  0.6514 -0.2980
   39MOL    C5412290   4.237   7.914   3.115 -0.4256 -0.1352 -0.5190
   39MOL   Cl5512291   4.091   7.998   3.100  0.1516  0.0484  0.1569
   39MOL    C5612292   4.250   7.776   3.088 -0.0260  0.1781 -0.0311
   39MOL    C5712293   4.372   7.709   3.113  0.1553 -0.2068 -0.1189
   39MOL    C5812294   4.587   7.607   3.327 -0.3123 -0.5274  0.0529
   39MOL    H5912295   4.681   7.771   3.253 -1.2222  0.8547 -0.8099
   39MOL    H6012296   4.553   7.967   3.231 -1.3342  2.1104 -0.2633
   39MOL    H6112297   4.345   8.093   3.178  3.0860  0.8032  0.1153
   39MOL    H6212298   4.168   7.710   3.065 -0.1708  0.1286  0.6198
   39MOL    H6312299   4.368   7.602   3.094 -1.3737  0.0969 -1.6048
   39MOL    H6412300   4.521   7.526   3.295  0.2146 -1.3719  1.0393
   39MOL    H6512301   4.678   7.547   3.343  1.8180  2.1859 -1.4267
   39MOL    C6612302   4.546   7.675   3.459  0.8300  1.2191 -0.4524
   39MOL    C6712303   4.503   7.577   3.567 -0.1274  0.3890 -0.2514
   39MOL    C6812304   4.594   7.479   3.620  0.6305  0.3232 -0.0178
   39MOL    C6912305   4.544   7.385   3.716 -0.1792 -0.3387  0.0413
   39MOL    C7012306   4.415   7.388   3.767  0.1086 -0.5552 -0.1667
   39MOL   Cl7112307   4.363   7.263   3.878  0.3158 -0.1174 -0.2123
   39MOL    C7212308   4.328   7.485   3.716 -0.5539 -0.4538  0.7942
   39MOL    C7312309   4.372   7.579   3.624  0.2520  0.4882 -0.1983
   39MOL    C7412310   4.656   7.770   3.521 -0.3301  0.6060  0.1082
   39MOL    H7512311   4.455   7.731   3.438 -0.1178  0.4866  1.5063
   39MOL    H7612312   4.695   7.474   3.584  0.7478  3.1054 -0.2066
   39MOL    H7712313   4.611   7.308   3.752 -0.9127 -0.0174  2.1328
   39MOL    H7812314   4.232   7.498   3.762 -0.5473  0.3700  0.5744
   39MOL    H7912315   4.309   7.658   3.586  0.7260  0.2777 -1.4699
   39MOL    H8012316   4.740   7.704   3.542  0.5087  0.8550 -2.3253
   39MOL    H8112317   4.682   7.852   3.454 -1.1394  0.3318 -0.5508
   39MOL    C8212318   4.605   7.852   3.640  0.5462  0.0231  0.4746
   39MOL    C8312319   4.707   7.866   3.749  0.1616  0.6166  0.3981
   39MOL    C8412320   4.837   7.923   3.728  0.5874  0.2231  0.1809
   39MOL    C8512321   4.924   7.923   3.837 -0.4798 -0.0679 -0.2640
   39MOL    C8612322   4.884   7.891   3.969  0.1374  0.4997  0.0092
   39MOL   Cl8712323   4.999   7.903   4.099  0.1843 -0.0426 -0.0728
   39MOL    C8812324   4.753   7.845   3.989  0.4033 -0.1231 -0.3317
   39MOL    C8912325   4.669   7.821   3.874 -0.1699  0.6406 -0.5057
   39MOL    C9012326   4.554   7.987   3.591  0.1911 -0.2260 -0.1911
   39MOL    H9112327   4.522   7.800   3.688  1.6382 -0.0520  2.3364
   39MOL    H9212328   4.870   7.951   3.629 -3.3111 -0.6241 -1.4406
   39MOL    H9312329   5.025   7.951   3.810 -0.1517 -0.9903 -0.0024
   39MOL    H9412330   4.720   7.810   4.086  0.1094  0.8571 -0.0723
   39MOL    H9512331   4.568   7.785   3.890 -0.4506  0.8768 -1.7173
   39MOL    H9612332   4.637   8.053   3.564  1.4976 -1.5387  0.5350
   39MOL    H9712333   4.496   7.971   3.500  0.1967  0.3856 -0.3056
   39MOL    C9812334   4.460   8.073   3.686 -0.0365 -0.6239 -0.2210
   39MOL    C9912335   4.534   8.127   3.813  0.4277 -0.2376  0.0828
   39MOL   C10012336   4.670   8.176   3.812  0.5264 -0.2654 -0.2289
   39MOL   C10112337   4.723   8.221   3.936 -0.1003 -0.5351  0.3649
   39MOL   C10212338   4.657   8.224   4.055 -0.0416  0.3506  0.1228
   39MOL  Cl10312339   4.732   8.314   4.185  0.2657  0.0442 -0.1552
   39MOL   C10412340   4.527   8.170   4.056 -0.0372  0.1386 -0.0133
   39MOL   C10512341   4.469   8.117   3.935  0.2291  0.2443 -0.7940
   39MOL   C10612342   4.399   8.195   3.604  0.0415 -0.6824 -0.1851
   39MOL   H10712343   4.384   8.001   3.716 -0.7196 -0.5050 -1.6052
   39MOL   H10812344   4.726   8.192   3.722  1.8463 -0.5720  0.5166
   39MOL   H10912345   4.824   8.257   3.929 -1.5272  3.1702 -2.8245
   39MOL   H11012346   4.474   8.185   4.149 -2.5914  0.1428 -1.4139
   39MOL   H11112347   4.371   8.075   3.921  0.5968 -0.3107 -1.7904
   39MOL   H11212348   4.364   8.260   3.684  0.5080  1.2095 -1.5017
   39MOL   H11312349   4.476   8.255   3.555 -0.6304  0.7986  0.5446
   39MOL   C11412350   4.290   8.167   3.510  0.0096 -0.1972  0.2925
   39MOL   C11512351   4.194   8.053   3.558  0.1289 -0.4743 -0.5429
   39MOL   C11612352   4.100   8.078   3.658  0.3642 -0.1297  0.2380
   39MOL   C11712353   4.016   7.975   3.697  0.0661  0.4591 -0.1541
   39MOL   C11812354   4.026   7.846   3.647  0.0099  0.0943  0.6222
   39MOL  Cl11912355   3.930   7.706   3.704 -0.0279  0.3821 -0.5940
   39MOL   C12012356   4.122   7.817   3.550 -0.3093  0.0438  0.0293
   39MOL   C12112357   4.209   7.923   3.511  0.4956 -0.1194  0.5580
   39MOL   C12212358   4.208   8.298   3.495 -0.6932 -0.3993  0.0007
   39MOL   H12312359   4.329   8.138   3.412  0.3979  0.5237  0.2278
   39MOL   H12412360   4.095   8.178   3.699 -0.3641  0.1191 -0.4522
   39MOL   H12512361   3.939   7.997   3.770  1.3929 -1.3524  1.8723
   39MOL   H12612362   4.130   7.718   3.510 -1.6045  0.9628 -2.5956
   39MOL   H12712363   4.275   7.897   3.430  0.2852  1.2253 -0.0567
   39MOL   H12812364   4.114   8.271   3.448 -0.6411  2.1814 -1.6993
   39MOL   H12912365   4.183   8.342   3.592  1.2880 -0.7437  0.6923
   39MOL   C13012366   4.289   8.411   3.423  0.4902  0.3411  0.1899
   39MOL   C13112367   4.313   8.391   3.273 -0.0715  0.0714 -0.9028
   39MOL   C13212368   4.211   8.372   3.180 -0.3591 -0.1679  0.2416
   39MOL   C13312369   4.241   8.360   3.043 -0.1242 -0.0151 -0.3210
   39MOL   C13412370   4.378   8.385   3.001 -0.0459  0.3855  0.4460
   39MOL  Cl13512371   4.412   8.402   2.832  0.4223  0.5076  0.6119
   39MOL   C13612372   4.481   8.400   3.091  0.1310  0.3417  0.2539
   39MOL   C13712373   4.449   8.406   3.225 -0.1457  0.2193  0.2285
   39MOL   C13812374   4.234   0.112   3.451  0.3427  0.4377  0.1944
   39MOL   H13912375   4.385   8.424   3.472  1.1462 -0.6146 -0.8155
   39MOL   H14012376   4.109   8.355   3.212 -0.1817  0.1575  0.9719
   39MOL   H14112377   4.163   8.340   2.970 -0.4817  1.0935 -0.2430
   39MOL   H14212378   4.580   8.420   3.053  1.2146 -0.4678  2.5775
   39MOL   H14312379   4.522   8.434   3.298 -0.6572  0.8276  0.5158
   39MOL   H14412380   4.267   0.180   3.372  1.1111 -0.9421 -0.6919
   39MOL   H14512381   4.126   0.096   3.445  0.2962  0.0099  1.9315
   39MOL   C14612382   4.259   0.167   3.600 -0.8902  0.3029 -0.6597
   39MOL   C14712383   4.408   0.157   3.638  0.5048 -0.4268  0.0893
   39MOL   C14812384   4.444   0.087   3.755  0.3855 -0.6760  0.3239
   39MOL   C14912385   4.578   0.071   3.782 -0.4116 -0.7775  0.5508
   39MOL   C15012386   4.678   0.129   3.703 -0.7404  0.1088 -0.1311
   39MOL  Cl15112387   4.841   0.098   3.750 -0.0439 -0.1428 -0.4891
   39MOL   C15212388   4.641   0.199   3.583 -0.0738 -0.1782 -0.7778
   39MOL   C15312389   4.502   0.220   3.553  0.8150 -0.2228  0.5496
   39MOL   C15412390   4.219   0.318   3.622  0.0531  0.1246 -0.6392
   39MOL   H15512391   4.209   0.105   3.674  2.0454  0.5626  1.6792
   39MOL   H15612392   4.371   0.046   3.823  1.1179 -1.5714  0.5714
   39MOL   H15712393   4.598   0.015   3.873  0.1081  1.7254  2.0358
   39MOL   H15812394   4.713   0.232   3.510  0.3336  2.0513  0.5789
   39MOL   H15912395   4.472   0.276   3.465 -0.1931 -0.7649  0.5355
   39MOL   H16012396   4.226   0.348   3.727  0.1214 -2.5352  0.1575
   39MOL   H16112397   4.280   0.378   3.555 -1.6172 -0.3672 -2.6474
   39MOL   C16212398   4.074   0.348   3.597  1.5157 -0.1667  0.0130
   39MOL   C16312399   3.966   0.271   3.681  0.6755  0.1429 -0.0338
   39MOL   C16412400   3.964   0.286   3.821 -0.1730  0.0123 -0.0552
   39MOL   C16512401   3.868   0.220   3.901 -0.3467  0.9724 -0.1539
   39MOL   C16612402   3.778   0.129   3.837 -0.1509  0.2366 -0.4720
   39MOL  Cl16712403   3.647   0.061   3.930  0.1339  0.1789 -0.1345
   39MOL   C16812404   3.783   0.114   3.701 -0.2568 -0.4766 -0.0794
   39MOL   C16912405   3.876   0.183   3.622  0.1893  0.7198  0.0838
   39MOL   C17012406   4.054   0.499   3.596 -0.0074 -0.1823 -0.6087
   39MOL   H17112407   4.060   0.323   3.492 -0.4360 -2.5613  0.7973
   39MOL   H17212408   4.030   0.358   3.866 -1.8784  0.3587  2.0012
   39MOL   H17312409   3.853   0.224   4.008  1.4130  0.6445  0.1204
   39MOL   H17412410   3.712   0.046   3.657 -2.2565  1.1140  0.6028
   39MOL   H17512411   3.884   0.164   3.516 -0.6512 -2.4191  0.5503
   39MOL   H17612412   4.049   0.544   3.695 -2.3407 -0.4737 -0.5657
   39MOL   H17712413   4.141   0.545   3.548 -0.1796 -1.9412 -2.7137
   39MOL   C17812414   3.930   0.542   3.507 -0.9009 -0.4769 -0.4890
   39MOL   C17912415   3.801   0.559   3.592 -0.2084 -0.3045 -1.2500
   39MOL   C18012416   3.692   0.468   3.574  0.2320  1.0170  0.4931
   39MOL   C18112417   3.578   0.477   3.658 -0.8745 -0.2048  0.3159
   39MOL   C18212418   3.577   0.571   3.769  0.1102  0.8477 -0.2583
   39MOL  Cl18312419   3.440   0.569   3.869 -0.2780  0.0602 -0.2292
   39MOL   C18412420   3.679   0.664   3.779  0.6035  0.1594 -0.5165
   39MOL   C18512421   3.795   0.659   3.697 -0.2119 -0.8842 -0.3974
   39MOL   C18612422   3.967   0.666   3.419  0.3460 -0.1893  0.2990
   39MOL   H18712423   3.913   0.460   3.438 -1.1163 -0.0813 -0.9037
   39MOL   H18812424   3.701   0.390   3.500  1.0162  0.6420  0.9772
   39MOL   H18912425   3.493   0.411   3.657  0.1005 -1.4879  0.4813
   39MOL   H19012426   3.678   0.734   3.861  0.2176 -1.2511  0.7134
   39MOL   H19112427   3.879   0.725   3.706 -1.1491  0.2741 -0.0204
   39MOL   H19212428   3.874   0.710   3.383  0.5066  0.3468  0.5341
   39MOL   H19312429   4.022   0.739   3.480  1.1019  0.4124 -1.0736
   39MOL   C19412430   4.064   0.634   3.302  0.6930  0.6570 -0.0924
   39MOL   C19512431   4.028   0.504   3.222  0.4508 -0.6715 -0.6304
   39MOL   C19612432   3.899   0.489   3.160 -0.0218  0.1854  0.6963
   39MOL   C19712433   3.873   0.369   3.084 -0.4541 -0.5916 -0.2701
   39MOL   C19812434   3.973   0.273   3.065 -0.6833 -0.1931  0.2464
   39MOL  Cl19912435   3.955   0.130   2.970  0.1468  0.3166  0.5915
   39MOL   C20012436   4.098   0.288   3.123  0.2432  0.5789  0.6628
   39MOL   C20112437   4.123   0.404   3.203  0.1447 -0.4318  0.1704
   39MOL   C20212438   4.099   0.758   3.223 -0.0283  0.1558  0.2218
   39MOL   H20312439   4.154   0.610   3.359  0.5458 -1.3791 -0.7034
   39MOL   H20412440   3.823   0.566   3.158  1.1775  1.3877  0.6429
   39MOL   H20512441   3.779   0.356   3.031 -0.4168 -3.0014  0.1743
   39MOL   H20612442   4.171   0.209   3.110  1.2489  1.4758  0.7549
   39MOL   H20712443   4.212   0.413   3.265  0.1945 -0.3644  0.0890
   39MOL   H20812444   4.008   0.786   3.171 -0.7357 -1.8969  0.3191
   39MOL   H20912445   4.132   0.830   3.297 -0.2399  0.5641 -0.0804
   39MOL   C21012446   4.212   0.756   3.121 -0.7440 -0.4615 -0.8075
   39MOL   C21112447   4.219   0.875   3.030 -0.0633  0.8701 -0.4425
   39MOL   C21212448   4.199   1.001   3.084  0.6612 -0.2834 -0.5637
   39MOL   C21312449   4.216   1.112   2.997  0.5308  0.0295  0.3580
   39MOL   C21412450   4.230   1.093   2.865 -0.2571 -0.1264 -0.2104
   39MOL  Cl21512451   4.231   1.220   2.748 -0.4061 -0.2602 -0.6557
   39MOL   C21612452   4.241   0.974   2.801  0.2680  1.1279  0.0677
   39MOL   C21712453   4.232   0.859   2.889 -0.5172  0.2626  0.1097
   39MOL   C21812454   4.349   0.695   3.157 -0.2293  1.0385 -0.0103
   39MOL   H21912455   4.168   0.684   3.052 -2.4291  0.0698 -0.3314
   39MOL   H22012456   4.183   1.016   3.189  0.0018 -0.7977 -0.5882
   39MOL   H22112457   4.214   1.214   3.031 -3.3260 -0.4949  2.0385
   39MOL   H22212458   4.249   0.967   2.693 -1.4195  0.7904 -0.0535
   39MOL   H22312459   4.242   0.759   2.849  0.3340 -0.0022  0.9796
   39MOL   H22412460   4.326   0.602   3.208 -1.8062  0.0546 -2.4317
   39MOL   H22512461   4.381   0.679   3.054 -1.0619 -0.4676 -0.0424
   39MOL   C22612462   4.449   0.771   3.235 -0.2327 -0.1000 -0.5960
   39MOL   C22712463   4.393   0.796   3.373  0.1265 -0.0540 -0.1013
   39MOL   C22812464   4.362   0.926   3.413 -0.4443  0.0127 -0.0580
   39MOL   C22912465   4.301   0.948   3.539  0.4616  0.0451  0.1289
   39MOL   C23012466   4.300   0.848   3.631 -0.2807  0.1234 -0.9091
   39MOL  Cl23112467   4.241   0.883   3.791 -0.4003  0.1191 -0.1181
   39MOL   C23212468   4.341   0.714   3.601  0.2915 -0.2687 -0.2486
   39MOL   C23312469   4.384   0.693   3.471 -0.1005  0.2682  0.3889
   39MOL   C23412470   4.582   0.698   3.256  0.5611  0.4980 -0.1967
   39MOL   H23512471   4.465   0.864   3.181 -0.5824  0.1671 -0.2444
   39MOL   H23612472   4.380   1.014   3.353 -1.4037  1.6022  1.9558
   39MOL   H23712473   4.261   1.046   3.560  0.6906  0.1355  0.1433
   39MOL   H23812474   4.331   0.630   3.669 -1.0515  0.0386 -0.0386
   39MOL   H23912475   4.396   0.589   3.445 -1.9853 -0.4074  2.1554
   39MOL   H24012476   4.567   0.605   3.312  0.2502 -0.8277 -2.4392
   39MOL   H24112477   4.606   0.654   3.159  0.9839 -2.7450  1.2838
   39MOL   C24212478   4.696   0.794   3.301  1.1121 -0.1079 -0.5167
   39MOL   C24312479   4.764   0.732   3.421  0.0232  0.1260 -0.3579
   39MOL   C24412480   4.751   0.790   3.551 -0.0177 -0.3731 -0.3354
   39MOL   C24512481   4.816   0.730   3.660  0.4836  0.4711  0.3102
   39MOL   C24612482   4.896   0.614   3.644  0.5543  0.8595  0.2785
   39MOL  Cl24712483   4.982   0.542   3.772 -0.1086  0.4822 -0.1187
   39MOL   C24812484   4.909   0.561   3.512  0.3107  0.4874 -0.3921
   39MOL   C24912485   4.851   0.626   3.402 -0.4645  0.0639  0.4112
   39MOL   C25012486   4.791   0.836   3.184 -0.1339  0.3014  0.2463
   39MOL   H25112487   4.652   0.885   3.340  0.7597 -0.2140 -0.6662
   39MOL   H25212488   4.693   0.881   3.554  1.6719  0.6758  1.2259
   39MOL   H25312489   4.813   0.765   3.762  1.3259 -0.1607  0.5595
   39MOL   H25412490   4.975   0.479   3.492  1.0822  1.3231 -1.3116
   39MOL   H25512491   4.874   0.586   3.304  1.1307  0.1412  0.7448
   39MOL   H25612492   4.879   0.890   3.219  0.4455 -0.3364 -0.2125
   39MOL   H25712493   4.835   0.748   3.138  1.4777  1.6171 -0.7764
   39MOL   C25812494   4.730   0.923   3.079 -0.3066 -0.6345  0.2315
   39MOL   C25912495   4.682   1.060   3.121 -0.1976 -0.7785 -0.6081
   39MOL   C26012496   4.587   1.129   3.037 -0.5970  0.2400 -0.4075
   39MOL   C26112497   4.535   1.253   3.078  0.4298 -0.2235 -0.1927
   39MOL   C26212498   4.578   1.318   3.194 -0.2482  0.1448  0.0692
   39MOL  Cl26312499   4.511   1.467   3.255 -0.1625 -0.3941 -0.0547
   39MOL   C26412500   4.677   1.250   3.275  0.0995  0.1542 -1.1049
   39MOL   C26512501   4.736   1.127   3.231 -0.0143 -0.0699  0.1687
   39MOL   C26612502   4.822   0.939   2.952  0.0897  0.0119 -0.0352
   39MOL   H26712503   4.638   0.875   3.046 -0.6970 -0.0193  0.4215
   39MOL   H26812504   4.550   1.084   2.946  0.3826 -1.9807  0.2338
   39MOL   H26912505   4.454   1.303   3.026  0.6403 -1.5117 -1.8270
   39MOL   H27012506   4.704   1.289   3.371  1.6740 -1.0698 -1.0297
   39MOL   H27112507   4.804   1.091   3.308  1.8407  2.7102 -0.1215
   39MOL   H27212508   4.763   0.989   2.875  0.2077 -0.7300 -0.6095
   39MOL   H27312509   4.907   1.003   2.976  1.7551 -1.7155 -1.2142
   39MOL   C27412510   4.873   0.810   2.882  0.3068 -0.1865 -0.2563
   39MOL   C27512511   4.758   0.713   2.863  0.4170  0.5010  0.2241
   39MOL   C27612512   4.648   0.742   2.778 -0.3830 -0.0115  0.0668
   39MOL   C27712513   4.546   0.653   2.750  0.4419 -0.4312 -0.2362
   39MOL   C27812514   4.549   0.530   2.820  0.1223  1.3239 -0.2700
   39MOL  Cl27912515   4.419   0.425   2.789  0.5308 -0.2226  0.0976
   39MOL   C28012516   4.659   0.497   2.900 -0.1629 -0.1914 -0.3201
   39MOL   C28112517   4.766   0.587   2.922 -0.1821  0.7770  0.0865
   39MOL   C28212518   4.952   0.845   2.751  0.3451  0.3559 -0.2110
   39MOL   H28312519   4.949   0.762   2.945  1.8079  1.2857 -0.9082
   39MOL   H28412520   4.642   0.842   2.737 -1.1703 -0.0658  0.0350
   39MOL   H28512521   4.458   0.685   2.696  0.9993 -0.4686 -1.1722
   39MOL   H28612522   4.668   0.402   2.951 -1.4210  0.3617  0.9578
   39MOL   H28712523   4.853   0.558   2.980  1.0471  1.0761 -1.5686
   39MOL   H28812524   4.873   0.887   2.688  1.2551  2.5680  0.0650
   39MOL   H28912525   5.008   0.936   2.775 -1.9446  1.5696  0.6583
   39MOL   C29012526   5.036   0.737   2.684 -0.3398 -0.0105  0.4844
   39MOL   C29112527   5.142   0.685   2.785  0.9165 -0.1340  0.4496
   39MOL   C29212528   5.249   0.778   2.814 -0.2573 -0.2693 -0.1873
   39MOL   C29312529   5.352   0.729   2.897 -0.1467  0.7832 -0.0430
   39MOL   C29412530   5.343   0.612   2.970 -0.0664 -0.8825  0.3615
   39MOL  Cl29512531   5.466   0.569   3.087 -0.1324 -0.0266 -0.4440
   39MOL   C29612532   5.229   0.529   2.952  0.7347  0.2521 -0.6350
   39MOL   C29712533   5.134   0.568   2.862  0.6665  0.3449  0.4703
   39MOL   C29812534   4.945   0.628   2.610 -0.1910 -0.4842  0.0235
   39MOL   H29912535   5.104   0.781   2.611  1.9583 -4.1535 -0.0410
   39MOL   H30012536   5.248   0.880   2.780  0.8619 -0.2481 -0.1789
   39MOL   H30112537   5.438   0.786   2.930 -1.1442  0.6428  2.9383
   39MOL   H30212538   5.239   0.436   3.007 -0.2695  0.6919  0.3007
   39MOL   H30312539   5.045   0.508   2.849  2.3195 -2.1923  0.4742
   39MOL   H30412540   4.877   0.576   2.678 -1.2775  0.2029 -0.5128
   39MOL   H30512541   4.873   0.689   2.554  0.2864  0.4117  0.3776
   39MOL   C30612542   5.024   0.530   2.520  0.5035 -0.0121  0.8892
   39MOL   C30712543   4.943   0.405   2.484 -0.1528 -0.6217 -0.0893
   39MOL   C30812544   4.992   0.277   2.528 -0.6898  0.3686  0.5483
   39MOL   C30912545   4.919   0.158   2.511 -0.5612 -0.1183  0.0649
   39MOL   C31012546   4.787   0.166   2.462  0.1437 -0.0835 -0.2096
   39MOL  Cl31112547   4.691   0.023   2.440  0.0347  0.0284  0.3204
   39MOL   C31212548   4.742   0.294   2.402 -1.4739  0.0579 -0.9009
   39MOL   C31312549   4.826   0.411   2.411 -0.2970  0.5641  0.3512
   39MOL   C31412550   5.094   0.598   2.398 -0.2075  0.0485  0.2942
   39MOL   H31512551   5.100   0.486   2.584 -0.0623 -0.7915  1.0327
   39MOL   H31612552   5.091   0.274   2.571 -0.8369 -1.3196  0.7867
   39MOL   H31712553   4.964   0.072   2.558  0.9606 -0.8300 -2.6003
   39MOL   H31812554   4.645   0.295   2.355 -1.2580  1.3349 -1.3300
   39MOL   H31912555   4.791   0.501   2.362 -0.3445 -0.6794 -2.0073
   39MOL   H32012556   5.034   0.650   2.323  0.3382  0.3692  0.0759
   39MOL   H32112557   5.152   0.685   2.429 -0.3951 -1.2433  4.5673
   39MOL   H32212558   5.153   0.529   2.337 -0.5515 -0.1979  0.2420
   40MOL     C112559   2.102   4.162   5.444  0.7298  0.1240  0.0891
   40MOL     C212560   1.954   4.203   5.430 -0.3111  0.4166 -0.6218
   40MOL     C312561   1.867   4.156   5.529  0.0949 -1.4292  0.7238
   40MOL     C412562   1.729   4.188   5.526  0.1628 -0.5397 -1.1086
   40MOL     C512563   1.675   4.260   5.413 -0.1905 -0.3766  0.3986
   40MOL    Cl612564   1.507   4.290   5.393 -0.5542  0.0622 -0.0985
   40MOL     C712565   1.770   4.315   5.319 -0.1677 -0.3894 -0.6765
   40MOL     C812566   1.913   4.286   5.323 -0.1097  0.5329  0.7796
   40MOL     C912567   2.128   4.009   5.420 -0.6210 -0.5956  0.3597
   40MOL    H1012568   2.149   4.197   5.536 -1.1453 -1.5696  1.7460
   40MOL    H1112569   1.911   4.093   5.604  1.7278 -1.7077 -0.4256
   40MOL    H1212570   1.660   4.150   5.600 -1.5833  1.2622 -1.7535
   40MOL    H1312571   1.738   4.376   5.236 -1.7635 -0.8118 -0.3957
   40MOL    H1412572   1.981   4.317   5.246 -2.2172  1.4817 -0.7428
   40MOL    H1512573   2.044   3.949   5.454  1.7907 -3.8237  0.9673
   40MOL    H1612574   2.146   3.996   5.313  0.3872 -1.7501  0.6579
   40MOL    H1712575   2.169   4.210   5.373  0.4823  0.6816  0.2303
   40MOL    C1812576   2.247   3.962   5.499  0.0634 -0.7249  0.1456
   40MOL    C1912577   2.246   3.811   5.522  0.6907 -0.0800 -0.0646
   40MOL    C2012578   2.269   3.757   5.650  0.2765 -0.6621 -0.3777
   40MOL    C2112579   2.267   3.617   5.666 -0.5704 -0.4816 -0.3443
   40MOL    C2212580   2.240   3.533   5.563  0.2609  0.3491 -0.3418
   40MOL   Cl2312581   2.223   3.365   5.592  0.3968 -0.0942  0.2260
   40MOL    C2412582   2.211   3.584   5.434  0.6037  0.3516  0.3851
   40MOL    C2512583   2.224   3.723   5.414  0.0335  0.0711 -0.4561
   40MOL    C2612584   2.391   4.004   5.447 -0.0082  0.1506  0.2405
   40MOL    H2712585   2.233   4.005   5.598  0.7567  0.1979 -0.1529
   40MOL    H2812586   2.293   3.819   5.735  1.6477 -1.2050 -0.3516
   40MOL    H2912587   2.294   3.579   5.763 -0.6966  1.1245  0.3382
   40MOL    H3012588   2.194   3.516   5.352 -1.1671  1.4698 -0.2010
   40MOL    H3112589   2.222   3.753   5.310 -0.2096  2.5749  0.2376
   40MOL    H3212590   2.446   3.921   5.402 -2.6335 -2.3651  1.5431
   40MOL    H3312591   2.371   4.085   5.376 -1.0265 -0.6442 -0.3912
   40MOL    C3412592   2.478   4.073   5.547 -0.6017 -0.3621  0.5022
   40MOL    C3512593   2.533   3.981   5.658  0.2470  0.4678 -0.2552
   40MOL    C3612594   2.501   3.998   5.793  0.4267  0.4207  0.4100
   40MOL    C3712595   2.556   3.908   5.890  0.0852  0.4781 -0.7292
   40MOL    C3812596   2.634   3.797   5.843  0.4791 -0.3752  0.1291
   40MOL   Cl3912597   2.707   3.692   5.957  0.0568  0.0258 -0.2777
   40MOL    C4012598   2.669   3.781   5.708  0.4570 -0.2389 -0.3818
   40MOL    C4112599   2.611   3.871   5.614  0.1488 -0.1868 -1.1607
   40MOL    C4212600   2.598   4.149   5.483  0.2218 -0.2551  0.3820
   40MOL    H4312601   2.413   4.149   5.590  0.4516  0.6398  0.3376
   40MOL    H4412602   2.444   4.085   5.823  1.3730  0.4023  2.3977
   40MOL    H4512603   2.539   3.925   5.995  1.5247 -1.2266 -0.1972
   40MOL    H4612604   2.729   3.696   5.681  0.9768  0.3696 -1.1794
   40MOL    H4712605   2.631   3.859   5.509 -1.8207 -1.7304 -1.3973
   40MOL    H4812606   2.664   4.083   5.427 -1.3126 -0.6182 -1.0332
   40MOL    H4912607   2.556   4.217   5.409 -1.1752 -0.3906  1.0352
   40MOL    C5012608   2.684   4.238   5.574 -0.1281 -0.2073  0.1054
   40MOL    C5112609   2.787   4.308   5.483  0.6484  0.9719  0.3320
   40MOL    C5212610   2.742   4.407   5.394  0.4273 -0.5024  0.2562
   40MOL    C5312611   2.834   4.496   5.330  0.2072  0.7712 -0.2824
   40MOL    C5412612   2.974   4.477   5.340  0.6583 -0.4519  0.3789
   40MOL   Cl5512613   3.078   4.578   5.250  0.3026 -0.0005  0.8063
   40MOL    C5612614   3.025   4.381   5.430  0.1825  0.6174  0.3769
   40MOL    C5712615   2.930   4.302   5.502 -0.4079  0.8513  0.3681
   40MOL    C5812616   2.618   4.334   5.673 -0.5704 -0.1195  0.1346
   40MOL    H5912617   2.737   4.167   5.637 -0.0657 -0.5765 -0.3586
   40MOL    H6012618   2.637   4.429   5.387  0.5603 -0.6746 -2.9256
   40MOL    H6112619   2.801   4.568   5.257 -1.0225  0.1815 -0.3236
   40MOL    H6212620   3.130   4.361   5.445 -0.0151  0.1869  1.2264
   40MOL    H6312621   2.971   4.240   5.580  1.2452 -0.5748 -1.5563
   40MOL    H6412622   2.588   4.420   5.613 -2.4350  0.6744  2.1267
   40MOL    H6512623   2.522   4.298   5.711 -1.3941  2.3346  0.4677
   40MOL    C6612624   2.705   4.385   5.789  0.8107  0.7994  0.1015
   40MOL    C6712625   2.678   4.532   5.827  0.1348  0.0314  0.0777
   40MOL    C6812626   2.546   4.573   5.857  0.0894 -0.1075  0.4298
   40MOL    C6912627   2.523   4.710   5.892  0.3809  0.0888  0.3529
   40MOL    C7012628   2.628   4.797   5.903 -0.8264 -0.5761  0.2010
   40MOL   Cl7112629   2.591   4.959   5.949 -0.1873  0.2324 -0.1509
   40MOL    C7212630   2.760   4.759   5.874  0.8359 -0.0388  0.6254
   40MOL    C7312631   2.787   4.622   5.846 -0.8046 -0.2361  0.0160
   40MOL    C7412632   2.700   4.296   5.909  0.5194  0.0848  0.1537
   40MOL    H7512633   2.806   4.380   5.747 -0.4756 -1.8723 -2.8948
   40MOL    H7612634   2.469   4.499   5.861  0.6834 -0.6507  3.0341
   40MOL    H7712635   2.425   4.749   5.914 -0.2976 -1.3236 -0.0785
   40MOL    H7812636   2.841   4.830   5.875 -1.4924  2.7133  1.5775
   40MOL    H7912637   2.889   4.586   5.840 -0.6814  0.2155 -0.6464
   40MOL    H8012638   2.612   4.314   5.972  0.1511  0.3006 -0.4189
   40MOL    H8112639   2.674   4.195   5.878  1.5859 -0.0636 -0.2745
   40MOL    C8212640   2.831   4.293   5.986  0.2807 -0.2888 -0.6228
   40MOL    C8312641   2.817   4.257   6.135 -1.2682  0.3804  0.1698
   40MOL    C8412642   2.774   4.132   6.176  0.5939 -0.8117 -0.2431
   40MOL    C8512643   2.768   4.095   6.312 -0.2954 -0.6393 -0.1773
   40MOL    C8612644   2.813   4.184   6.406  0.6808 -0.5232  0.0654
   40MOL   Cl8712645   2.846   4.144   6.573 -0.4586  0.4341 -0.0013
   40MOL    C8812646   2.859   4.308   6.363  0.4198  0.2029  0.2612
   40MOL    C8912647   2.853   4.349   6.233  0.2561 -0.2146  1.1062
   40MOL    C9012648   2.945   4.211   5.912 -0.6905 -0.1245  0.1437
   40MOL    H9112649   2.847   4.400   5.995  0.4432 -0.3548 -0.0994
   40MOL    H9212650   2.757   4.060   6.098  0.9639 -0.1198 -0.9629
   40MOL    H9312651   2.736   3.995   6.337  0.0960 -0.9555 -0.9238
   40MOL    H9412652   2.892   4.381   6.436 -0.5911 -0.8072  1.7420
   40MOL    H9512653   2.883   4.446   6.195 -0.1677 -0.6445 -0.3595
   40MOL    H9612654   2.919   4.105   5.921  1.2818 -0.4023  2.8534
   40MOL    H9712655   2.941   4.230   5.804 -1.3537  0.9034  0.3435
   40MOL    C9812656   3.092   4.243   5.951 -0.5487 -0.2057 -0.2590
   40MOL    C9912657   3.114   4.399   5.930  0.4744  0.4361 -0.2151
   40MOL   C10012658   3.121   4.495   6.031 -0.0818 -0.2488  0.0568
   40MOL   C10112659   3.146   4.629   6.001 -0.2480 -0.2032 -0.2976
   40MOL   C10212660   3.160   4.668   5.868 -0.4273  0.2333  0.4905
   40MOL  Cl10312661   3.174   4.838   5.831  0.0871  0.7137  0.1029
   40MOL   C10412662   3.152   4.577   5.768  0.1831  0.0820 -0.0272
   40MOL   C10512663   3.132   4.442   5.797  0.0938  0.2102 -0.8200
   40MOL   C10612664   3.143   4.187   6.089  0.8119 -0.2484 -0.5069
   40MOL   H10712665   3.155   4.196   5.876 -0.0639  0.6004 -0.3735
   40MOL   H10812666   3.120   4.459   6.133 -0.4159 -0.1193  0.1034
   40MOL   H10912667   3.148   4.706   6.077 -3.5595  0.3328 -0.6403
   40MOL   H11012668   3.150   4.615   5.667  1.5951  1.0413  0.2962
   40MOL   H11112669   3.138   4.379   5.710  1.1167 -0.0833 -0.5358
   40MOL   H11212670   3.248   4.210   6.073  0.7323 -0.7225 -1.7626
   40MOL   H11312671   3.110   4.248   6.174  0.7998 -0.7446 -0.1569
   40MOL   C11412672   3.110   4.033   6.119 -0.5674 -0.8603 -0.5145
   40MOL   C11512673   3.130   3.931   6.008 -0.1268 -0.3787 -0.9921
   40MOL   C11612674   3.257   3.904   5.958  0.6212  0.0158 -0.2607
   40MOL   C11712675   3.270   3.815   5.847 -0.1892 -0.6883  0.2477
   40MOL   C11812676   3.161   3.751   5.794 -0.2470  0.6009 -0.9928
   40MOL  Cl11912677   3.195   3.630   5.684 -0.2642  0.2057 -0.0155
   40MOL   C12012678   3.036   3.768   5.842 -0.3863 -0.3931  1.1345
   40MOL   C12112679   3.021   3.864   5.948  1.2873 -1.0819  0.4092
   40MOL   C12212680   3.203   3.992   6.241  0.5052 -0.5734 -0.1861
   40MOL   H12312681   3.007   4.030   6.152 -0.8122 -0.5393 -1.2463
   40MOL   H12412682   3.348   3.945   6.000  0.8168  0.2894 -0.9401
   40MOL   H12512683   3.370   3.804   5.808 -1.0358 -2.0693 -1.6467
   40MOL   H12612684   2.949   3.730   5.789 -2.1078  2.0777  2.0976
   40MOL   H12712685   2.923   3.881   5.988  1.5048  1.8606 -0.1847
   40MOL   H12812686   3.306   3.982   6.206  0.2414 -1.6558 -0.6794
   40MOL   H12912687   3.214   4.072   6.314  3.1605 -1.7011  0.7313
   40MOL   C13012688   3.164   3.852   6.298  0.2317  0.2568 -0.9202
   40MOL   C13112689   3.265   3.839   6.412  0.3379  0.4340  0.6974
   40MOL   C13212690   3.299   3.935   6.508  0.3010 -0.2481  0.3442
   40MOL   C13312691   3.405   3.918   6.603  0.5401 -0.1938  0.4388
   40MOL   C13412692   3.464   3.792   6.621  0.7771  0.5516 -0.0295
   40MOL  Cl13512693   3.572   3.756   6.746  0.2192 -0.1525  0.4747
   40MOL   C13612694   3.431   3.686   6.527  0.5448 -0.2825 -0.6940
   40MOL   C13712695   3.338   3.715   6.423 -0.2360  0.1655  0.3133
   40MOL   C13812696   3.021   3.839   6.350  0.5743  0.2025  0.1252
   40MOL   H13912697   3.181   3.776   6.222  2.5817 -0.3554  0.1823
   40MOL   H14012698   3.243   4.027   6.507 -0.7589 -0.8640 -2.6056
   40MOL   H14112699   3.436   4.004   6.660 -2.7047  2.1719 -1.2209
   40MOL   H14212700   3.484   3.593   6.533  1.4542  0.3399  1.2157
   40MOL   H14312701   3.330   3.631   6.355  3.1283  0.6236 -0.7467
   40MOL   H14412702   2.995   3.920   6.418 -0.4817 -0.1555  0.1392
   40MOL   H14512703   2.953   3.856   6.267 -1.9428 -0.7136  1.9659
   40MOL   C14612704   2.969   3.712   6.426  0.2520  0.1199  0.6901
   40MOL   C14712705   2.827   3.739   6.475 -0.0069  0.2260  0.0639
   40MOL   C14812706   2.810   3.787   6.606 -0.5200 -0.0729 -0.4533
   40MOL   C14912707   2.687   3.833   6.657 -0.2330 -0.0282  0.2279
   40MOL   C15012708   2.579   3.831   6.566  0.2410 -0.1010  0.5264
   40MOL  Cl15112709   2.422   3.894   6.613 -0.0117 -0.0721  0.3251
   40MOL   C15212710   2.593   3.793   6.429  0.5009 -0.4773  0.5416
   40MOL   C15312711   2.713   3.735   6.389  0.0842 -0.4302 -0.8369
   40MOL   C15412712   2.976   3.590   6.336 -0.3887 -0.1681 -0.6056
   40MOL   H15512713   3.034   3.697   6.512  0.3240  1.4929  0.8717
   40MOL   H15612714   2.891   3.796   6.676 -1.4209 -0.9445  0.7126
   40MOL   H15712715   2.679   3.874   6.757  1.2802  0.4108  0.1785
   40MOL   H15812716   2.505   3.796   6.365  0.6519  0.1152  0.3615
   40MOL   H15912717   2.716   3.718   6.282 -1.2770 -1.7672 -0.6783
   40MOL   H16012718   2.925   3.600   6.240 -0.9727  0.4574 -0.2270
   40MOL   H16112719   3.084   3.592   6.319 -0.1710  3.3947  0.7459
   40MOL   C16212720   2.949   3.451   6.411  0.6831 -0.1735  0.8069
   40MOL   C16312721   2.935   3.346   6.296 -0.2128 -0.0791 -1.2009
   40MOL   C16412722   2.827   3.256   6.295  0.0357  0.6241 -0.1006
   40MOL   C16512723   2.809   3.164   6.190 -0.6234  0.3589  0.4955
   40MOL   C16612724   2.894   3.169   6.079 -0.3163 -0.7320  0.2993
   40MOL  Cl16712725   2.857   3.069   5.951 -0.4860 -0.2628  0.0901
   40MOL   C16812726   3.010   3.250   6.076 -0.2769 -0.2393  0.1291
   40MOL   C16912727   3.026   3.340   6.183 -0.1687  0.0086  0.3680
   40MOL   C17012728   3.057   3.413   6.509 -0.0738  0.9116  0.4111
   40MOL   H17112729   2.857   3.466   6.467  0.0947 -0.7751 -0.0040
   40MOL   H17212730   2.761   3.253   6.380  1.6227  1.3475  1.1705
   40MOL   H17312731   2.728   3.093   6.204 -0.1662 -0.7329 -2.1244
   40MOL   H17412732   3.069   3.261   5.986 -1.8987 -0.4828 -0.9859
   40MOL   H17512733   3.110   3.407   6.190  1.1600 -1.7695  1.9613
   40MOL   H17612734   3.152   3.448   6.469 -0.6151  1.5124 -0.3597
   40MOL   H17712735   3.044   3.470   6.601 -0.9918  1.8489 -0.2889
   40MOL   C17812736   3.090   3.269   6.548  0.0885  0.4539 -0.5467
   40MOL   C17912737   3.228   3.259   6.621  0.1468  0.3948 -0.9542
   40MOL   C18012738   3.249   3.334   6.736  0.2193 -0.5156  0.6840
   40MOL   C18112739   3.376   3.345   6.793 -0.0515  0.0759 -0.3590
   40MOL   C18212740   3.481   3.273   6.739 -0.1349  0.0927  0.4361
   40MOL  Cl18312741   3.640   3.297   6.800 -0.1088  0.3892  0.1600
   40MOL   C18412742   3.460   3.193   6.627  0.3387 -0.7567  1.4936
   40MOL   C18512743   3.336   3.187   6.566  0.3401  0.7896  0.2818
   40MOL   C18612744   2.980   3.212   6.638 -0.2255  0.4146  0.2532
   40MOL   H18712745   3.096   3.218   6.452 -0.2892 -1.7428  0.5512
   40MOL   H18812746   3.173   3.393   6.784 -0.3459 -0.6938  0.0125
   40MOL   H18912747   3.386   3.418   6.872  2.0690  1.2767 -1.6861
   40MOL   H19012748   3.538   3.130   6.588 -1.2873 -2.0287  0.2195
   40MOL   H19112749   3.326   3.126   6.477 -0.9569  0.6429  0.5306
   40MOL   H19212750   2.990   3.253   6.739 -0.5160  1.1276 -0.0057
   40MOL   H19312751   2.881   3.239   6.601 -0.5236  0.5909  1.1592
   40MOL   C19412752   2.995   3.063   6.658  0.6630  0.2815  0.4404
   40MOL   C19512753   2.903   3.025   6.773 -0.3056 -0.7677 -0.4057
   40MOL   C19612754   2.763   3.019   6.764  0.1461 -0.2715  0.2241
   40MOL   C19712755   2.691   2.963   6.870  0.8185  0.1513  0.4266
   40MOL   C19812756   2.750   2.928   6.990 -0.3405  0.0338  0.0758
   40MOL  Cl19912757   2.651   2.890   7.124  0.1288  0.4141 -0.0197
   40MOL   C20012758   2.886   2.942   7.003 -0.6600 -0.3368 -0.5475
   40MOL   C20112759   2.962   2.991   6.896 -0.0964 -0.5066  0.2135
   40MOL   C20212760   2.952   2.986   6.530 -0.5447  0.4833 -0.2920
   40MOL   H20312761   3.097   3.031   6.677  0.5068  0.9309  2.4775
   40MOL   H20412762   2.712   3.054   6.675 -0.7888 -0.1932  0.7727
   40MOL   H20512763   2.585   2.958   6.853  0.6016  0.2346  1.6833
   40MOL   H20612764   2.928   2.907   7.096 -0.8847 -1.0784 -0.7241
   40MOL   H20712765   3.068   3.011   6.897 -0.0589 -0.6865 -0.1207
   40MOL   H20812766   2.861   3.034   6.493 -1.4071  1.7559  3.2922
   40MOL   H20912767   3.029   3.004   6.454 -0.3008  1.5672  0.1966
   40MOL   C21012768   2.927   2.832   6.539  0.4446  0.1657  0.2964
   40MOL   C21112769   2.856   2.794   6.408 -0.0885  0.0967  0.3423
   40MOL   C21212770   2.917   2.808   6.284 -0.7664  0.4384 -0.0143
   40MOL   C21312771   2.848   2.769   6.170  0.1933 -0.2998 -0.0712
   40MOL   C21412772   2.710   2.731   6.171  0.8741  0.0168 -0.0477
   40MOL  Cl21512773   2.634   2.675   6.021 -0.4496 -0.1411 -0.3413
   40MOL   C21612774   2.650   2.726   6.298 -0.3614  0.5099  0.1903
   40MOL   C21712775   2.723   2.748   6.415 -0.0012 -0.0162 -0.5256
   40MOL   C21812776   3.060   2.757   6.573  0.0649 -0.1822  0.3421
   40MOL   H21912777   2.849   2.813   6.613  0.4406 -0.6729  0.0811
   40MOL   H22012778   3.018   2.847   6.283 -0.1001 -1.2432 -1.5093
   40MOL   H22112779   2.898   2.758   6.075  1.7038  3.3324  0.2171
   40MOL   H22212780   2.552   2.682   6.306  0.2162 -0.3530  3.3181
   40MOL   H22312781   2.664   2.740   6.505 -0.2513  0.3752 -0.6557
   40MOL   H22412782   3.137   2.792   6.505 -0.5578  0.5660  0.0168
   40MOL   H22512783   3.080   2.783   6.677  2.1681  0.1478 -0.1230
   40MOL   C22612784   3.055   2.601   6.557  0.0251  0.0412  0.1621
   40MOL   C22712785   3.189   2.542   6.591  0.8465  0.4586 -0.4397
   40MOL   C22812786   3.231   2.498   6.721  0.3482 -1.0947 -0.2134
   40MOL   C22912787   3.360   2.450   6.750  0.2056 -0.7811  0.7304
   40MOL   C23012788   3.456   2.442   6.648  0.3855 -0.3607 -0.5088
   40MOL  Cl23112789   3.620   2.398   6.687 -0.4031  0.1809  0.2502
   40MOL   C23212790   3.417   2.476   6.513 -0.1504 -0.3886  0.3876
   40MOL   C23312791   3.286   2.522   6.489  0.4269  0.2620 -0.1027
   40MOL   C23412792   2.939   2.536   6.647  0.7208  1.4252  0.1415
   40MOL   H23512793   3.039   2.573   6.453 -0.7869 -0.9698  0.5455
   40MOL   H23612794   3.158   2.500   6.800 -1.1549 -0.9882 -1.5758
   40MOL   H23712795   3.392   2.420   6.849  2.4704  0.1557  0.3065
   40MOL   H23812796   3.492   2.471   6.436 -1.0268 -0.6351 -0.4677
   40MOL   H23912797   3.271   2.555   6.387 -0.3442  0.4886  0.0765
   40MOL   H24012798   2.966   2.529   6.752  2.3987 -0.2318 -0.3790
   40MOL   H24112799   2.839   2.578   6.662  0.1200  0.6286 -1.5200
   40MOL   C24212800   2.893   2.400   6.601 -0.3304  0.4702  0.3445
   40MOL   C24312801   2.805   2.334   6.708  0.4515 -0.5760 -0.4575
   40MOL   C24412802   2.676   2.379   6.720 -0.2082 -0.2851  0.4983
   40MOL   C24512803   2.590   2.320   6.814 -0.1339  1.1476 -0.3225
   40MOL   C24612804   2.628   2.210   6.891  0.3916  0.4171  0.4966
   40MOL  Cl24712805   2.508   2.125   6.990  0.0897 -0.0279 -0.1417
   40MOL   C24812806   2.756   2.157   6.876 -0.3198  0.8233  0.0122
   40MOL   C24912807   2.847   2.222   6.787  0.0008  1.0935 -0.7507
   40MOL   C25012808   2.829   2.387   6.463  0.1438 -0.4706 -0.5351
   40MOL   H25112809   2.982   2.336   6.603 -1.2123 -0.7664  0.3192
   40MOL   H25212810   2.642   2.460   6.656  1.8099 -0.0423 -0.2901
   40MOL   H25312811   2.490   2.357   6.830  0.2441  1.8016  0.5192
   40MOL   H25412812   2.790   2.077   6.940  1.3531  0.7739 -0.9071
   40MOL   H25512813   2.950   2.189   6.787 -0.4522 -0.4297 -2.6128
   40MOL   H25612814   2.742   2.453   6.467  1.7110  1.5933  0.5687
   40MOL   H25712815   2.891   2.421   6.380 -1.8933  1.8176 -1.1907
   40MOL   C25812816   2.781   2.242   6.429  0.0205  0.1507 -0.0040
   40MOL   C25912817   2.670   2.243   6.321  0.5580  0.1291 -0.1786
   40MOL   C26012818   2.541   2.199   6.352  0.2340  0.3618 -0.9977
   40MOL   C26112819   2.444   2.195   6.245  1.0029 -0.1534 -0.4534
   40MOL   C26212820   2.481   2.227   6.118  0.2767 -0.1739 -0.5444
   40MOL  Cl26312821   2.372   2.217   5.988  0.2138  0.2887 -0.3047
   40MOL   C26412822   2.610   2.262   6.083  0.2672  0.4131 -0.7301
   40MOL   C26512823   2.703   2.283   6.188  0.1167  0.2564 -0.3550
   40MOL   C26612824   2.898   2.146   6.396 -0.4234  0.3135  0.4151
   40MOL   H26712825   2.727   2.188   6.507  0.1038 -0.2409 -0.2174
   40MOL   H26812826   2.513   2.178   6.454 -2.2493  1.7245 -1.3701
   40MOL   H26912827   2.345   2.158   6.266  1.1960 -1.6731 -2.0687
   40MOL   H27012828   2.636   2.274   5.979  0.0397 -3.2114 -1.2480
   40MOL   H27112829   2.804   2.314   6.168  0.2910 -0.3751 -0.4708
   40MOL   H27212830   2.977   2.198   6.342 -1.3331  1.7189  0.4391
   40MOL   H27312831   2.939   2.113   6.492 -0.7637 -1.9333 -0.1850
   40MOL   C27412832   2.863   2.019   6.311  0.4838  0.6317 -0.4782
   40MOL   C27512833   2.989   1.964   6.235  0.3528 -0.1585  0.5826
   40MOL   C27612834   3.000   1.987   6.091  0.5714  0.1658  0.3925
   40MOL   C27712835   3.113   1.934   6.028 -0.2468 -0.2356  0.2691
   40MOL   C27812836   3.215   1.869   6.097  0.7493 -0.7448 -0.1341
   40MOL  Cl27912837   3.343   1.797   6.007  0.0730  0.3471 -0.0942
   40MOL   C28012838   3.198   1.845   6.233  0.3624  0.2887  0.3352
   40MOL   C28112839   3.098   1.901   6.303 -0.4898  0.1537  0.6959
   40MOL   C28212840   2.784   1.914   6.389 -0.0659 -0.2681 -0.1482
   40MOL   H28312841   2.811   2.062   6.225 -3.7719 -2.9111  0.1486
   40MOL   H28412842   2.920   2.032   6.035  1.3657  1.2335  0.0995
   40MOL   H28512843   3.119   1.943   5.920  0.4596 -1.8500  0.1665
   40MOL   H28612844   3.265   1.774   6.281 -0.2594 -0.0265  0.7468
   40MOL   H28712845   3.082   1.892   6.410  1.4730 -2.3939  0.8358
   40MOL   H28812846   2.865   1.864   6.442 -0.3505 -1.9664 -1.3158
   40MOL   H28912847   2.717   1.968   6.455  1.8159  2.4216 -0.3129
   40MOL   C29012848   2.713   1.801   6.304 -0.3836 -0.4420  0.1249
   40MOL   C29112849   2.699   1.672   6.382 -0.1751  0.2823 -0.2772
   40MOL   C29212850   2.772   1.562   6.339  0.9168 -0.1217  0.1215
   40MOL   C29312851   2.758   1.435   6.395  0.0987 -0.2710  0.0169
   40MOL   C29412852   2.654   1.409   6.486  0.1280  0.1099  0.4763
   40MOL  Cl29512853   2.619   1.253   6.541  0.0458 -0.2138  0.3009
   40MOL   C29612854   2.581   1.515   6.527  0.1217  0.3548  0.5013
   40MOL   C29712855   2.602   1.644   6.479 -0.6307 -0.5427 -0.2297
   40MOL   C29812856   2.581   1.857   6.243  0.1897 -0.3360  0.1197
   40MOL   H29912857   2.767   1.761   6.218  2.9086 -0.1150  1.9568
   40MOL   H30012858   2.848   1.569   6.263  0.7726  1.8493  0.1220
   40MOL   H30112859   2.822   1.350   6.377 -1.7788 -1.9779  1.3087
   40MOL   H30212860   2.502   1.502   6.600 -0.5579  2.7329  0.2209
   40MOL   H30312861   2.526   1.714   6.511 -0.2498  0.5306 -1.6356
   40MOL   H30412862   2.507   1.899   6.310  0.4190  1.0667 -0.5020
   40MOL   H30512863   2.613   1.944   6.186 -3.7619  0.1565 -1.4253
   40MOL   C30612864   2.512   1.761   6.142 -0.4567  0.3558 -0.7933
   40MOL   C30712865   2.394   1.687   6.198  0.2987  0.4169  0.7093
   40MOL   C30812866   2.405   1.546   6.217  0.5990  0.3074 -0.0629
   40MOL   C30912867   2.293   1.480   6.266  0.2913 -0.3614 -0.1429
   40MOL   C31012868   2.169   1.552   6.290  0.1630 -0.5196 -0.1119
   40MOL  Cl31112869   2.034   1.452   6.343 -0.3891 -0.3444  0.1498
   40MOL   C31212870   2.162   1.689   6.281  0.1283 -0.7617  0.2078
   40MOL   C31312871   2.277   1.757   6.236 -0.2696 -0.1166  0.5154
   40MOL   C31412872   2.474   1.846   6.020  0.7315 -0.0953  0.0291
   40MOL   H31512873   2.588   1.687   6.116 -0.3527  0.1775  0.0265
   40MOL   H31612874   2.495   1.493   6.187 -0.5603 -3.9308  3.5247
   40MOL   H31712875   2.298   1.373   6.279  2.2790 -0.0651  1.6532
   40MOL   H31812876   2.066   1.738   6.286 -0.9098 -2.7456 -0.1113
   40MOL   H31912877   2.277   1.862   6.211 -1.1929  0.4267  2.6999
   40MOL   H32012878   2.419   1.931   6.059  0.0001 -0.0229 -1.1565
   40MOL   H32112879   2.553   1.880   5.953  1.2228 -0.3731  0.4608
   40MOL   H32212880   2.412   1.789   5.952  0.2052 -1.2778  1.4600
   41MOL     C112881   0.778   3.321   5.958 -0.3319 -0.7946 -0.4273
   41MOL     C212882   0.883   3.289   5.856  0.1622 -0.2109 -0.6319
   41MOL     C312883   1.015   3.272   5.892 -0.5893 -0.0768 -0.4293
   41MOL     C412884   1.118   3.253   5.794  0.3623 -0.0329  0.7345
   41MOL     C512885   1.085   3.237   5.660  0.1779 -0.2885  0.0056
   41MOL    Cl612886   1.215   3.240   5.552  0.0092 -0.2136 -0.0339
   41MOL     C712887   0.951   3.252   5.622  0.1914  0.6691  0.1557
   41MOL     C812888   0.855   3.285   5.717 -0.2568  0.5551 -0.3426
   41MOL     C912889   0.770   3.214   6.074  0.0493 -0.0870 -0.3063
   41MOL    H1012890   0.687   3.330   5.898 -1.3397 -0.9036  1.0300
   41MOL    H1112891   1.050   3.281   5.993 -0.6544  3.5052 -0.6609
   41MOL    H1212892   1.224   3.256   5.813  0.4521  1.3167  0.0950
   41MOL    H1312893   0.920   3.267   5.519 -2.5438 -4.1582  0.1603
   41MOL    H1412894   0.756   3.319   5.689 -1.1895 -1.2854  0.6139
   41MOL    H1512895   0.727   3.121   6.035  2.1375 -0.7115 -1.2072
   41MOL    H1612896   0.871   3.180   6.100 -0.4434  1.4403  3.9723
   41MOL    H1712897   0.799   3.422   5.993 -0.4612 -1.1928  0.8262
   41MOL    C1812898   0.694   3.263   6.195 -0.4724  0.1999 -0.2180
   41MOL    C1912899   0.562   3.326   6.143 -0.8553  0.5208  0.3180
   41MOL    C2012900   0.545   3.464   6.126 -0.1184 -0.4990 -0.4642
   41MOL    C2112901   0.419   3.523   6.097  0.4145  0.1483  0.8440
   41MOL    C2212902   0.313   3.438   6.071  0.5613  0.1298  0.6728
   41MOL   Cl2312903   0.160   3.518   6.038 -0.1054  0.0850 -0.1922
   41MOL    C2412904   0.323   3.297   6.084  0.1644  0.0432  0.1533
   41MOL    C2512905   0.446   3.243   6.111  0.2329  0.1027 -0.5549
   41MOL    C2612906   0.663   3.149   6.301 -0.0194 -0.1371 -0.3842
   41MOL    H2712907   0.751   3.342   6.242 -0.5525  0.6452 -0.8688
   41MOL    H2812908   0.634   3.518   6.156 -0.5504  0.2671 -0.5541
   41MOL    H2912909   0.407   3.630   6.105 -0.2568  0.3012 -1.6153
   41MOL    H3012910   0.233   3.239   6.071  1.8054 -2.2112 -1.6411
   41MOL    H3112911   0.455   3.137   6.125  1.5172  0.1445 -1.0579
   41MOL    H3212912   0.589   3.183   6.374  2.1454 -0.0990  1.8692
   41MOL    H3312913   0.622   3.066   6.244 -0.6540  1.6471 -2.6122
   41MOL    C3412914   0.789   3.104   6.384  0.0735  0.1447  0.5782
   41MOL    C3512915   0.846   3.221   6.473 -0.3631 -0.2385  0.2403
   41MOL    C3612916   0.766   3.299   6.553  0.3686 -0.4829  0.0295
   41MOL    C3712917   0.814   3.398   6.640  0.3010 -0.2539 -0.3114
   41MOL    C3812918   0.954   3.413   6.656 -0.5774 -0.2311  0.3759
   41MOL   Cl3912919   1.026   3.520   6.764 -0.0424 -0.2179  0.0653
   41MOL    C4012920   1.032   3.338   6.566 -0.2801  0.3720 -0.4716
   41MOL    C4112921   0.985   3.244   6.481  1.6907 -0.2560  0.7402
   41MOL    C4212922   0.764   2.983   6.482  0.0116 -0.1166  0.1382
   41MOL    H4312923   0.862   3.078   6.308 -1.3782 -0.9988 -0.4611
   41MOL    H4412924   0.660   3.282   6.557  0.3569 -0.0765  1.9873
   41MOL    H4512925   0.755   3.463   6.703 -2.0209 -3.1955  0.6523
   41MOL    H4612926   1.139   3.356   6.570 -0.6089  2.5211 -0.9310
   41MOL    H4712927   1.046   3.179   6.419  0.9500 -0.2188 -0.0352
   41MOL    H4812928   0.706   3.014   6.569  0.3550  1.2320 -0.1038
   41MOL    H4912929   0.696   2.919   6.425  0.3964 -0.2754 -0.1438
   41MOL    C5012930   0.894   2.907   6.524  0.2565  0.3286  0.1377
   41MOL    C5112931   0.877   2.820   6.648  0.3378 -0.4163  0.0919
   41MOL    C5212932   0.755   2.750   6.661  0.1911 -0.0332 -0.3549
   41MOL    C5312933   0.736   2.670   6.778 -0.8601  0.0825  0.1215
   41MOL    C5412934   0.828   2.662   6.879 -0.9626  1.1867 -0.2559
   41MOL   Cl5512935   0.792   2.573   7.018 -0.0187  0.3305 -0.0938
   41MOL    C5612936   0.956   2.720   6.860 -0.4839 -0.6271 -0.1585
   41MOL    C5712937   0.978   2.798   6.743  0.3753 -0.2744 -0.3343
   41MOL    C5812938   0.942   2.817   6.401  0.4206 -0.0313  0.0681
   41MOL    H5912939   0.972   2.980   6.545 -0.4967  0.9861  0.6316
   41MOL    H6012940   0.671   2.750   6.593  0.0033 -0.8154 -0.1292
   41MOL    H6112941   0.646   2.613   6.794  0.4766 -1.8990  0.7009
   41MOL    H6212942   1.027   2.712   6.941 -0.4929 -2.5105 -0.3179
   41MOL    H6312943   1.075   2.844   6.734  0.7316 -0.8851  0.3043
   41MOL    H6412944   0.867   2.743   6.374 -1.3255  2.1496 -1.2282
   41MOL    H6512945   0.963   2.886   6.320 -0.6552 -1.1161 -1.1385
   41MOL    C6612946   1.075   2.740   6.429  0.1908  0.0621  0.2591
   41MOL    C6712947   1.107   2.649   6.311 -0.5702  0.2116  0.1914
   41MOL    C6812948   1.111   2.511   6.336 -0.5149 -0.4478 -0.0122
   41MOL    C6912949   1.132   2.418   6.230  0.4063 -0.0950  1.0197
   41MOL    C7012950   1.161   2.463   6.095  0.7691  0.5366  0.2771
   41MOL   Cl7112951   1.202   2.351   5.968 -0.0314 -0.0519  0.1117
   41MOL    C7212952   1.153   2.601   6.071  0.0704  0.7945 -0.2062
   41MOL    C7312953   1.129   2.696   6.178  0.6292  0.3347 -0.2186
   41MOL    C7412954   1.186   2.843   6.463 -0.8181 -0.1261 -0.2564
   41MOL    H7512955   1.060   2.684   6.521 -0.5245  1.0768  0.7554
   41MOL    H7612956   1.105   2.462   6.432  2.3399  0.2036  0.5552
   41MOL    H7712957   1.131   2.311   6.245  1.8429 -0.1957  0.4203
   41MOL    H7812958   1.152   2.644   5.972 -0.4367  0.6588 -0.2581
   41MOL    H7912959   1.117   2.800   6.151  0.9809  0.5974  0.6255
   41MOL    H8012960   1.188   2.921   6.386  1.9160 -0.8240 -0.9254
   41MOL    H8112961   1.159   2.886   6.559  1.0018 -0.5842  0.4742
   41MOL    C8212962   1.326   2.781   6.478 -0.1388 -1.4244  0.3929
   41MOL    C8312963   1.436   2.889   6.443 -0.7582  0.0603  0.5587
   41MOL    C8412964   1.504   2.878   6.320  0.4083  0.6384 -0.0119
   41MOL    C8512965   1.597   2.976   6.289 -0.4543 -0.2921 -0.1084
   41MOL    C8612966   1.630   3.078   6.382 -0.0844  0.7081  0.1699
   41MOL   Cl8712967   1.741   3.198   6.332 -0.0447  0.2126  0.0014
   41MOL    C8812968   1.563   3.077   6.501  0.0185  0.1460  0.0356
   41MOL    C8912969   1.464   2.985   6.540  0.5702 -0.5200 -1.1394
   41MOL    C9012970   1.342   2.707   6.607  0.4008 -0.1546 -0.2049
   41MOL    H9112971   1.340   2.706   6.401 -1.4642  0.0967 -1.3935
   41MOL    H9212972   1.483   2.805   6.243 -0.6884  0.7927  0.1395
   41MOL    H9312973   1.641   2.970   6.191 -1.0410  3.2652 -0.6528
   41MOL    H9412974   1.570   3.155   6.576 -1.2371 -1.3255  1.7212
   41MOL    H9512975   1.398   2.998   6.624 -0.0025  2.6378 -2.0200
   41MOL    H9612976   1.345   2.781   6.687 -2.0957  1.7461 -1.7793
   41MOL    H9712977   1.253   2.649   6.635  0.2120 -0.4544 -1.4015
   41MOL    C9812978   1.466   2.619   6.607  0.3992 -0.0301 -0.1216
   41MOL    C9912979   1.516   2.607   6.750  0.4310 -0.5158 -0.1009
   41MOL   C10012980   1.637   2.658   6.795  0.1611  0.0711  0.6122
   41MOL   C10112981   1.670   2.655   6.938  0.5420 -0.3919 -0.0157
   41MOL   C10212982   1.579   2.605   7.031  0.3533  0.5166  0.1123
   41MOL  Cl10312983   1.607   2.600   7.200 -0.0388  0.2279 -0.0572
   41MOL   C10412984   1.468   2.537   6.979 -0.0703  0.2710 -0.0947
   41MOL   C10512985   1.436   2.541   6.843  0.2182  0.1953 -0.3605
   41MOL   C10612986   1.424   2.486   6.542 -0.2327  0.9046  0.4561
   41MOL   H10712987   1.539   2.666   6.541  0.6485 -0.4654 -0.1571
   41MOL   H10812988   1.689   2.703   6.711 -3.6783  0.3088 -1.7846
   41MOL   H10912989   1.756   2.706   6.980 -0.5727  2.6441 -1.2618
   41MOL   H11012990   1.398   2.491   7.048  0.8643  0.3244  0.8977
   41MOL   H11112991   1.340   2.497   6.818 -1.1562  3.0148 -0.2142
   41MOL   H11212992   1.334   2.448   6.591  0.1150 -0.7186 -0.1151
   41MOL   H11312993   1.403   2.499   6.436  2.0905 -1.4675 -0.3399
   41MOL   C11412994   1.527   2.362   6.543  0.4527  0.3328 -0.2955
   41MOL   C11512995   1.476   2.255   6.450  0.8815  0.4823 -0.0857
   41MOL   C11612996   1.393   2.152   6.509  0.1727  0.4623 -0.7860
   41MOL   C11712997   1.320   2.069   6.427  0.0707  0.7737  0.2036
   41MOL   C11812998   1.334   2.079   6.284  0.0178 -0.3827 -0.9702
   41MOL  Cl11912999   1.233   1.990   6.181  0.1957  0.1334 -0.2079
   41MOL   C12013000   1.413   2.182   6.226 -0.3318 -0.4248 -0.7168
   41MOL   C12113001   1.492   2.266   6.310  0.0005 -0.5926 -0.5390
   41MOL   C12213002   1.676   2.397   6.511  0.2174  0.2276 -0.6795
   41MOL   H12313003   1.521   2.319   6.643  1.4499 -0.9401 -0.7786
   41MOL   H12413004   1.377   2.147   6.615  0.4468 -0.5965 -0.7920
   41MOL   H12513005   1.261   1.985   6.461  0.2973  0.7665  0.5809
   41MOL   H12613006   1.425   2.194   6.120 -1.7898  0.8210 -0.7588
   41MOL   H12713007   1.548   2.347   6.266  1.1031 -0.9620  0.1524
   41MOL   H12813008   1.685   2.435   6.410  1.1736 -1.2852 -1.1742
   41MOL   H12913009   1.716   2.475   6.575 -0.7680  0.6080 -0.5188
   41MOL   C13013010   1.781   2.289   6.501  0.4107  0.5246  0.2304
   41MOL   C13113011   1.909   2.343   6.448  0.8372 -0.0104  0.5884
   41MOL   C13213012   1.969   2.286   6.328 -0.5827  0.1437 -0.1692
   41MOL   C13313013   2.089   2.337   6.280 -0.5286  0.5542 -0.2339
   41MOL   C13413014   2.153   2.436   6.352 -0.7394 -0.2455  0.4856
   41MOL  Cl13513015   2.308   2.486   6.307  0.4090  0.1909  0.4037
   41MOL   C13613016   2.102   2.484   6.472 -0.4698 -0.3290 -0.1041
   41MOL   C13713017   1.976   2.440   6.518  0.2148 -0.1487  0.7184
   41MOL   C13813018   1.807   2.193   6.623  0.4472  0.1556 -0.5172
   41MOL   H13913019   1.742   2.218   6.428 -1.6367  1.2577  0.5584
   41MOL   H14013020   1.917   2.202   6.282 -1.2723  0.0379  0.7729
   41MOL   H14113021   2.133   2.295   6.190 -0.9331  2.2067 -1.2416
   41MOL   H14213022   2.161   2.553   6.530  0.3103  0.8487 -2.2598
   41MOL   H14313023   1.928   2.486   6.603 -1.4446 -3.1175  1.4351
   41MOL   H14413024   1.866   2.243   6.699  0.0409  0.7779 -0.6003
   41MOL   H14513025   1.711   2.170   6.669  1.8129 -0.3915  2.1508
   41MOL   C14613026   1.881   2.064   6.589 -0.1390 -0.3522 -0.5648
   41MOL   C14713027   2.028   2.064   6.608  0.1804  0.3624  1.3894
   41MOL   C14813028   2.087   2.082   6.736 -0.2214  0.3384  0.3371
   41MOL   C14913029   2.227   2.070   6.757  0.0880  0.5189  0.4188
   41MOL   C15013030   2.311   2.042   6.646  0.3375 -0.2330  1.2665
   41MOL  Cl15113031   2.477   2.018   6.664 -0.0549 -0.9300  0.1107
   41MOL   C15213032   2.250   2.025   6.522 -0.2702  0.2853 -0.5419
   41MOL   C15313033   2.116   2.046   6.497  0.0363  0.4993  0.3096
   41MOL   C15413034   1.816   1.948   6.669 -0.6877 -0.1589 -0.4583
   41MOL   H15513035   1.859   2.040   6.486  0.1850  0.9220 -0.9426
   41MOL   H15613036   2.027   2.103   6.824 -1.2582  1.6150 -0.6621
   41MOL   H15713037   2.268   2.080   6.857 -1.0325  1.3073  0.8065
   41MOL   H15813038   2.307   1.986   6.439 -0.7751  0.7196 -1.0910
   41MOL   H15913039   2.075   2.036   6.397  0.4054  0.9012  0.1166
   41MOL   H16013040   1.893   1.872   6.671 -1.0703 -0.5179  0.8186
   41MOL   H16113041   1.815   1.992   6.769  0.8001 -1.1357 -0.0130
   41MOL   C16213042   1.683   1.882   6.629  0.1350  0.0715  0.1571
   41MOL   C16313043   1.693   1.832   6.483 -0.1963  0.1896 -0.1527
   41MOL   C16413044   1.644   1.915   6.377  0.2411  0.4583  0.2712
   41MOL   C16513045   1.647   1.864   6.243  0.1844 -0.4638 -0.4761
   41MOL   C16613046   1.691   1.736   6.224 -0.0330  0.0714  0.2264
   41MOL  Cl16713047   1.706   1.683   6.061 -0.5117  0.0908  0.1415
   41MOL   C16813048   1.743   1.653   6.326 -0.2993  0.1347 -0.1855
   41MOL   C16913049   1.743   1.705   6.456 -0.6369  0.2066  0.3532
   41MOL   C17013050   1.656   1.766   6.726 -0.3945  0.1541  0.2138
   41MOL   H17113051   1.612   1.965   6.629  1.5390  1.3023 -0.8997
   41MOL   H17213052   1.597   2.010   6.398 -0.3021 -0.0757  1.5195
   41MOL   H17313053   1.616   1.927   6.161 -0.0493  0.1576  0.0836
   41MOL   H17413054   1.787   1.558   6.302  1.5989  0.6032  1.3564
   41MOL   H17513055   1.798   1.651   6.532  0.1108  0.7071  0.1774
   41MOL   H17613056   1.565   1.716   6.693 -0.0037 -0.1893 -0.3538
   41MOL   H17713057   1.728   1.685   6.719 -0.3052  0.1380  1.2734
   41MOL   C17813058   1.632   1.815   6.865  0.8285  0.1131 -0.3632
   41MOL   C17913059   1.533   1.932   6.881  0.2999 -0.7496  1.1591
   41MOL   C18013060   1.572   2.055   6.933 -0.3555 -0.0253  0.4130
   41MOL   C18113061   1.477   2.161   6.943  0.7513 -0.5580 -0.0918
   41MOL   C18213062   1.343   2.143   6.904  0.0292 -0.3451  0.2535
   41MOL  Cl18313063   1.227   2.271   6.937 -0.0557 -0.2347  0.0955
   41MOL   C18413064   1.302   2.016   6.857  0.5957  0.1901  0.4875
   41MOL   C18513065   1.395   1.915   6.835 -0.0553  0.0264 -0.3349
   41MOL   C18613066   1.605   1.706   6.968 -0.0354 -0.4668  0.4394
   41MOL   H18713067   1.730   1.855   6.891  1.6892 -1.5546 -0.9669
   41MOL   H18813068   1.672   2.064   6.973  0.4175 -0.0600 -1.4599
   41MOL   H18913069   1.499   2.259   6.981 -2.0064  0.5446 -1.1697
   41MOL   H19013070   1.199   1.990   6.837  1.1111 -2.1142  0.6855
   41MOL   H19113071   1.371   1.816   6.800  2.6423 -1.9547  3.1554
   41MOL   H19213072   1.579   1.732   7.070  1.0819 -2.2764  1.2160
   41MOL   H19313073   1.518   1.648   6.936  0.2790 -0.9479  0.4493
   41MOL   C19413074   1.717   1.606   6.984  0.4918 -0.3789 -0.1850
   41MOL   C19513075   1.835   1.674   7.057  0.3697  0.3294  0.3979
   41MOL   C19613076   1.960   1.615   7.050  0.2501 -0.4351  0.6321
   41MOL   C19713077   2.071   1.668   7.110  0.2895 -0.3336  0.0958
   41MOL   C19813078   2.065   1.794   7.168 -0.0473 -0.1823  0.6083
   41MOL  Cl19913079   2.213   1.878   7.222  0.0193  0.1651  0.0433
   41MOL   C20013080   1.939   1.856   7.187 -0.0387  0.0035 -0.3503
   41MOL   C20113081   1.822   1.794   7.132 -0.4294  0.0613  0.8302
   41MOL   C20213082   1.675   1.478   7.058  0.2680  0.4027 -0.3361
   41MOL   H20313083   1.763   1.581   6.889 -0.0309 -3.2290  0.2577
   41MOL   H20413084   1.980   1.523   6.999  2.5765  1.1573 -1.4408
   41MOL   H20513085   2.164   1.615   7.106  0.2166 -0.4596  0.0640
   41MOL   H20613086   1.929   1.951   7.239  1.5143  0.3200 -0.5938
   41MOL   H20713087   1.729   1.845   7.150 -1.2700 -1.2137  0.0932
   41MOL   H20813088   1.763   1.415   7.072  0.1689  0.3228 -0.0542
   41MOL   H20913089   1.640   1.498   7.160 -0.6622 -1.9402 -0.1428
   41MOL   C21013090   1.552   1.399   6.988  0.0048 -0.1320 -0.4936
   41MOL   C21113091   1.580   1.388   6.841 -0.9510  0.0161 -0.2580
   41MOL   C21213092   1.706   1.343   6.797 -0.2554  0.2069  0.1952
   41MOL   C21313093   1.729   1.328   6.660 -0.2752  0.3514 -0.5489
   41MOL   C21413094   1.629   1.342   6.571  0.7814 -0.7478  0.4750
   41MOL  Cl21513095   1.651   1.332   6.397 -0.5141 -0.4143  0.1954
   41MOL   C21613096   1.501   1.390   6.615 -0.3838 -0.1069 -0.3870
   41MOL   C21713097   1.483   1.421   6.750 -0.2355 -0.4919  0.6618
   41MOL   C21813098   1.517   1.266   7.053 -0.1633  0.1794  0.0234
   41MOL   H21913099   1.471   1.469   7.006  1.7069  2.0878 -1.1617
   41MOL   H22013100   1.786   1.316   6.864 -0.0651 -2.5353 -1.0832
   41MOL   H22113101   1.827   1.299   6.625 -0.2855  1.2011 -1.3032
   41MOL   H22213102   1.426   1.408   6.539 -0.0326  1.3206 -0.4214
   41MOL   H22313103   1.391   1.472   6.773  1.8817  4.9866 -2.0051
   41MOL   H22413104   1.442   1.222   6.987  0.2273 -2.6896  1.4421
   41MOL   H22513105   1.600   1.195   7.054 -0.4483 -0.1520  0.4757
   41MOL   C22613106   1.451   1.280   7.194  0.1014 -0.4259 -0.5295
   41MOL   C22713107   1.347   1.162   7.209  0.6415 -0.0189  0.2123
   41MOL   C22813108   1.394   1.026   7.222  0.4553  0.4093 -0.1128
   41MOL   C22913109   1.305   0.919   7.255  0.0582  0.0765  0.0681
   41MOL   C23013110   1.168   0.940   7.257  0.8812  0.2791 -0.5547
   41MOL  Cl23113111   1.054   0.813   7.278  0.1721  0.1561  0.0243
   41MOL   C23213112   1.121   1.071   7.232 -0.3110  0.2790 -0.4694
   41MOL   C23313113   1.207   1.181   7.203  0.3373 -0.5714  0.4044
   41MOL   C23413114   1.549   1.282   7.321  0.1295 -0.0820  0.2814
   41MOL   H23513115   1.390   1.370   7.184 -1.7266 -1.4790  0.7252
   41MOL   H23613116   1.499   1.016   7.201  0.2978  0.0300 -0.7521
   41MOL   H23713117   1.347   0.822   7.277 -1.3909 -0.7057 -0.5755
   41MOL   H23813118   1.016   1.090   7.219 -0.0717  2.2080  0.2142
   41MOL   H23913119   1.162   1.279   7.200 -0.2434 -0.7396  2.6765
   41MOL   H24013120   1.609   1.191   7.323 -0.6903 -0.6483 -0.4891
   41MOL   H24113121   1.630   1.354   7.311 -0.2975  0.7729  2.5370
   41MOL   C24213122   1.484   1.305   7.462  0.4935  0.3312  0.5428
   41MOL   C24313123   1.404   1.189   7.517 -0.0789  0.9786 -0.2875
   41MOL   C24413124   1.471   1.067   7.539  0.1166  0.2796 -0.3151
   41MOL   C24513125   1.405   0.952   7.586  0.0249 -0.0024 -0.1390
   41MOL   C24613126   1.273   0.967   7.637 -0.1895 -0.3271  0.3867
   41MOL  Cl24713127   1.185   0.841   7.702  0.0841 -0.1181 -0.1683
   41MOL   C24813128   1.210   1.096   7.631 -0.4561  0.6288  0.7649
   41MOL   C24913129   1.271   1.203   7.570 -0.6052  0.7749  0.4855
   41MOL   C25013130   1.589   1.358   7.572  0.2674 -0.3253  0.1316
   41MOL   H25113131   1.409   1.384   7.461 -0.1970 -0.3317 -0.7895
   41MOL   H25213132   1.572   1.049   7.506  0.0350  0.0954 -0.4690
   41MOL   H25313133   1.458   0.859   7.601  0.3541  0.1115 -0.5653
   41MOL   H25413134   1.108   1.109   7.664 -0.6021 -0.6967  0.8831
   41MOL   H25513135   1.214   1.294   7.565  0.2822  1.2395 -1.7877
   41MOL   H25613136   1.556   1.334   7.673 -0.4731  0.4554  0.0826
   41MOL   H25713137   1.681   1.299   7.569 -0.0798 -0.9287  1.0746
   41MOL   C25813138   1.613   1.515   7.578 -0.0266 -0.2144 -0.1282
   41MOL   C25913139   1.481   1.593   7.587 -0.5771  0.0474  0.1436
   41MOL   C26013140   1.400   1.571   7.699 -0.1445  0.0312  0.3354
   41MOL   C26113141   1.283   1.643   7.712  0.2434  0.3949  1.5034
   41MOL   C26213142   1.237   1.735   7.611  0.7220 -0.0023 -0.4985
   41MOL  Cl26313143   1.088   1.818   7.643  0.2289 -0.1065 -0.5993
   41MOL   C26413144   1.325   1.757   7.500 -0.0349  0.4611  0.0244
   41MOL   C26513145   1.449   1.687   7.487 -0.2594 -0.3495  0.8363
   41MOL   C26613146   1.711   1.549   7.695  0.0141  0.4709  0.2096
   41MOL   H26713147   1.654   1.548   7.482 -0.4098  2.2841  0.5430
   41MOL   H26813148   1.436   1.506   7.776  1.0732 -0.4635 -0.6233
   41MOL   H26913149   1.223   1.624   7.799 -1.7887 -1.5623 -0.2835
   41MOL   H27013150   1.303   1.837   7.431  1.7745 -0.7254 -2.0183
   41MOL   H27113151   1.502   1.695   7.393 -0.2138  0.7871  0.9505
   41MOL   H27213152   1.671   1.505   7.787  0.9967  1.0418  0.9168
   41MOL   H27313153   1.805   1.499   7.674 -0.8758 -0.8811 -0.6613
   41MOL   C27413154   1.729   1.696   7.723 -0.6118  0.0503 -0.3837
   41MOL   C27513155   1.803   1.710   7.854 -0.1762  0.0922  0.2956
   41MOL   C27613156   1.933   1.664   7.880  0.0009  0.4840  0.1919
   41MOL   C27713157   1.993   1.679   8.009  0.0236  0.1007  0.2596
   41MOL   C27813158   1.917   1.730   8.115  0.7086  0.5841 -0.8322
   41MOL  Cl27913159   2.000   1.754   8.269  0.0881 -0.2284  0.1298
   41MOL   C28013160   1.789   1.767   8.092 -0.0289 -0.1893 -0.9589
   41MOL   C28113161   1.730   1.760   7.967 -0.7050  0.0177 -0.3745
   41MOL   C28213162   1.798   1.779   7.605  0.3911  0.3906 -0.3016
   41MOL   H28313163   1.638   1.752   7.742 -1.0375 -0.8405  0.2068
   41MOL   H28413164   1.993   1.616   7.804 -0.8552 -2.9006  1.5393
   41MOL   H28513165   2.097   1.649   8.018  0.3501  0.5713 -1.6816
   41MOL   H28613166   1.727   1.793   8.177  1.6129  0.6446  0.0117
   41MOL   H28713167   1.628   1.794   7.965 -0.6648  0.2147  0.7499
   41MOL   H28813168   1.901   1.756   7.577  0.5564  0.7360  0.0270
   41MOL   H28913169   1.745   1.768   7.510  2.2037 -0.9379 -1.2255
   41MOL   C29013170   1.804   1.930   7.621  0.1226 -0.7231  0.1698
   41MOL   C29113171   1.903   1.983   7.729 -0.1540  0.7295  0.1737
   41MOL   C29213172   1.851   2.049   7.842 -0.1484  0.4129  0.1078
   41MOL   C29313173   1.928   2.096   7.947  0.2856  0.6336  0.2597
   41MOL   C29413174   2.066   2.079   7.928  1.2603 -1.2212 -0.2198
   41MOL  Cl29513175   2.171   2.135   8.058  0.1627 -0.1921  0.2456
   41MOL   C29613176   2.120   2.024   7.812  0.3687  0.3025 -0.0981
   41MOL   C29713177   2.041   1.966   7.714 -0.1126 -0.4276  0.6604
   41MOL   C29813178   1.830   1.992   7.479  0.2718 -0.6005  0.5589
   41MOL   H29913179   1.702   1.957   7.649 -0.4030 -1.3066 -1.1375
   41MOL   H30013180   1.743   2.046   7.847 -0.2669  2.6296 -0.7112
   41MOL   H30113181   1.884   2.135   8.037 -0.2279 -2.6915  1.5328
   41MOL   H30213182   2.227   2.018   7.800  0.2491 -0.6138 -0.7079
   41MOL   H30313183   2.090   1.920   7.630  0.8463 -1.6617  1.8920
   41MOL   H30413184   1.935   1.969   7.461  0.3690  0.1207  0.2234
   41MOL   H30513185   1.766   1.940   7.408  0.0012 -0.0285  0.3818
   41MOL   C30613186   1.790   2.140   7.461 -0.3678  0.4252 -0.3250
   41MOL   C30713187   1.836   2.188   7.325 -0.1021 -0.3442 -0.6837
   41MOL   C30813188   1.746   2.206   7.216  0.1604  0.2708 -0.3569
   41MOL   C30913189   1.787   2.277   7.105 -0.2869 -0.0518  0.4662
   41MOL   C31013190   1.922   2.298   7.082  0.9515 -0.6353  0.0463
   41MOL  Cl31113191   1.968   2.382   6.938  0.2779 -0.0075 -0.1220
   41MOL   C31213192   2.019   2.260   7.176  0.2022 -0.0953  0.6333
   41MOL   C31313193   1.975   2.209   7.302  0.3790  0.4170  0.2241
   41MOL   C31413194   1.635   2.156   7.488  0.5686  0.0507  0.1927
   41MOL   H31513195   1.834   2.205   7.537 -0.3941 -0.6299  0.6087
   41MOL   H31613196   1.642   2.177   7.216  0.9883 -3.0287  1.2280
   41MOL   H31713197   1.718   2.310   7.028 -0.6314  1.1319  1.2800
   41MOL   H31813198   2.123   2.281   7.156 -0.0597 -0.7832 -1.5540
   41MOL   H31913199   2.048   2.181   7.377  0.5562  3.5115  1.2559
   41MOL   H32013200   1.599   2.245   7.437  0.3309  0.2272  0.6651
   41MOL   H32113201   1.581   2.067   7.455  0.5725  0.0433  0.2054
   41MOL   H32213202   1.612   2.162   7.595 -1.1042  0.0021 -0.1480
   42MOL     C113203   2.145   4.246   4.383 -0.1931 -0.7012  0.2185
   42MOL     C213204   2.121   4.127   4.292  0.1724 -1.1564 -0.1171
   42MOL     C313205   2.213   4.101   4.195  0.0032  0.0665  0.6392
   42MOL     C413206   2.203   3.988   4.109  0.1763 -0.2637 -0.1727
   42MOL     C513207   2.096   3.898   4.131 -0.3239  0.5709 -0.4629
   42MOL    Cl613208   2.085   3.752   4.046 -0.4597 -0.2580 -0.3455
   42MOL     C713209   2.007   3.916   4.233  0.0559  0.1191 -0.3155
   42MOL     C813210   2.014   4.031   4.314  0.4595 -0.3279  0.5646
   42MOL     C913211   2.176   4.205   4.532 -0.5820 -0.0125 -0.2333
   42MOL    H1013212   2.046   4.291   4.377  0.5257  0.8260 -0.3814
   42MOL    H1113213   2.284   4.177   4.165 -0.0800  0.3225  1.0958
   42MOL    H1213214   2.264   3.967   4.022 -0.8459 -0.5047 -0.8410
   42MOL    H1313215   1.930   3.840   4.237 -1.1583  1.3026 -0.7271
   42MOL    H1413216   1.960   4.044   4.407 -1.6124  3.6469 -1.0503
   42MOL    H1513217   2.160   4.297   4.588 -1.9623  0.3604 -1.2311
   42MOL    H1613218   2.109   4.127   4.567 -2.1896  0.9748 -1.0637
   42MOL    H1713219   2.213   4.322   4.344  0.3497 -0.6601  1.2285
   42MOL    C1813220   2.324   4.151   4.542 -0.0404 -0.1857 -0.0141
   42MOL    C1913221   2.434   4.232   4.469  0.2145  0.3824  0.6065
   42MOL    C2013222   2.456   4.371   4.492 -0.5328  0.1244  0.4261
   42MOL    C2113223   2.554   4.447   4.421 -0.5285  0.0351 -0.0986
   42MOL    C2213224   2.630   4.378   4.323 -0.2466  0.2528 -0.1015
   42MOL   Cl2313225   2.726   4.477   4.221 -0.0706 -0.3426  0.2478
   42MOL    C2413226   2.620   4.239   4.305 -0.0605 -0.6209  0.4911
   42MOL    C2513227   2.526   4.164   4.380 -0.8047  0.5222  0.0248
   42MOL    C2613228   2.355   4.125   4.690 -0.1747 -0.2502 -0.5624
   42MOL    H2713229   2.323   4.057   4.488 -2.9246  0.2066 -0.7226
   42MOL    H2813230   2.390   4.412   4.567 -1.8847 -0.6679 -0.3035
   42MOL    H2913231   2.563   4.551   4.447 -1.2148 -0.2978  1.4985
   42MOL    H3013232   2.689   4.193   4.237 -1.8743 -1.3102 -0.9171
   42MOL    H3113233   2.519   4.056   4.375  0.6786  0.2382  3.3971
   42MOL    H3213234   2.356   4.214   4.752  3.2922  0.0216 -0.8705
   42MOL    H3313235   2.272   4.067   4.731 -0.3129  0.2912 -0.0878
   42MOL    C3413236   2.485   4.041   4.714 -0.0782 -0.0493  0.5997
   42MOL    C3513237   2.623   4.107   4.688 -0.6351 -0.0569  0.4956
   42MOL    C3613238   2.646   4.238   4.728 -0.1154 -0.0525  0.7804
   42MOL    C3713239   2.760   4.308   4.677 -0.4378 -0.6289 -0.4911
   42MOL    C3813240   2.862   4.241   4.602  0.0506  0.3941 -0.3484
   42MOL   Cl3913241   3.006   4.304   4.547 -0.3984 -0.2280  0.1531
   42MOL    C4013242   2.844   4.103   4.579  0.1863  0.4059  0.2378
   42MOL    C4113243   2.721   4.038   4.616  0.2680  0.7479 -0.7445
   42MOL    C4213244   2.478   3.971   4.854 -0.2138 -0.1758  0.0560
   42MOL    H4313245   2.494   3.960   4.642  1.5633  1.4689 -0.9495
   42MOL    H4413246   2.580   4.284   4.801 -1.6205 -2.3878  0.9382
   42MOL    H4513247   2.772   4.412   4.705 -0.4179 -0.6564 -0.3949
   42MOL    H4613248   2.920   4.054   4.520  0.1321  0.2083  0.3296
   42MOL    H4713249   2.711   3.935   4.583  0.7172  0.5066 -0.1313
   42MOL    H4813250   2.379   3.926   4.862  0.4222 -1.9091 -1.2858
   42MOL    H4913251   2.542   3.885   4.835 -0.0876  0.0336 -0.4838
   42MOL    C5013252   2.533   4.036   4.985  0.2520 -0.1877 -0.0558
   42MOL    C5113253   2.454   4.158   5.031 -0.2365  0.8398  0.1933
   42MOL    C5213254   2.515   4.278   5.057 -0.6951 -0.3585 -0.3745
   42MOL    C5313255   2.435   4.387   5.103 -0.2050  0.1853 -0.1675
   42MOL    C5413256   2.300   4.364   5.137 -0.2312 -0.5706 -0.0764
   42MOL   Cl5513257   2.197   4.490   5.191 -0.0053  0.2293 -0.3011
   42MOL    C5613258   2.242   4.241   5.118  0.2992 -0.3068 -0.2926
   42MOL    C5713259   2.319   4.131   5.066  0.1506 -0.0081  0.3460
   42MOL    C5813260   2.557   3.929   5.095 -0.7659 -0.1822 -0.0628
   42MOL    H5913261   2.634   4.068   4.957 -0.0278 -0.0518 -0.9375
   42MOL    H6013262   2.618   4.295   5.031 -1.3990  0.4778 -2.7981
   42MOL    H6113263   2.481   4.484   5.114 -1.2072  0.5704  0.8511
   42MOL    H6213264   2.135   4.231   5.128  0.3940  0.5542  2.0242
   42MOL    H6313265   2.268   4.037   5.052 -2.2069  1.5497 -2.1327
   42MOL    H6413266   2.530   3.972   5.191 -1.1488 -1.7372  0.5347
   42MOL    H6513267   2.498   3.837   5.087 -1.6709  0.1753  2.1085
   42MOL    C6613268   2.704   3.883   5.110  0.2361 -0.2241  0.3406
   42MOL    C6713269   2.725   3.767   5.204 -1.1160  0.8847  0.0461
   42MOL    C6813270   2.811   3.784   5.318 -0.1871  0.1323  0.0600
   42MOL    C6913271   2.834   3.679   5.407 -0.4267 -0.8945 -0.0315
   42MOL    C7013272   2.758   3.567   5.401  0.8748  0.1635  0.7148
   42MOL   Cl7113273   2.776   3.451   5.521 -0.1230  0.0197 -0.0632
   42MOL    C7213274   2.670   3.542   5.289  0.3233  0.1282  0.4322
   42MOL    C7313275   2.664   3.638   5.189 -0.1493 -0.1691  0.1031
   42MOL    C7413276   2.781   3.844   4.977  0.2824  0.3467  0.1531
   42MOL    H7513277   2.751   3.974   5.146  2.7997 -1.7553  0.9286
   42MOL    H7613278   2.866   3.875   5.338  1.9610 -0.8900 -1.0210
   42MOL    H7713279   2.909   3.696   5.483 -0.7618  1.0216 -0.0975
   42MOL    H7813280   2.626   3.443   5.283  0.5382  0.0344  0.4198
   42MOL    H7913281   2.621   3.608   5.095  0.8913  0.6961 -0.6676
   42MOL    H8013282   2.744   3.744   4.955 -0.2812  0.3819  0.8996
   42MOL    H8113283   2.761   3.909   4.891  1.3507  0.4029 -0.0623
   42MOL    C8213284   2.937   3.865   4.985  0.3291  0.1717  0.1574
   42MOL    C8313285   3.012   3.784   4.878  0.3272  0.1280 -0.2232
   42MOL    C8413286   3.113   3.700   4.932 -0.1681 -0.1029  0.2801
   42MOL    C8513287   3.185   3.618   4.846  0.6397  0.2834 -0.5243
   42MOL    C8613288   3.166   3.632   4.711 -0.6400  0.1514  0.0154
   42MOL   Cl8713289   3.285   3.554   4.610 -0.0693 -0.1327 -0.1379
   42MOL    C8813290   3.067   3.711   4.657  0.1807 -0.8472  1.1062
   42MOL    C8913291   2.982   3.779   4.738  0.6675  0.1663 -1.2665
   42MOL    C9013292   2.955   4.014   4.966  0.6906 -0.0119  0.2506
   42MOL    H9113293   2.966   3.822   5.082 -1.4922 -1.6389 -0.0557
   42MOL    H9213294   3.149   3.686   5.033 -1.0576 -1.0941  0.4773
   42MOL    H9313295   3.268   3.553   4.872  1.4794  1.2660 -0.7092
   42MOL    H9413296   3.049   3.723   4.551  0.3596  0.4244  1.2050
   42MOL    H9513297   2.913   3.851   4.698 -0.3013  0.1951  0.4107
   42MOL    H9613298   2.934   4.050   4.865 -1.6974 -2.8041 -0.3124
   42MOL    H9713299   2.886   4.066   5.032  0.0418 -1.3846  0.6630
   42MOL    C9813300   3.102   4.056   5.009 -0.8204  0.6588 -0.0549
   42MOL    C9913301   3.127   4.195   4.953  0.3119 -0.5760 -0.6140
   42MOL   C10013302   3.228   4.223   4.862 -0.6714  0.1714  0.7291
   42MOL   C10113303   3.238   4.355   4.801 -0.0496  0.3320 -0.6953
   42MOL   C10213304   3.153   4.457   4.845  0.0128 -0.3659  0.3210
   42MOL  Cl10313305   3.178   4.619   4.805 -0.1674 -0.1022  0.2165
   42MOL   C10413306   3.062   4.430   4.945 -0.1272  0.8072  0.0411
   42MOL   C10513307   3.042   4.305   4.996 -0.4735 -0.3406  0.2010
   42MOL   C10613308   3.120   4.056   5.166 -0.7034  0.2667  0.2665
   42MOL   H10713309   3.169   3.989   4.955 -0.3090 -0.2375  1.6770
   42MOL   H10813310   3.292   4.147   4.822 -1.7579  0.0051 -0.7387
   42MOL   H10913311   3.297   4.386   4.716 -1.1399  1.8116 -0.9291
   42MOL   H11013312   3.000   4.505   4.992 -1.7570 -0.4317 -0.1116
   42MOL   H11113313   2.967   4.286   5.072  0.7280 -0.7219  1.3183
   42MOL   H11213314   3.065   4.140   5.209 -0.7662  1.9095 -2.8660
   42MOL   H11313315   3.085   3.974   5.229 -0.1906 -0.0816  0.1004
   42MOL   C11413316   3.270   4.078   5.206  0.4465 -0.5650 -0.2846
   42MOL   C11513317   3.287   4.114   5.354  0.1626  0.2609 -0.6964
   42MOL   C11613318   3.242   4.029   5.461  0.5463  0.6197  0.2534
   42MOL   C11713319   3.261   4.054   5.595 -0.3159 -0.3872 -0.3222
   42MOL   C11813320   3.350   4.166   5.628 -0.2680  0.0165 -0.0869
   42MOL  Cl11913321   3.388   4.195   5.798 -0.0782  0.2052  0.4989
   42MOL   C12013322   3.405   4.244   5.530 -0.2955 -0.1070  1.0707
   42MOL   C12113323   3.368   4.222   5.394 -0.6845 -0.3509  0.9160
   42MOL   C12213324   3.363   3.961   5.158 -0.7983 -0.1962 -0.5281
   42MOL   H12313325   3.298   4.163   5.144 -0.8137  0.2124  0.2033
   42MOL   H12413326   3.193   3.935   5.439 -0.4273  1.3838 -0.9318
   42MOL   H12513327   3.209   3.994   5.668 -0.2750  1.4420  1.2595
   42MOL   H12613328   3.468   4.330   5.548  1.4517 -1.1219 -0.0353
   42MOL   H12713329   3.413   4.292   5.325 -0.8924 -0.2270  0.9061
   42MOL   H12813330   3.375   3.897   5.245 -1.6122 -0.0640 -0.3115
   42MOL   H12913331   3.299   3.899   5.095  0.5558  0.9702 -3.1783
   42MOL   C13013332   3.504   4.003   5.096 -0.5886 -0.4068  0.0866
   42MOL   C13113333   3.621   3.945   5.175 -0.2115  1.1332  0.7408
   42MOL   C13213334   3.673   3.817   5.136  0.1702  0.3780 -0.0510
   42MOL   C13313335   3.782   3.754   5.208  0.7542  0.1429 -0.5980
   42MOL   C13413336   3.822   3.818   5.326 -0.3524 -0.2419 -0.4862
   42MOL  Cl13513337   3.941   3.744   5.426 -0.2513  0.0066 -0.3747
   42MOL   C13613338   3.765   3.942   5.366  0.7234  0.1972 -0.2761
   42MOL   C13713339   3.668   4.007   5.288  0.0820  0.4977 -0.0498
   42MOL   C13813340   3.518   3.981   4.946 -0.7940 -0.3823 -0.2127
   42MOL   H13913341   3.512   4.109   5.120 -0.7995 -0.5351  0.7459
   42MOL   H14013342   3.640   3.762   5.049 -1.5003  0.2522  0.6483
   42MOL   H14113343   3.830   3.665   5.172  0.9466  0.1382 -0.3260
   42MOL   H14213344   3.803   3.979   5.460  0.0995 -0.2252  0.1405
   42MOL   H14313345   3.626   4.099   5.326  1.3461  2.2177 -2.6599
   42MOL   H14413346   3.480   3.879   4.945  0.4023 -0.8570  0.5788
   42MOL   H14513347   3.439   4.025   4.886 -0.3690 -2.4574 -2.3774
   42MOL   C14613348   3.661   3.999   4.873 -0.1513 -1.3800  0.7159
   42MOL   C14713349   3.665   3.917   4.746 -0.1654 -0.0252 -0.0252
   42MOL   C14813350   3.613   3.964   4.620 -0.3803  0.2585  0.5776
   42MOL   C14913351   3.602   3.872   4.508  0.5531  0.1654  0.4011
   42MOL   C15013352   3.648   3.740   4.522  0.0901  0.3506  0.2089
   42MOL  Cl15113353   3.619   3.630   4.388 -0.2272  0.1091 -0.1461
   42MOL   C15213354   3.710   3.698   4.638  0.2696  0.1084 -0.1179
   42MOL   C15313355   3.718   3.782   4.751 -0.4706 -0.3863 -0.2380
   42MOL   C15413356   3.689   4.149   4.852  0.0825 -0.5871  0.0780
   42MOL   H15513357   3.739   3.954   4.935  0.4696 -1.9295 -0.4441
   42MOL   H15613358   3.571   4.060   4.598 -0.4864 -0.1535 -1.0527
   42MOL   H15713359   3.543   3.892   4.420 -0.3058 -0.8052  0.7415
   42MOL   H15813360   3.743   3.595   4.643  1.0992  0.3242 -1.1647
   42MOL   H15913361   3.743   3.730   4.842 -2.1988 -1.1614 -0.1851
   42MOL   H16013362   3.603   4.180   4.793  0.2567 -0.7105 -0.2419
   42MOL   H16113363   3.660   4.193   4.947  3.3891  2.2901 -0.1303
   42MOL   C16213364   3.823   4.207   4.803 -0.3404 -0.1671 -0.4937
   42MOL   C16313365   3.952   4.131   4.836 -0.7966  0.1166 -0.2218
   42MOL   C16413366   4.043   4.195   4.930  0.1740  0.9220  0.0647
   42MOL   C16513367   4.169   4.143   4.951  0.1099 -0.3887 -0.1898
   42MOL   C16613368   4.209   4.019   4.887  0.1985 -0.0819 -0.0810
   42MOL  Cl16713369   4.360   3.946   4.916 -0.0234  0.4117 -0.0518
   42MOL   C16813370   4.116   3.947   4.804 -0.0810  0.1852 -0.1921
   42MOL   C16913371   3.994   4.012   4.775  0.3560  1.0425  0.3900
   42MOL   C17013372   3.821   4.230   4.645  0.2122 -0.4548  0.5387
   42MOL   H17113373   3.824   4.305   4.849 -3.7353 -0.5577  0.5955
   42MOL   H17213374   4.015   4.289   4.975  1.5831  0.0532  2.8701
   42MOL   H17313375   4.232   4.189   5.027 -2.9492  0.4812  1.9338
   42MOL   H17413376   4.147   3.855   4.756 -1.7177 -0.7170  0.4625
   42MOL   H17513377   3.933   3.956   4.705  1.5041  1.5106 -1.0019
   42MOL   H17613378   3.820   4.139   4.585 -0.3529 -1.3993  1.9463
   42MOL   H17713379   3.728   4.278   4.616  0.3529 -0.6803 -0.2930
   42MOL   C17813380   3.934   4.325   4.590  0.3502 -0.2033 -0.3913
   42MOL   C17913381   4.011   4.266   4.474 -0.2475 -0.1935 -1.1434
   42MOL   C18013382   3.957   4.189   4.369 -0.2373 -0.3815 -0.9089
   42MOL   C18113383   4.041   4.161   4.261  0.3650 -0.1322  0.0376
   42MOL   C18213384   4.175   4.191   4.253  0.2074  0.0680  0.4478
   42MOL  Cl18313385   4.270   4.142   4.119 -0.4943 -0.2989  0.1949
   42MOL   C18413386   4.232   4.266   4.357 -0.4256 -0.0114  0.6412
   42MOL   C18513387   4.149   4.303   4.467  0.1781  0.6255  0.1762
   42MOL   C18613388   3.875   4.461   4.545  0.1192  0.7625  0.5872
   42MOL   H18713389   4.005   4.343   4.670  0.5263 -1.8148 -0.1671
   42MOL   H18813390   3.850   4.178   4.366 -0.4280  0.5047  1.8146
   42MOL   H18913391   3.995   4.122   4.172  0.1903 -0.5406  0.3082
   42MOL   H19013392   4.337   4.288   4.353 -0.1937 -1.3567 -1.3895
   42MOL   H19113393   4.191   4.361   4.548  0.3465  1.9760 -0.8613
   42MOL   H19213394   3.946   4.522   4.489 -1.3898  0.7764 -1.3841
   42MOL   H19313395   3.793   4.437   4.477  1.9419  1.8490 -2.1224
   42MOL   C19413396   3.836   4.551   4.673 -0.0141 -0.0465 -0.8484
   42MOL   C19513397   3.963   4.597   4.753  0.6210  0.4166 -0.2742
   42MOL   C19613398   4.067   4.674   4.701  0.0198 -0.0511  0.8748
   42MOL   C19713399   4.167   4.731   4.781 -0.3602  0.7585 -0.1561
   42MOL   C19813400   4.172   4.701   4.920 -0.3378 -0.4565  0.0252
   42MOL  Cl19913401   4.286   4.769   5.024  0.1848 -0.0456  0.1917
   42MOL   C20013402   4.072   4.621   4.975  0.0374 -0.0784 -0.9148
   42MOL   C20113403   3.965   4.575   4.895  0.1672  0.6119 -0.4071
   42MOL   C20213404   3.747   4.672   4.630  0.9131  0.7269 -0.2728
   42MOL   H20313405   3.788   4.485   4.745 -0.4781 -0.8256 -1.8459
   42MOL   H20413406   4.066   4.707   4.598  0.4748  0.6319  1.0887
   42MOL   H20513407   4.234   4.800   4.731 -1.8069  0.7178 -2.1915
   42MOL   H20613408   4.070   4.601   5.081 -0.9331 -0.0172 -0.9125
   42MOL   H20713409   3.886   4.525   4.948  0.0198  0.6425 -0.5975
   42MOL   H20813410   3.780   4.762   4.682 -0.7379  0.8452  0.6002
   42MOL   H20913411   3.738   4.686   4.522 -0.5584  0.3055 -0.2101
   42MOL   C21013412   3.603   4.633   4.669  0.1090 -0.0396  0.1281
   42MOL   C21113413   3.591   4.624   4.822 -0.6605  1.0531 -0.4142
   42MOL   C21213414   3.544   4.506   4.893  0.2611 -0.2951  0.4191
   42MOL   C21313415   3.528   4.510   5.033  0.3344  0.4064  0.4507
   42MOL   C21413416   3.546   4.625   5.108 -0.0039  0.2816 -0.4386
   42MOL  Cl21513417   3.520   4.618   5.277  0.2418 -0.1513  0.0893
   42MOL   C21613418   3.595   4.744   5.042 -0.5461 -0.4344  0.7262
   42MOL   C21713419   3.618   4.739   4.900 -0.6721 -0.8249 -0.2263
   42MOL   C21813420   3.480   4.719   4.616  0.0933  0.3501  0.2515
   42MOL   H21913421   3.588   4.530   4.637  2.6937 -0.5526  0.3932
   42MOL   H22013422   3.522   4.425   4.826 -0.4430 -0.8695  1.3333
   42MOL   H22113423   3.491   4.424   5.088  1.2485 -0.4025 -0.1780
   42MOL   H22213424   3.614   4.838   5.091  0.7098  0.9459 -2.2826
   42MOL   H22313425   3.652   4.825   4.844  1.4295 -1.9466 -0.7180
   42MOL   H22413426   3.395   4.673   4.666 -1.3352  3.0084  0.3297
   42MOL   H22513427   3.486   4.823   4.647 -1.5078  1.3866 -2.6768
   42MOL   C22613428   3.446   4.715   4.466 -0.3150  0.7547  0.5160
   42MOL   C22713429   3.460   4.573   4.422  0.2077 -0.0518 -0.1792
   42MOL   C22813430   3.558   4.533   4.334 -0.6966 -0.1119  0.4889
   42MOL   C22913431   3.576   4.400   4.297  0.0207  0.1575  0.6973
   42MOL   C23013432   3.491   4.304   4.345 -0.2583  0.2618  0.3123
   42MOL  Cl23113433   3.522   4.134   4.302 -0.0961  0.1687 -0.3287
   42MOL   C23213434   3.394   4.335   4.442 -0.3256 -0.3218  0.2330
   42MOL   C23313435   3.379   4.473   4.482 -0.0191  0.3644  0.0882
   42MOL   C23413436   3.311   4.775   4.435 -1.2426  0.0768 -0.0918
   42MOL   H23513437   3.529   4.770   4.421  0.4156 -0.9482 -0.2622
   42MOL   H23613438   3.611   4.612   4.283 -1.6952  1.5226  1.9635
   42MOL   H23713439   3.647   4.373   4.220 -0.3240  0.6421  0.2045
   42MOL   H23813440   3.320   4.265   4.479 -3.4287  2.6508 -0.0587
   42MOL   H23913441   3.305   4.494   4.557  0.5890 -0.1844  0.8452
   42MOL   H24013442   3.233   4.730   4.497 -1.9214 -0.7198 -1.4914
   42MOL   H24113443   3.321   4.874   4.479 -1.5871 -0.0899  0.3637
   42MOL   C24213444   3.279   4.802   4.278  0.1756  0.0249 -0.5102
   42MOL   C24313445   3.242   4.673   4.209  0.0264 -0.5675  0.2430
   42MOL   C24413446   3.133   4.588   4.252 -0.4102 -0.2885  0.2261
   42MOL   C24513447   3.097   4.482   4.179  0.3118 -0.0983  0.3058
   42MOL   C24613448   3.165   4.455   4.057 -0.3381 -0.2377  0.2254
   42MOL  Cl24713449   3.114   4.320   3.965  0.1757  0.1329  0.2926
   42MOL   C24813450   3.283   4.518   4.020  0.1274  0.1655  1.0605
   42MOL   C24913451   3.318   4.632   4.098  0.0226 -0.6381  0.0303
   42MOL   C25013452   3.154   4.907   4.267  0.3008 -0.8797  0.3522
   42MOL   H25113453   3.379   4.837   4.252  0.1739 -0.2669 -0.9119
   42MOL   H25213454   3.078   4.610   4.342  0.0922 -0.1154  0.4930
   42MOL   H25313455   3.013   4.421   4.209 -1.0337  1.4921 -0.1917
   42MOL   H25413456   3.340   4.519   3.929 -0.2776  2.3790  0.8086
   42MOL   H25513457   3.409   4.689   4.085 -0.0609 -0.8084 -1.3827
   42MOL   H25613458   3.140   4.942   4.165  0.3344  0.6596  0.8625
   42MOL   H25713459   3.065   4.853   4.299  0.4014 -0.8240  0.7386
   42MOL   C25813460   3.149   5.040   4.352  0.4668 -0.6096  0.1839
   42MOL   C25913461   3.287   5.113   4.359  0.3483 -0.1321 -0.9597
   42MOL   C26013462   3.374   5.137   4.246  0.3669  0.5579 -0.3534
   42MOL   C26113463   3.510   5.176   4.259 -0.0939 -0.1614 -0.3390
   42MOL   C26213464   3.563   5.194   4.386 -0.5575  0.8658 -0.1812
   42MOL  Cl26313465   3.726   5.252   4.402  0.0470 -0.2743  0.2019
   42MOL   C26413466   3.481   5.177   4.503  0.2987 -0.0507 -0.8156
   42MOL   C26513467   3.345   5.141   4.489 -0.2862  0.4029  0.7233
   42MOL   C26613468   3.050   5.145   4.289  0.0723 -0.2218 -0.3144
   42MOL   H26713469   3.112   5.023   4.453  0.3117  1.0794  0.4279
   42MOL   H26813470   3.333   5.139   4.146  1.1324  2.4404 -0.6614
   42MOL   H26913471   3.566   5.187   4.167  1.0143 -1.1533  0.2178
   42MOL   H27013472   3.522   5.199   4.601  2.2226 -0.3452 -1.5442
   42MOL   H27113473   3.280   5.126   4.573 -2.3256 -0.1849 -0.9026
   42MOL   H27213474   3.069   5.239   4.340  0.3334  0.0916 -0.9859
   42MOL   H27313475   3.085   5.148   4.185 -2.8719  0.1480 -1.3554
   42MOL   C27413476   2.901   5.109   4.297  0.5194  0.7590 -0.0419
   42MOL   C27513477   2.813   5.212   4.366  0.3953  1.0177  0.1963
   42MOL   C27613478   2.743   5.182   4.485  0.8186  0.3762 -0.2580
   42MOL   C27713479   2.678   5.292   4.544 -0.1064  0.1844 -0.4169
   42MOL   C27813480   2.677   5.427   4.488  0.0644  0.2980 -0.1398
   42MOL  Cl27913481   2.605   5.562   4.580 -0.1155  0.2886  0.3532
   42MOL   C28013482   2.738   5.452   4.367  0.1855 -0.3334 -0.3977
   42MOL   C28113483   2.804   5.344   4.303 -0.7390  0.0295 -0.1493
   42MOL   C28213484   2.832   5.068   4.163  0.1049 -0.5183 -0.0675
   42MOL   H28313485   2.908   5.028   4.370 -0.8845  1.3631  0.7771
   42MOL   H28413486   2.751   5.084   4.529 -0.6498 -0.6835 -2.3010
   42MOL   H28513487   2.647   5.275   4.646  0.4242  1.1468 -0.0926
   42MOL   H28613488   2.742   5.552   4.327  0.2416 -0.1870 -0.0216
   42MOL   H28713489   2.841   5.361   4.202  0.4148  2.7648  0.6692
   42MOL   H28813490   2.749   5.137   4.152  1.6446  1.7268  1.9159
   42MOL   H28913491   2.897   5.097   4.080 -1.7185  1.8680 -0.7189
   42MOL   C29013492   2.776   4.918   4.143  0.1815 -0.5377  0.2799
   42MOL   C29113493   2.725   4.866   4.269  0.6771  0.0272 -0.0782
   42MOL   C29213494   2.612   4.915   4.335  0.4897 -0.4345  1.0941
   42MOL   C29313495   2.570   4.865   4.460 -0.4674 -0.2404  0.4061
   42MOL   C29413496   2.650   4.767   4.519  0.0539 -0.2921 -0.5890
   42MOL  Cl29513497   2.620   4.711   4.676  0.3971  0.5461  0.2293
   42MOL   C29613498   2.764   4.722   4.459 -0.2673  0.4839  0.7616
   42MOL   C29713499   2.805   4.770   4.335 -0.1485  0.1863  0.6463
   42MOL   C29813500   2.664   4.912   4.032 -1.2974  0.0821 -0.0680
   42MOL   H29913501   2.857   4.852   4.112 -0.6618 -0.9382 -1.1210
   42MOL   H30013502   2.548   4.994   4.298 -0.5402 -0.9754  1.6817
   42MOL   H30113503   2.476   4.898   4.502  0.0895  2.2281 -0.1948
   42MOL   H30213504   2.814   4.641   4.509  0.8651  0.0261 -1.0602
   42MOL   H30313505   2.897   4.730   4.295 -1.7010  0.7803 -3.7551
   42MOL   H30413506   2.570   4.953   4.068 -1.5722 -1.6734  1.3259
   42MOL   H30513507   2.694   4.975   3.949 -0.7451 -0.0513  0.0292
   42MOL   C30613508   2.644   4.775   3.968  0.2199  0.2461 -0.2620
   42MOL   C30713509   2.510   4.767   3.894  0.6428 -0.1901  0.5814
   42MOL   C30813510   2.471   4.844   3.782 -0.6192 -0.5358  0.1420
   42MOL   C30913511   2.337   4.826   3.730 -0.5470  0.0964 -0.0778
   42MOL   C31013512   2.250   4.731   3.782  0.4653 -0.2459 -0.1922
   42MOL  Cl31113513   2.091   4.716   3.712  0.0392 -0.4399 -0.4550
   42MOL   C31213514   2.297   4.646   3.885  0.2754 -1.1172 -0.7271
   42MOL   C31313515   2.420   4.669   3.945  0.4845  0.4899 -0.7489
   42MOL   C31413516   2.760   4.724   3.886  0.1985 -0.5844  0.0334
   42MOL   H31513517   2.631   4.710   4.054  0.6931  0.1367 -0.2720
   42MOL   H31613518   2.530   4.917   3.729  0.4131 -3.2428 -2.6370
   42MOL   H31713519   2.306   4.878   3.640  1.5276  0.5210 -0.5790
   42MOL   H31813520   2.233   4.567   3.922  0.1768  0.1628  1.9736
   42MOL   H31913521   2.432   4.611   4.035 -2.0647  3.1165  1.3960
   42MOL   H32013522   2.739   4.634   3.829  0.2697 -0.6925  0.1770
   42MOL   H32113523   2.792   4.796   3.810 -1.1785  1.6685  1.5207
   42MOL   H32213524   2.853   4.700   3.939  0.1696 -1.2132 -0.1977
   43MOL     C113525   2.058   1.292   7.930  0.0681  0.7334  0.4227
   43MOL     C213526   2.138   1.199   7.843  0.8807  0.0079  0.0033
   43MOL     C313527   2.085   1.160   7.718 -0.7707 -0.2665 -0.0391
   43MOL     C413528   2.156   1.064   7.640 -0.1299 -0.5896 -0.6702
   43MOL     C513529   2.280   1.013   7.686 -0.1321  0.0619  0.1984
   43MOL    Cl613530   2.375   0.909   7.589  0.1895  0.0598  0.2788
   43MOL     C713531   2.337   1.062   7.802 -0.2109 -0.4030 -0.0722
   43MOL     C813532   2.261   1.145   7.885  0.2115 -1.1867 -0.3607
   43MOL     C913533   1.900   1.270   7.929 -0.3125  0.0557  0.5804
   43MOL    H1013534   2.081   1.391   7.889  1.1033 -0.0729 -0.9963
   43MOL    H1113535   1.989   1.193   7.681  0.4021  2.1360 -1.0026
   43MOL    H1213536   2.108   1.042   7.546 -0.6955  1.8150 -0.9724
   43MOL    H1313537   2.434   1.031   7.837  0.4187  0.7049 -0.8063
   43MOL    H1413538   2.299   1.187   7.977 -1.1342 -0.6003 -0.0584
   43MOL    H1513539   1.857   1.323   7.844 -1.4943 -0.5909  0.7579
   43MOL    H1613540   1.877   1.164   7.922 -0.7745  0.1953 -0.0663
   43MOL    H1713541   2.102   1.305   8.029  0.1829 -0.3031  0.5112
   43MOL    C1813542   1.823   1.326   8.050 -0.0173  0.3602 -0.0805
   43MOL    C1913543   1.676   1.335   8.022 -0.8923 -0.6549  0.5616
   43MOL    C2013544   1.613   1.452   8.079  0.6693  0.3913  0.6483
   43MOL    C2113545   1.474   1.465   8.073 -0.4171 -0.7052 -0.3375
   43MOL    C2213546   1.391   1.366   8.020  0.3789 -0.7039  1.1653
   43MOL   Cl2313547   1.214   1.386   8.012  0.2117  0.3109  0.1100
   43MOL    C2413548   1.450   1.250   7.967 -0.1068 -0.4082  0.1282
   43MOL    C2513549   1.590   1.233   7.976  0.1605 -0.7566  0.6814
   43MOL    C2613550   1.854   1.238   8.173 -0.3987 -0.2190 -0.7100
   43MOL    H2713551   1.876   1.422   8.052 -1.7102  1.3420 -1.1673
   43MOL    H2813552   1.678   1.530   8.119  1.2566 -0.3541  1.1637
   43MOL    H2913553   1.428   1.557   8.105  0.0747 -0.2615 -0.8966
   43MOL    H3013554   1.393   1.170   7.922 -0.2796  0.6245 -1.5436
   43MOL    H3113555   1.636   1.139   7.951 -0.6342 -1.3188  1.2717
   43MOL    H3213556   1.815   1.137   8.160 -0.0920 -0.3870 -0.3206
   43MOL    H3313557   1.961   1.234   8.188 -0.3354 -0.1021 -1.1285
   43MOL    C3413558   1.789   1.285   8.308 -0.1660  0.1933 -0.3048
   43MOL    C3513559   1.813   1.179   8.415  0.6140  0.8007 -1.3605
   43MOL    C3613560   1.709   1.091   0.023  0.4850  0.6449 -0.0045
   43MOL    C3713561   1.745   0.993   0.118  0.1147 -0.5668  0.9938
   43MOL    C3813562   1.872   0.982   0.165 -0.9069 -0.5062  0.2182
   43MOL   Cl3913563   1.912   0.845   0.273 -0.2690  0.2807 -0.0146
   43MOL    C4013564   1.975   1.069   0.122 -0.0095  0.6356  0.2362
   43MOL    C4113565   1.946   1.168   0.029 -0.3317  0.2830  0.3591
   43MOL    C4213566   1.840   1.418   8.358 -0.5748 -0.0957 -0.1903
   43MOL    H4313567   1.681   1.287   8.291 -0.0075  0.5947 -1.3291
   43MOL    H4413568   1.610   1.096   8.423  0.7006 -0.0712 -0.5948
   43MOL    H4513569   1.682   0.912   0.154 -0.5823  0.8010  2.9277
   43MOL    H4613570   2.074   1.052   0.161 -0.4756  1.4828  1.7962
   43MOL    H4713571   2.025   1.232   8.437 -1.5736  2.8116  2.0644
   43MOL    H4813572   1.947   1.416   8.379 -0.4509  0.2989 -0.7653
   43MOL    H4913573   1.835   1.489   8.275 -1.4812  0.5092  0.3796
   43MOL    C5013574   1.768   1.495   0.037 -0.2793  0.2465 -0.1109
   43MOL    C5113575   1.622   1.525   0.006  0.2812 -0.7639  0.2917
   43MOL    C5213576   1.580   1.657   8.426 -0.1980  0.4679 -0.1487
   43MOL    C5313577   1.442   1.690   8.410  0.5714  1.0292 -0.1139
   43MOL    C5413578   1.346   1.589   8.416 -0.1045  0.1015 -0.2863
   43MOL   Cl5513579   1.177   1.609   8.392 -0.3763  0.2291  0.1176
   43MOL    C5613580   1.391   1.456   8.436  0.4236  0.7366  0.2580
   43MOL    C5713581   1.527   1.423   0.003 -0.2427  0.0951 -0.0987
   43MOL    C5813582   1.805   1.449   0.176  0.2022  0.3254 -0.3075
   43MOL    H5913583   1.815   1.593   0.034 -0.2356  0.2838  1.7656
   43MOL    H6013584   1.653   1.736   8.435 -0.3958  0.6434 -0.0855
   43MOL    H6113585   1.407   1.791   8.402  1.3298  1.1478 -2.1353
   43MOL    H6213586   1.315   1.381   0.010  0.7718  0.7563  1.9727
   43MOL    H6313587   1.556   1.322   0.025  1.0955  0.1661 -1.4990
   43MOL    H6413588   1.757   1.355   0.202  0.8550 -0.1395 -0.7713
   43MOL    H6513589   1.908   1.414   0.168 -0.1638 -1.0624  0.8591
   43MOL    C6613590   1.820   1.553   0.288  0.0025 -0.0977 -0.6652
   43MOL    C6713591   1.949   1.635   0.287 -0.1621  0.2148 -0.0363
   43MOL    C6813592   1.977   1.693   0.415  0.5063  0.5520 -0.0430
   43MOL    C6913593   2.107   1.754   0.439  0.3300  0.3145  0.0920
   43MOL    C7013594   2.195   1.774   0.333  0.0117 -0.3985 -0.4998
   43MOL   Cl7113595   2.335   1.872   0.358 -0.1614  0.0626  0.3657
   43MOL    C7213596   2.162   1.732   0.200 -0.0053  0.0900 -0.0047
   43MOL    C7313597   2.039   1.657   0.181 -0.3996  0.1384  0.3629
   43MOL    C7413598   1.699   1.647   0.305 -0.0072 -0.6384  0.4973
   43MOL    H7513599   1.839   1.502   0.382 -0.0704 -1.1893 -1.2365
   43MOL    H7613600   1.909   1.684   0.498  0.9307 -1.1944  0.1320
   43MOL    H7713601   2.132   1.778   0.541 -0.9760  0.5614  0.3548
   43MOL    H7813602   2.225   1.751   0.114  0.1886  0.2714  0.1801
   43MOL    H7913603   2.020   1.617   0.082  0.8246  0.1487  0.1072
   43MOL    H8013604   1.727   1.720   0.381  0.1253 -1.4332  1.2205
   43MOL    H8113605   1.679   1.701   0.213  0.8711 -0.7020  0.2640
   43MOL    C8213606   1.561   1.588   0.352  0.2629 -0.2577  0.1611
   43MOL    C8313607   1.570   1.505   0.481 -0.3771 -0.6661 -0.2515
   43MOL    C8413608   1.567   1.363   0.472 -0.2176  0.0629 -0.3413
   43MOL    C8513609   1.592   1.283   0.585 -0.0728 -0.2766  0.2168
   43MOL    C8613610   1.622   1.336   0.711 -0.1730  0.0572  0.8155
   43MOL   Cl8713611   1.647   1.230   0.847 -0.3705 -0.2230 -0.3849
   43MOL    C8813612   1.630   1.477   0.721 -0.7877 -0.1571 -0.1331
   43MOL    C8913613   1.604   1.557   0.610  0.3643 -0.5427  0.1123
   43MOL    C9013614   1.451   1.699   0.350 -0.3595 -0.3551 -0.2392
   43MOL    H9113615   1.538   1.511   0.278 -3.2330  0.4560  0.4201
   43MOL    H9213616   1.541   1.320   0.377  0.8812 -0.5093 -0.3957
   43MOL    H9313617   1.582   1.176   0.573 -1.9824 -0.0481 -0.2981
   43MOL    H9413618   1.663   1.519   0.815 -0.9532  0.9094 -0.5495
   43MOL    H9513619   1.614   1.665   0.617  2.3935 -0.6601 -0.6977
   43MOL    H9613620   1.486   1.798   0.381 -2.5667 -0.1317  1.7693
   43MOL    H9713621   1.420   1.711   0.246 -2.8414  1.7763  0.6584
   43MOL    C9813622   1.320   1.682   0.438  0.5493 -0.9596 -0.2422
   43MOL    C9913623   1.241   1.815   0.424 -0.6435  0.6191  0.0637
   43MOL   C10013624   1.205   1.897   0.527 -0.3902  0.3984 -0.1538
   43MOL   C10113625   1.127   2.005   0.508 -0.7192 -0.6046 -0.9503
   43MOL   C10213626   1.094   2.050   0.382  0.3304  0.9830 -0.5572
   43MOL  Cl10313627   0.996   2.190   0.357  0.0331 -0.0954  0.0406
   43MOL   C10413628   1.131   1.974   0.274  0.4764 -0.3921 -0.6359
   43MOL   C10513629   1.205   1.857   0.296 -0.5813  0.3511 -0.0030
   43MOL   C10613630   1.254   1.547   0.403 -0.1358 -0.2797 -0.5133
   43MOL   H10713631   1.347   1.667   0.543 -0.2664 -2.0491 -0.1850
   43MOL   H10813632   1.232   1.869   0.628  0.4671  0.5626 -0.3318
   43MOL   H10913633   1.086   2.055   0.595  1.8746  1.1633 -0.6582
   43MOL   H11013634   1.098   2.006   0.176  1.5882  1.9292 -0.2815
   43MOL   H11113635   1.236   1.793   0.214 -0.1124 -0.2781  0.6575
   43MOL   H11213636   1.238   1.539   0.295 -0.0287 -0.4578 -0.5151
   43MOL   H11313637   1.319   1.466   0.434 -0.9491 -0.9488 -0.5387
   43MOL   C11413638   1.113   1.543   0.472  0.2126  0.6628 -0.2878
   43MOL   C11513639   0.997   1.615   0.404  0.8493 -0.3330 -0.0342
   43MOL   C11613640   0.926   1.713   0.472  0.1540  0.5035  0.9068
   43MOL   C11713641   0.821   1.769   0.408 -0.0120 -0.6764 -0.5561
   43MOL   C11813642   0.778   1.732   0.277  0.8514 -0.2810 -0.3109
   43MOL  Cl11913643   0.656   1.828   0.196  0.0518  0.4325  0.4710
   43MOL   C12013644   0.857   1.643   0.205 -0.2322 -0.5228  0.1969
   43MOL   C12113645   0.966   1.578   0.268 -0.6984 -0.6308 -0.1869
   43MOL   C12213646   1.073   1.395   0.492  0.2350 -0.0415 -0.6070
   43MOL   H12313647   1.118   1.584   0.573  0.1966  0.8259 -0.3542
   43MOL   H12413648   0.939   1.737   0.577 -1.4158  0.0542  1.2172
   43MOL   H12513649   0.761   1.841   0.461  0.3752  0.4848 -1.6907
   43MOL   H12613650   0.822   1.617   0.106 -1.1189 -0.2101  0.4195
   43MOL   H12713651   1.037   1.516   0.215  1.2696  1.5240 -0.1361
   43MOL   H12813652   0.965   1.389   0.506  0.4716 -2.0983  0.4732
   43MOL   H12913653   1.107   1.342   0.403 -1.2950 -1.0265 -0.6206
   43MOL   C13013654   1.123   1.321   0.625 -0.1885  0.6713 -0.3814
   43MOL   C13113655   1.116   1.400   0.752  0.3184  0.2173  0.5046
   43MOL   C13213656   1.221   1.407   0.838  0.0838  0.2198 -0.3196
   43MOL   C13313657   1.213   1.480   0.960  0.4930 -0.1792  0.4877
   43MOL   C13413658   1.087   1.539   1.001 -0.2683 -0.4522  0.0636
   43MOL  Cl13513659   1.078   1.613   1.158 -0.2002  0.0555  0.1323
   43MOL   C13613660   0.978   1.533   0.915 -0.2783  0.1719  0.3130
   43MOL   C13713661   0.992   1.462   0.788 -0.7247 -0.3379  0.1770
   43MOL   C13813662   1.053   1.174   0.636 -0.0352  0.0427 -0.2870
   43MOL   H13913663   1.230   1.307   0.616  0.0124  1.5124  0.5163
   43MOL   H14013664   1.311   1.348   0.831  0.6879  1.0295  0.5229
   43MOL   H14113665   1.288   1.476   1.037 -0.2649 -0.5200  1.2136
   43MOL   H14213666   0.885   1.582   0.938 -0.5723 -0.4066  0.3621
   43MOL   H14313667   0.904   1.455   0.725 -0.5979  1.0116 -0.1621
   43MOL   H14413668   0.953   1.184   0.593 -0.0252  0.5723 -0.1958
   43MOL   H14513669   1.107   1.102   0.574 -1.4601 -0.7400 -0.6373
   43MOL   C14613670   1.046   1.113   0.781  0.7734  0.3102 -0.0161
   43MOL   C14713671   0.932   1.013   0.800 -0.6955 -0.7644  0.2532
   43MOL   C14813672   0.850   1.019   0.909 -0.1881 -0.1483  0.5408
   43MOL   C14913673   0.766   0.907   0.944  0.4461  0.0567  0.3477
   43MOL   C15013674   0.758   0.797   0.862  0.7943  0.1845 -0.0428
   43MOL  Cl15113675   0.653   0.667   0.913  0.4068 -0.1919 -0.2465
   43MOL   C15213676   0.830   0.795   0.744 -0.4534  0.3330  0.2389
   43MOL   C15313677   0.913   0.905   0.711  0.0270  0.6024  0.1994
   43MOL   C15413678   1.182   1.064   0.834 -0.6883 -0.0435  0.0013
   43MOL   H15513679   1.018   1.203   0.837  1.6039  0.8966 -0.5263
   43MOL   H15613680   0.868   1.093   0.986 -0.4575  0.0882  0.3756
   43MOL   H15713681   0.718   0.911   1.041 -0.2497  1.5080 -0.0319
   43MOL   H15813682   0.841   0.711   0.676  2.8028  1.5601 -0.8634
   43MOL   H15913683   0.980   0.900   0.627 -0.2765  1.0334 -0.0667
   43MOL   H16013684   1.214   0.992   0.758 -2.6050  0.7895 -1.6362
   43MOL   H16113685   1.258   1.142   0.836 -1.2522  0.5452 -1.0812
   43MOL   C16213686   1.187   0.988   0.972 -0.1176  0.0014  0.0626
   43MOL   C16313687   1.314   0.905   0.992  0.0862 -0.5275  0.0691
   43MOL   C16413688   1.294   0.768   1.028  0.7267 -0.2022 -0.6417
   43MOL   C16513689   1.408   0.687   1.050  0.0599  0.7651 -0.6692
   43MOL   C16613690   1.535   0.735   1.030 -0.9122  0.0909 -0.4105
   43MOL  Cl16713691   1.669   0.633   1.047  0.0161  0.1930  0.2937
   43MOL   C16813692   1.558   0.870   1.003  0.1316 -0.0617  0.2176
   43MOL   C16913693   1.445   0.956   0.982 -1.0515  0.2609  0.3084
   43MOL   C17013694   1.157   1.085   1.093  0.0073 -0.2653 -0.0429
   43MOL   H17113695   1.099   0.924   0.960  0.0157 -0.2328  0.3356
   43MOL   H17213696   1.198   0.722   1.051  1.0529 -0.6034 -0.0564
   43MOL   H17313697   1.390   0.584   1.079  1.3214  0.3912 -1.1881
   43MOL   H17413698   1.657   0.912   0.988  0.1195 -0.1203 -0.0185
   43MOL   H17513699   1.457   1.062   0.967 -1.5622  0.2605 -0.0953
   43MOL   H17613700   1.235   1.162   1.097  1.0434 -1.2038 -1.6134
   43MOL   H17713701   1.063   1.135   1.070 -0.3240 -1.7861 -2.1489
   43MOL   C17813702   1.155   1.019   1.232 -0.1992 -0.3803  0.4332
   43MOL   C17913703   1.146   1.126   1.348  0.4329 -0.4725  0.5346
   43MOL   C18013704   1.203   1.111   1.474  0.2296 -0.3477  0.3908
   43MOL   C18113705   1.187   1.214   1.575 -0.4359  0.0897 -0.3976
   43MOL   C18213706   1.118   1.335   1.547 -0.3396 -0.2438  0.0323
   43MOL  Cl18313707   1.102   1.456   1.667 -0.2552  0.3369  0.1824
   43MOL   C18413708   1.068   1.347   1.414  0.0005 -0.4399 -0.7035
   43MOL   C18513709   1.065   1.236   1.322  0.0779 -0.0907 -0.7020
   43MOL   C18613710   1.042   0.912   1.243  0.4214 -0.3843 -0.0492
   43MOL   H18713711   1.257   0.983   1.247  0.3482  2.1459  3.1338
   43MOL   H18813712   1.239   1.010   1.488  0.5275 -0.2031  0.6502
   43MOL   H18913713   1.209   1.199   1.679 -1.5751 -2.4962 -0.4990
   43MOL   H19013714   1.022   1.442   1.394 -0.6540 -0.3536  1.0631
   43MOL   H19113715   1.013   1.255   1.229  1.1720  2.6587 -0.8179
   43MOL   H19213716   0.951   0.970   1.225  0.3647 -0.7490 -0.9485
   43MOL   H19313717   1.044   0.845   1.158  0.1881 -2.0895  1.2761
   43MOL   C19413718   1.029   0.833   1.376 -0.5549 -0.6151 -0.1740
   43MOL   C19513719   0.889   0.763   1.370  0.6923  0.1441 -0.2230
   43MOL   C19613720   0.786   0.831   1.432  0.2867 -0.5581 -0.0328
   43MOL   C19713721   0.649   0.785   1.427 -0.1514 -0.3679  0.1024
   43MOL   C19813722   0.615   0.673   1.341 -0.6830 -0.4918 -0.2365
   43MOL  Cl19913723   0.453   0.624   1.319  0.1310 -0.5933 -0.2132
   43MOL   C20013724   0.724   0.600   1.284 -0.4793  0.2862 -0.0894
   43MOL   C20113725   0.860   0.646   1.297  0.1700 -0.2587 -0.3921
   43MOL   C20213726   1.147   0.735   1.395 -0.1174  0.2329 -0.3253
   43MOL   H20313727   1.026   0.904   1.458 -1.3535 -0.2884 -0.4775
   43MOL   H20413728   0.802   0.933   1.465  2.3722 -0.5804 -0.8951
   43MOL   H20513729   0.572   0.839   1.479 -0.5491 -0.2490 -0.6048
   43MOL   H20613730   0.703   0.510   1.227  3.2258 -2.3944  2.5248
   43MOL   H20713731   0.939   0.593   1.246  1.3062 -0.0901  1.1401
   43MOL   H20813732   1.152   0.665   1.311 -1.4192 -1.1649  0.7427
   43MOL   H20913733   1.233   0.802   1.404 -1.6538  2.2227 -0.2968
   43MOL   C21013734   1.144   0.640   1.523  0.1815 -0.9840 -0.0071
   43MOL   C21113735   1.226   0.514   1.498 -0.6061 -0.0903 -1.1556
   43MOL   C21213736   1.368   0.529   1.491 -0.6488  0.6217  0.0473
   43MOL   C21313737   1.449   0.415   1.467 -0.4123  0.0129 -0.4962
   43MOL   C21413738   1.391   0.289   1.451 -0.3973  0.0953 -0.4662
   43MOL  Cl21513739   1.499   0.154   1.424 -0.1519 -0.1465 -0.0737
   43MOL   C21613740   1.251   0.270   1.449  0.1267 -0.3070  0.1550
   43MOL   C21713741   1.172   0.384   1.480 -0.3310  0.1220 -0.3056
   43MOL   C21813742   1.175   0.716   1.654  0.2186  0.1586 -0.0994
   43MOL   H21913743   1.040   0.609   1.534  0.0497 -0.3227  0.6418
   43MOL   H22013744   1.420   0.622   1.504 -0.1477  0.2310  0.9223
   43MOL   H22113745   1.557   0.411   1.472 -0.4940 -0.3303  1.1400
   43MOL   H22213746   1.207   0.177   1.417 -2.4599  0.0999  2.3073
   43MOL   H22313747   1.065   0.380   1.485 -0.3097  0.0077  0.0574
   43MOL   H22413748   1.282   0.723   1.674  0.5234  1.2615 -2.0383
   43MOL   H22513749   1.148   0.818   1.630 -0.9279 -0.4881 -1.6128
   43MOL   C22613750   1.102   0.673   1.785  0.5356  0.2267 -0.1575
   43MOL   C22713751   0.963   0.723   1.779  1.1992 -0.2013  0.1769
   43MOL   C22813752   0.938   0.862   1.771 -0.1731 -0.7567 -0.1869
   43MOL   C22913753   0.807   0.908   1.753  0.1642  0.3813 -0.6390
   43MOL   C23013754   0.694   0.815   1.752  0.6349 -0.0334 -0.2086
   43MOL  Cl23113755   0.536   0.870   1.759  0.5454  0.2953 -0.6609
   43MOL   C23213756   0.722   0.678   1.767 -0.7504 -1.0365  0.2565
   43MOL   C23313757   0.858   0.635   1.758  0.6074 -0.3158  0.0099
   43MOL   C23413758   1.113   0.520   1.821  0.3465 -0.0947 -0.0367
   43MOL   H23513759   1.153   0.720   1.869 -1.5968 -0.4983  1.5868
   43MOL   H23613760   1.019   0.932   1.781  0.7663 -2.1651  2.5786
   43MOL   H23713761   0.787   1.014   1.749 -0.5938  0.2472 -0.5936
   43MOL   H23813762   0.648   0.600   1.756 -0.3781 -1.7008  2.2410
   43MOL   H23913763   0.866   0.527   1.749  1.7589 -0.0965 -1.8693
   43MOL   H24013764   1.051   0.501   1.909  0.1900 -1.6560 -0.4657
   43MOL   H24113765   1.057   0.464   1.746  0.6519 -1.7160  0.9262
   43MOL   C24213766   1.254   0.463   1.844  0.1549  0.4809 -0.3358
   43MOL   C24313767   1.348   0.560   1.908 -0.4085 -0.1907 -0.2454
   43MOL   C24413768   1.328   0.594   2.045 -0.1700 -0.6994 -0.0323
   43MOL   C24513769   1.419   0.682   2.113  0.0042  0.2783  0.0876
   43MOL   C24613770   1.536   0.725   2.043  0.2149  0.8017  0.5972
   43MOL  Cl24713771   1.674   0.804   2.124  0.0442 -0.3021  0.4945
   43MOL   C24813772   1.559   0.678   1.908  0.1377  0.3748  0.4352
   43MOL   C24913773   1.456   0.606   1.833 -0.1561  0.1810 -0.7217
   43MOL   C25013774   1.240   0.329   1.927  0.2990  0.8814  0.6010
   43MOL   H25113775   1.310   0.442   1.753 -0.7287 -1.3875 -0.4649
   43MOL   H25213776   1.246   0.546   2.096  0.9154  0.2102  2.6929
   43MOL   H25313777   1.410   0.698   2.220 -0.4576 -1.1167  0.2722
   43MOL   H25413778   1.648   0.703   1.853 -1.0637 -0.1907 -1.8230
   43MOL   H25513779   1.479   0.580   1.731  1.0526 -1.4377 -0.0435
   43MOL   H25613780   1.182   0.340   2.019 -0.8336  2.2743 -0.2382
   43MOL   H25713781   1.170   0.276   1.863  2.4914  0.5545 -1.5831
   43MOL   C25813782   1.353   0.231   1.949  0.0563 -0.2775 -0.2228
   43MOL   C25913783   1.358   0.189   2.096  0.3068  0.1335 -0.4466
   43MOL   C26013784   1.280   0.089   2.144  1.0206 -0.3955  0.1168
   43MOL   C26113785   1.281   0.063   2.283  0.8960 -0.4928  0.0039
   43MOL   C26213786   1.368   0.127   2.372  0.0510  1.1104 -0.1619
   43MOL  Cl26313787   1.370   0.090   2.543 -0.0118  0.1308  0.1704
   43MOL   C26413788   1.454   0.225   2.315 -0.4055  0.4397 -0.5216
   43MOL   C26513789   1.440   0.264   2.182 -0.4312 -0.3002 -0.6114
   43MOL   C26613790   1.351   0.109   1.852  0.2745 -0.1717 -0.2974
   43MOL   H26713791   1.439   0.291   1.922  1.0588 -1.1034  1.0766
   43MOL   H26813792   1.209   0.040   2.079 -0.1234  2.2747 -0.7473
   43MOL   H26913793   1.216   8.424   2.309 -1.2776  1.4270  0.7239
   43MOL   H27013794   1.526   0.272   2.381  1.3230 -1.8386 -0.7134
   43MOL   H27113795   1.513   0.332   2.139  0.9073 -1.4595 -0.2018
   43MOL   H27213796   1.285   0.028   1.882 -1.0456  1.1772  0.4960
   43MOL   H27313797   1.301   0.147   1.763  2.6318  1.5490 -0.9393
   43MOL   C27413798   1.484   0.049   1.807  0.9848  0.4720 -1.1761
   43MOL   C27513799   1.568   0.016   1.929 -0.9232 -1.2220  0.4025
   43MOL   C27613800   1.527   8.354   2.021  0.1337  0.7041  0.0275
   43MOL   C27713801   1.614   8.316   2.133  0.1949 -0.6256  0.0971
   43MOL   C27813802   1.724   8.388   2.162  0.7610 -0.5791 -0.2088
   43MOL  Cl27913803   1.819   8.385   2.304  0.3388 -0.6370 -0.2758
   43MOL   C28013804   1.773   0.039   2.062 -0.0310 -0.3912 -0.0365
   43MOL   C28113805   1.692   0.081   1.952  0.4586 -0.1234  0.2221
   43MOL   C28213806   1.454   8.366   1.720 -0.8549  0.6885  1.1215
   43MOL   H28313807   1.540   0.132   1.764  0.9104  1.8391  1.2664
   43MOL   H28413808   1.438   8.301   1.992 -1.1667  2.1040  1.3727
   43MOL   H28513809   1.582   8.237   2.199 -3.3166 -0.9308 -1.8379
   43MOL   H28613810   1.872   0.080   2.073  0.3312 -0.9762 -1.0595
   43MOL   H28713811   1.734   0.151   1.881 -2.5580 -0.3635 -1.8456
   43MOL   H28813812   1.400   8.286   1.770  1.1480 -1.2203  0.2898
   43MOL   H28913813   1.398   8.396   1.631  0.6621  1.3080  0.3557
   43MOL   C29013814   1.583   8.301   1.661  0.4864  0.2866  0.8496
   43MOL   C29113815   1.630   8.183   1.752  1.2531 -0.1723  0.3210
   43MOL   C29213816   1.752   8.189   1.826  0.1831 -0.1661 -0.3857
   43MOL   C29313817   1.783   8.082   1.910  0.3825 -0.3297  0.0317
   43MOL   C29413818   1.707   7.962   1.911  0.3460  0.6038  0.8601
   43MOL  Cl29513819   1.745   7.824   2.010  0.1475  0.4636  0.0502
   43MOL   C29613820   1.594   7.956   1.828  0.7414 -0.2078 -0.0907
   43MOL   C29713821   1.552   8.068   1.757 -0.3654  0.5453  0.3394
   43MOL   C29813822   1.574   8.264   1.506  0.1715  0.0101  0.0970
   43MOL   H29913823   1.664   8.373   1.669  1.4673 -0.5235 -1.4614
   43MOL   H30013824   1.823   8.270   1.822  2.4702 -2.1207 -0.6592
   43MOL   H30113825   1.866   8.093   1.977  0.0746  1.2669  0.1590
   43MOL   H30213826   1.539   7.864   1.823 -0.4812  0.4170  1.4784
   43MOL   H30313827   1.463   8.056   1.697 -0.4111  0.8914  0.3379
   43MOL   H30413828   1.520   8.171   1.485 -2.3795  1.2529  1.0387
   43MOL   H30513829   1.514   8.346   1.468 -0.3343 -1.1210 -1.6286
   43MOL   C30613830   1.710   8.264   1.438  0.0225  0.3506 -0.6067
   43MOL   C30713831   1.705   8.213   1.292 -0.6151 -0.0648 -0.2495
   43MOL   C30813832   1.769   8.094   1.259  0.4140 -0.0803 -0.0134
   43MOL   C30913833   1.766   8.047   1.123  0.4183  0.0557  0.0301
   43MOL   C31013834   1.706   8.125   1.029 -0.2932  0.3567 -0.1816
   43MOL  Cl31113835   1.698   8.073   0.866  0.2047 -0.0179 -0.0106
   43MOL   C31213836   1.645   8.247   1.060 -0.8362 -0.0976 -0.0859
   43MOL   C31313837   1.641   8.289   1.195 -0.2165  0.6033 -0.6648
   43MOL   C31413838   1.796   8.392   1.450  0.4392 -0.0460  0.0206
   43MOL   H31513839   1.765   8.186   1.490  0.0943  1.8024  1.5610
   43MOL   H31613840   1.807   8.028   1.335  1.3461  2.0902  1.4358
   43MOL   H31713841   1.821   7.958   1.094  0.6535  0.4243 -0.6867
   43MOL   H31813842   1.600   8.307   0.983 -0.4403 -0.1685 -0.3758
   43MOL   H31913843   1.585   8.378   1.219  2.5860  1.9621  1.2372
   43MOL   H32013844   1.845   8.392   1.548 -0.2737 -0.0507  0.3813
   43MOL   H32113845   1.885   8.385   1.387  1.2293  0.9033  0.9974
   43MOL   H32213846   1.738   0.038   1.426  0.0091 -0.3699 -0.1383
   44MOL     C113847   0.292   2.604   3.376 -0.2007  0.2666 -0.7159
   44MOL     C213848   0.330   2.640   3.236  0.2717  0.8496  0.7330
   44MOL     C313849   0.270   2.566   3.126  0.2445 -0.4995  0.3311
   44MOL     C413850   0.303   2.600   2.994 -0.1728  0.0074  0.1237
   44MOL     C513851   0.414   2.689   2.970  0.4237  0.7060 -0.0317
   44MOL    Cl613852   0.480   2.703   2.811 -0.2509 -0.1568 -0.0317
   44MOL     C713853   0.479   2.753   3.082  0.0359 -0.0754 -0.3465
   44MOL     C813854   0.432   2.729   3.213 -0.2185 -0.1246 -0.3437
   44MOL     C913855   0.373   2.483   3.432 -0.0322  0.1121 -0.3544
   44MOL    H1013856   0.186   2.580   3.373 -1.1433  3.4723  2.9893
   44MOL    H1113857   0.189   2.497   3.144 -2.5418  2.1734 -1.3934
   44MOL    H1213858   0.257   2.541   2.916  0.2592 -1.1804  0.7583
   44MOL    H1313859   0.555   2.829   3.068 -0.0448 -0.1164 -0.9927
   44MOL    H1413860   0.465   2.782   3.301  1.2326  0.1729 -1.0540
   44MOL    H1513861   0.328   2.449   3.525 -0.4139 -2.0209 -1.2822
   44MOL    H1613862   0.355   2.393   3.372 -0.7834  0.2779 -0.3782
   44MOL    H1713863   0.285   2.687   3.446  1.6388  0.0791 -0.2815
   44MOL    C1813864   0.518   2.514   3.465  0.0220 -0.4534 -0.1455
   44MOL    C1913865   0.526   2.629   3.572  0.3807 -0.8075  0.3010
   44MOL    C2013866   0.453   2.619   3.695 -0.4747 -0.0338 -0.5445
   44MOL    C2113867   0.460   2.725   3.797  0.0489  0.3444  0.0205
   44MOL    C2213868   0.548   2.834   3.777  0.0111 -0.0198 -0.1932
   44MOL   Cl2313869   0.566   2.942   3.912 -0.0403  0.3211  0.1385
   44MOL    C2413870   0.622   2.845   3.652  0.0392  0.4640  0.1380
   44MOL    C2513871   0.603   2.745   3.548 -0.4299  0.2233 -0.1242
   44MOL    C2613872   0.609   2.389   3.486  0.1385  0.0662  0.0379
   44MOL    H2713873   0.558   2.556   3.372  1.1709  0.0685  0.5795
   44MOL    H2813874   0.385   2.536   3.707 -1.1336  0.7856  1.6818
   44MOL    H2913875   0.395   2.716   3.882  0.5542  2.7172  0.6773
   44MOL    H3013876   0.674   2.938   3.639  0.1166  0.5292  0.9086
   44MOL    H3113877   0.654   2.741   3.453 -1.3585  1.7755 -0.7107
   44MOL    H3213878   0.711   2.416   3.512  0.8675  1.0338 -3.6571
   44MOL    H3313879   0.576   2.333   3.574  0.0546 -0.0811 -0.0864
   44MOL    C3413880   0.612   2.288   3.367 -0.3669  0.2229 -0.5430
   44MOL    C3513881   0.634   2.353   3.229  0.1334  0.8661 -1.0440
   44MOL    C3613882   0.762   2.415   3.208 -0.0848 -0.9574 -0.2673
   44MOL    C3713883   0.793   2.464   3.082  0.7332  0.2177 -0.0029
   44MOL    C3813884   0.702   2.448   2.974  0.1458 -0.0789 -0.1436
   44MOL   Cl3913885   0.742   2.504   2.821  0.3021 -0.0554  0.2717
   44MOL    C4013886   0.575   2.389   2.998 -0.0969  0.1929  1.1673
   44MOL    C4113887   0.544   2.340   3.124  0.1564 -0.6944  0.1193
   44MOL    C4213888   0.711   2.176   3.387 -0.0119  0.6264 -0.1311
   44MOL    H4313889   0.510   2.251   3.354  1.2439 -4.7828  0.1457
   44MOL    H4413890   0.835   2.425   3.288  1.2508 -2.0333 -1.3295
   44MOL    H4513891   0.895   2.492   3.061  0.6961 -0.6855 -1.3947
   44MOL    H4613892   0.496   2.386   2.924  0.5016 -1.8782  0.5700
   44MOL    H4713893   0.448   2.296   3.146 -0.6005  0.8690 -0.0306
   44MOL    H4813894   0.735   2.130   3.291  0.5316  0.0354  0.2804
   44MOL    H4913895   0.801   2.224   3.424  0.9418 -2.1241  1.2573
   44MOL    C5013896   0.651   2.066   3.478  0.0311 -0.0673  0.3311
   44MOL    C5113897   0.536   1.980   3.416  0.9401 -0.0189 -0.3939
   44MOL    C5213898   0.555   1.907   3.300 -0.3194 -0.9367  0.7788
   44MOL    C5313899   0.451   1.831   3.244 -0.0571  0.3535  0.1766
   44MOL    C5413900   0.328   1.820   3.306  0.2907  0.3047 -0.2178
   44MOL   Cl5513901   0.201   1.731   3.233 -0.0955  0.1493  0.2699
   44MOL    C5613902   0.305   1.892   3.425 -0.2992  0.4733 -0.5536
   44MOL    C5713903   0.406   1.979   3.479  0.1515 -0.7343 -0.1708
   44MOL    C5813904   0.765   1.983   3.539 -0.2446  0.2096  0.0122
   44MOL    H5913905   0.601   2.116   3.561  0.8438  1.3467 -0.0154
   44MOL    H6013906   0.655   1.914   3.260 -0.4568  2.7797  0.8823
   44MOL    H6113907   0.459   1.774   3.153 -0.4817 -0.6164  0.7273
   44MOL    H6213908   0.206   1.892   3.470 -0.6472 -2.0926 -1.2794
   44MOL    H6313909   0.392   2.038   3.568 -2.3008 -1.8826  0.2366
   44MOL    H6413910   0.837   1.943   3.468 -1.3402 -0.7640 -0.5814
   44MOL    H6513911   0.823   2.046   3.607 -0.2743  0.7779 -0.4849
   44MOL    C6613912   0.729   1.856   3.617  0.0931  0.8072  0.2320
   44MOL    C6713913   0.850   1.781   3.659 -0.5319  0.0726 -0.2594
   44MOL    C6813914   0.955   1.848   3.728  0.0448  0.0016  0.2365
   44MOL    C6913915   1.072   1.774   3.753  0.6012 -0.8419  0.4450
   44MOL    C7013916   1.082   1.642   3.701  0.0670 -0.3989 -0.1104
   44MOL   Cl7113917   1.225   1.555   3.720  0.3457 -0.3218  0.2033
   44MOL    C7213918   0.985   1.588   3.616 -0.2619  0.2204 -0.3085
   44MOL    C7313919   0.861   1.651   3.604 -0.6748 -0.8277 -0.3975
   44MOL    C7413920   0.634   1.877   3.736 -0.1264 -0.1758 -0.5288
   44MOL    H7513921   0.673   1.799   3.543 -1.5278 -0.8685  2.6723
   44MOL    H7613922   0.948   1.950   3.763 -2.6215  1.2216 -3.4774
   44MOL    H7713923   1.150   1.809   3.820  2.6178  0.0656 -2.2873
   44MOL    H7813924   1.018   1.493   3.576  0.6104  0.5097 -0.2849
   44MOL    H7913925   0.784   1.609   3.542 -1.4818 -0.1731  0.1587
   44MOL    H8013926   0.687   1.931   3.814 -0.5461  0.3500 -0.6063
   44MOL    H8113927   0.555   1.944   3.703  1.0858  0.7087 -1.7051
   44MOL    C8213928   0.574   1.743   3.787  0.7379 -0.4755 -0.0133
   44MOL    C8313929   0.499   1.777   3.923  0.1308  0.4305  0.1598
   44MOL    C8413930   0.371   1.845   3.927 -0.6923  0.2763  0.0525
   44MOL    C8513931   0.313   1.898   4.049  0.4297  0.0635  0.1247
   44MOL    C8613932   0.389   1.891   4.170 -0.9191 -0.2985  0.5222
   44MOL   Cl8713933   0.335   1.954   4.322  0.0326  0.2019  0.0241
   44MOL    C8813934   0.515   1.820   4.171 -0.0844  0.6400  0.1510
   44MOL    C8913935   0.571   1.776   4.048 -0.0511  0.2779  0.3831
   44MOL    C9013936   0.490   1.677   3.678 -0.0576  0.0558 -0.1247
   44MOL    H9113937   0.652   1.669   3.805  0.3152 -1.1604 -0.9177
   44MOL    H9213938   0.321   1.856   3.831 -0.6130 -1.1547 -0.1645
   44MOL    H9313939   0.218   1.950   4.047  0.2870 -0.2117 -0.1822
   44MOL    H9413940   0.577   1.809   4.259 -0.0365  0.0313  0.0442
   44MOL    H9513941   0.673   1.742   4.040 -0.3015 -1.0209  2.4776
   44MOL    H9613942   0.433   1.749   3.619 -1.8201 -2.6182 -1.8111
   44MOL    H9713943   0.558   1.634   3.605  0.8175  2.9506 -1.0813
   44MOL    C9813944   0.397   1.569   3.731  0.4877  0.1329 -0.5185
   44MOL    C9913945   0.316   1.511   3.618  0.2362  0.1157 -0.0346
   44MOL   C10013946   0.379   1.435   3.516  0.4231 -0.8200 -0.7955
   44MOL   C10113947   0.305   1.385   3.409 -0.5055 -0.2222 -0.2869
   44MOL   C10213948   0.174   1.431   3.393 -0.3865  0.0718 -0.2022
   44MOL  Cl10313949   0.082   1.370   3.258  0.5821 -0.0799  0.2365
   44MOL   C10413950   0.114   1.517   3.487 -0.4555  0.5869  0.4464
   44MOL   C10513951   0.182   1.550   3.606  0.3627 -0.1418 -0.1646
   44MOL   C10613952   0.457   1.455   3.815  0.0408  0.1803  0.0393
   44MOL   H10713953   0.322   1.624   3.788  2.0666  1.1699  0.5901
   44MOL   H10813954   0.480   1.397   3.525  0.4705 -0.5812 -0.2786
   44MOL   H10913955   0.345   1.319   3.333  1.6552  0.4302  0.2317
   44MOL   H11013956   0.016   1.561   3.474  0.4582  2.9835  1.3855
   44MOL   H11113957   0.142   1.629   3.668 -2.7016 -0.0857 -2.1044
   44MOL   H11213958   0.436   1.360   3.768 -0.7793  0.5962 -0.4397
   44MOL   H11313959   0.565   1.452   3.803  0.1402  3.2509 -0.2972
   44MOL   C11413960   0.414   1.453   3.959 -0.6410 -0.0374  0.5435
   44MOL   C11513961   0.267   1.435   3.961 -0.1441  0.6202  0.0833
   44MOL   C11613962   0.185   1.513   4.045 -0.7995 -0.9180 -0.5022
   44MOL   C11713963   0.047   1.502   4.054 -0.3483 -0.0374 -0.3554
   44MOL   C11813964   8.428   1.409   3.961 -0.7000 -0.3856  0.4725
   44MOL  Cl11913965   8.252   1.404   3.960 -0.3845  0.0551  0.2266
   44MOL   C12013966   0.065   1.324   3.882  0.6194 -0.3213  0.5731
   44MOL   C12113967   0.203   1.340   3.879 -0.1379 -0.4414  0.0275
   44MOL   C12213968   0.496   1.344   4.036  0.6072  0.4352 -0.1038
   44MOL   H12313969   0.437   1.550   4.005  1.6019 -0.1528 -0.2648
   44MOL   H12413970   0.232   1.592   4.102 -2.3643  0.2602 -0.7990
   44MOL   H12513971   8.438   1.567   4.123  1.0501 -0.0529  0.7360
   44MOL   H12613972   0.010   1.259   3.815 -0.9555  2.1532 -0.6268
   44MOL   H12713973   0.249   1.258   3.827 -0.6018 -2.1806  2.2938
   44MOL   H12813974   0.486   1.243   3.996  2.6540  0.1384  0.0846
   44MOL   H12913975   0.604   1.356   4.040  0.7488 -1.0436  1.1929
   44MOL   C13013976   0.464   1.337   4.183 -0.2519  0.4620 -0.4098
   44MOL   C13113977   0.503   1.199   4.226 -0.4757 -0.0855 -0.6612
   44MOL   C13213978   0.405   1.106   4.264 -0.1805  0.4105 -0.0887
   44MOL   C13313979   0.441   0.978   4.316 -0.3568 -0.5258 -0.0066
   44MOL   C13413980   0.572   0.946   4.339 -0.3731 -0.6147  0.4917
   44MOL  Cl13513981   0.613   0.795   4.419 -0.3511 -0.1094  0.3218
   44MOL   C13613982   0.677   1.036   4.297  0.1043  0.4377 -0.4099
   44MOL   C13713983   0.640   1.162   4.245  0.1859 -0.3301 -0.1686
   44MOL   C13813984   0.511   1.453   4.268  0.1813  0.3302 -0.4583
   44MOL   H13913985   0.355   1.335   4.184 -0.4816  6.1091 -1.0334
   44MOL   H14013986   0.301   1.130   4.249 -0.6030 -0.7049  1.0005
   44MOL   H14113987   0.365   0.911   4.354  0.0263 -1.0783 -0.2074
   44MOL   H14213988   0.781   1.016   4.320 -0.0364  2.1911  1.9651
   44MOL   H14313989   0.721   1.226   4.212 -0.0007 -0.5971 -1.1501
   44MOL   H14413990   0.617   1.430   4.280  0.4687  0.1526 -2.9966
   44MOL   H14513991   0.505   1.550   4.219  0.1593 -0.6753 -2.5161
   44MOL   C14613992   0.460   1.454   4.420 -0.2596  0.5250 -0.8340
   44MOL   C14713993   0.533   1.569   4.497  0.1630 -0.2688  0.3501
   44MOL   C14813994   0.648   1.535   4.577 -0.4179  0.0842  0.7051
   44MOL   C14913995   0.711   1.639   4.647  0.0270  0.4788 -0.1576
   44MOL   C15013996   0.667   1.770   4.645  0.0590  0.0108 -0.0698
   44MOL  Cl15113997   0.753   1.893   4.733 -0.1742  0.4293  0.2151
   44MOL   C15213998   0.548   1.802   4.577  0.4979 -0.6191  0.2460
   44MOL   C15313999   0.477   1.697   4.506  0.1239  0.1038  0.8316
   44MOL   C15414000   0.308   1.461   4.428 -0.1669  0.4790  0.1963
   44MOL   H15514001   0.489   1.361   4.470 -1.8873  2.5240  4.1138
   44MOL   H15614002   0.690   1.436   4.583 -0.2243  0.2680  2.7847
   44MOL   H15714003   0.799   1.617   4.705 -0.4984  1.3441  0.9875
   44MOL   H15814004   0.501   1.899   4.578  1.9368  0.0917  2.2043
   44MOL   H15914005   0.384   1.712   4.453 -0.4973  1.1017  2.1650
   44MOL   H16014006   0.275   1.549   4.372 -0.0715  0.4968  0.1671
   44MOL   H16114007   0.262   1.371   4.387  2.6341 -0.4871 -0.9409
   44MOL   C16214008   0.234   1.457   4.573 -0.1610  0.0311 -0.4318
   44MOL   C16314009   0.087   1.486   4.548 -0.4771  0.3323  0.8923
   44MOL   C16414010   0.018   1.582   4.619  0.0434  0.1094 -0.7813
   44MOL   C16514011   8.330   1.619   4.582  0.3392 -0.1192 -0.4256
   44MOL   C16614012   8.257   1.546   4.491 -0.0945  0.7199 -0.1391
   44MOL  Cl16714013   8.096   1.590   4.460 -0.2507  0.1342  0.1513
   44MOL   C16814014   8.321   1.444   4.421 -0.3189  0.2311  0.3515
   44MOL   C16914015   0.016   1.415   4.450 -0.0120  0.3100 -0.6073
   44MOL   C17014016   0.262   1.323   4.642 -0.5857 -0.4958 -0.0115
   44MOL   H17114017   0.280   1.529   4.641 -2.6778  1.5138 -0.2690
   44MOL   H17214018   0.069   1.643   4.691 -0.0425  0.0522 -0.6723
   44MOL   H17314019   8.283   1.700   4.635  1.6334 -1.5520  3.0328
   44MOL   H17414020   8.275   1.381   4.346  0.8446  1.7082 -1.6447
   44MOL   H17514021   0.065   1.334   4.399  3.4057  1.2067  1.1194
   44MOL   H17614022   0.246   1.249   4.563 -0.9721  0.1936 -0.5968
   44MOL   H17714023   0.367   1.332   4.669 -0.5504 -0.3990 -0.1812
   44MOL   C17814024   0.190   1.279   4.769 -1.0177 -0.0179 -0.0599
   44MOL   C17914025   0.164   1.381   4.878  0.1615 -0.0426 -0.3958
   44MOL   C18014026   0.035   1.428   4.904  0.6445 -1.0857 -0.3806
   44MOL   C18114027   8.443   1.491   5.024 -0.1979 -0.3768 -0.1185
   44MOL   C18214028   0.099   1.516   5.123  0.0803  0.4242 -0.5648
   44MOL  Cl18314029   0.043   1.564   5.277 -0.1795 -0.0156 -0.1361
   44MOL   C18414030   0.234   1.480   5.099  0.1416  0.1370 -0.4276
   44MOL   C18514031   0.266   1.413   4.976 -0.4181 -0.2186  0.8048
   44MOL   C18614032   0.059   1.197   4.740  0.1174 -0.5071  0.6636
   44MOL   H18714033   0.251   1.209   4.825 -1.3092 -0.0936  0.1638
   44MOL   H18814034   8.403   1.419   4.826 -0.2231  4.4472 -0.4185
   44MOL   H18914035   8.341   1.524   5.039  0.7075  1.7766  1.5828
   44MOL   H19014036   0.307   1.492   5.178 -2.2094  1.7887  1.5648
   44MOL   H19114037   0.369   1.386   4.961  0.0663  2.2382 -0.5077
   44MOL   H19214038   0.012   1.174   4.835 -0.6194  1.1357  0.7111
   44MOL   H19314039   8.423   1.263   4.702  1.5027  1.1983  0.6972
   44MOL   C19414040   0.065   1.059   4.681  0.0045  0.2553 -0.1086
   44MOL   C19514041   0.169   0.968   4.754 -0.7708 -0.3574  0.3530
   44MOL   C19614042   0.271   0.901   4.681  0.0953  0.2260 -0.2194
   44MOL   C19714043   0.361   0.813   4.740 -0.7231  0.2801  0.4830
   44MOL   C19814044   0.357   0.794   4.881  0.0984 -0.1084 -0.4503
   44MOL  Cl19914045   0.475   0.690   4.961  0.0352  0.3303  0.0750
   44MOL   C20014046   0.253   0.852   4.953 -0.0690  0.4302 -0.3238
   44MOL   C20114047   0.166   0.945   4.894  0.4742  0.0542 -0.2525
   44MOL   C20214048   8.372   0.986   4.672  0.0195  0.5416  0.3064
   44MOL   H20314049   0.097   1.056   4.577  0.1517 -0.9472 -0.0378
   44MOL   H20414050   0.279   0.924   4.576  1.8423 -0.2373 -0.2016
   44MOL   H20514051   0.432   0.767   4.673 -0.4680  2.5366 -0.8616
   44MOL   H20614052   0.253   0.833   5.060 -2.3312  0.9130 -0.2057
   44MOL   H20714053   0.095   0.999   4.956  0.4851  0.4000 -0.5406
   44MOL   H20814054   8.375   0.877   4.671  1.5160  0.5798 -1.2611
   44MOL   H20914055   8.334   0.994   4.774 -0.8618 -1.1106  0.1378
   44MOL   C21014056   8.266   1.029   4.571 -0.1593  0.3347  0.1886
   44MOL   C21114057   8.309   1.028   4.431  0.5219 -0.6282  0.2889
   44MOL   C21214058   8.250   1.114   4.338  0.2741  0.7843  0.4544
   44MOL   C21314059   8.282   1.104   4.198 -0.2277 -0.0150  0.0026
   44MOL   C21414060   8.365   0.997   4.156  1.1128 -0.2776  0.5915
   44MOL  Cl21514061   8.401   0.981   3.991 -0.2466 -0.1289 -0.3131
   44MOL   C21614062   8.427   0.910   4.251  0.1245 -0.3319  0.3016
   44MOL   C21714063   8.399   0.932   4.385  0.7072 -0.2558  0.4559
   44MOL   C21814064   8.131   0.949   4.585  0.1268 -1.0677  0.9518
   44MOL   H21914065   8.261   1.136   4.586 -2.1326  0.2484  0.3278
   44MOL   H22014066   8.178   1.187   4.369 -1.1755  0.3567 -1.7539
   44MOL   H22114067   8.240   1.171   4.125 -0.7504 -1.8973 -1.4900
   44MOL   H22214068   0.053   0.831   4.227  0.2878 -0.6210  1.7124
   44MOL   H22314069   8.437   0.855   4.450  0.4229 -0.4171  0.4308
   44MOL   H22414070   8.069   0.967   4.497  0.8765 -0.1850  0.5945
   44MOL   H22514071   8.146   0.841   4.578  0.0396 -1.1283  1.6659
   44MOL   C22614072   8.045   0.992   4.711 -0.1461  0.3729 -0.2451
   44MOL   C22714073   8.040   1.137   4.735  0.0528  0.2236  0.4483
   44MOL   C22814074   8.116   1.184   4.844 -0.0767  0.6886  0.3083
   44MOL   C22914075   8.130   1.319   4.872  0.4444  0.0914  0.0355
   44MOL   C23014076   8.065   1.412   4.794  0.4961  0.2695  0.5686
   44MOL  Cl23114077   8.092   1.577   4.836 -0.3187 -0.0976 -0.0669
   44MOL   C23214078   7.985   1.367   4.684  0.5971 -0.0521  0.4677
   44MOL   C23314079   7.975   1.229   4.651  0.3489  0.1921  0.4330
   44MOL   C23414080   7.904   0.933   4.724  0.2325 -0.2518  0.5771
   44MOL   H23514081   8.097   0.954   4.799 -0.8249  1.3598  0.5964
   44MOL   H23614082   8.168   1.110   4.902  0.1567  0.5437 -0.0845
   44MOL   H23714083   8.190   1.345   4.958 -0.6352 -1.5190  1.3108
   44MOL   H23814084   7.944   1.448   4.624  0.2836 -0.1925  0.4890
   44MOL   H23914085   7.913   1.194   4.570 -0.0503  2.6570 -0.3639
   44MOL   H24014086   7.861   0.954   4.822  1.6533  1.3948  0.8635
   44MOL   H24114087   7.837   0.973   4.648 -0.2448  1.5180  1.8715
   44MOL   C24214088   7.899   0.782   4.707 -0.0481  0.0834  0.0938
   44MOL   C24314089   7.987   0.703   4.807 -0.0318  0.1875  0.0283
   44MOL   C24414090   7.951   0.688   4.942 -0.5986 -0.1502  0.5654
   44MOL   C24514091   8.027   0.612   5.030 -0.2435 -0.7341  0.1701
   44MOL   C24614092   8.138   0.547   4.984  0.1627 -0.1569  0.2393
   44MOL  Cl24714093   8.219   0.455   5.095 -0.0050  0.0083  0.0915
   44MOL   C24814094   8.184   0.560   4.854  0.9818  0.4861 -0.5537
   44MOL   C24914095   8.105   0.636   4.759  1.0211  0.1576 -1.0248
   44MOL   C25014096   7.763   0.714   4.688 -0.2554 -0.2022  0.2941
   44MOL   H25114097   7.949   0.767   4.611 -0.6598  5.0627 -1.1104
   44MOL   H25214098   7.866   0.741   4.983  0.1503 -0.0965  2.0946
   44MOL   H25314099   7.998   0.601   5.133 -0.8480 -0.1075  0.0674
   44MOL   H25414100   8.275   0.506   4.832 -0.6628 -1.9663 -1.5731
   44MOL   H25514101   8.133   0.631   4.655  1.7320  1.1558 -0.8882
   44MOL   H25614102   7.789   0.610   4.667 -0.1320  0.1633 -1.4583
   44MOL   H25714103   7.721   0.697   4.787  0.5091 -3.2257  0.1696
   44MOL   C25814104   7.650   0.760   4.583 -0.1347  0.6200  0.1249
   44MOL   C25914105   7.720   0.791   4.448 -0.8240 -0.2270 -0.1420
   44MOL   C26014106   7.772   0.684   4.379 -0.9521 -1.0069  0.7412
   44MOL   C26114107   7.823   0.711   4.251 -0.2431 -0.6748 -0.6997
   44MOL   C26214108   7.850   0.837   4.203  0.0789  0.0265  0.3056
   44MOL  Cl26314109   7.942   0.854   4.056  0.2052 -0.0102  0.0063
   44MOL   C26414110   7.800   0.944   4.279 -0.4464 -1.1509 -0.1704
   44MOL   C26514111   7.723   0.925   4.396  0.2475  0.3273  0.2627
   44MOL   C26614112   7.535   0.660   4.563 -0.5043 -0.6255 -0.0106
   44MOL   H26714113   7.622   0.860   4.616 -1.1150 -0.1970  1.8481
   44MOL   H26814114   7.775   0.581   4.411 -1.1715 -1.2843 -0.1232
   44MOL   H26914115   7.856   0.632   4.185  2.7359 -0.6562  0.6809
   44MOL   H27014116   7.820   1.044   4.244 -1.3173 -0.7997  0.3010
   44MOL   H27114117   7.678   1.009   4.448 -0.1204 -1.2820  2.5990
   44MOL   H27214118   7.496   0.680   4.463 -0.5813 -1.4055 -0.1404
   44MOL   H27314119   7.583   0.563   4.555  3.0800  1.1639 -1.2046
   44MOL   C27414120   7.414   0.671   4.653  0.0484 -0.0164  0.5426
   44MOL   C27514121   7.320   0.787   4.636 -0.0408 -0.4942 -0.4474
   44MOL   C27614122   7.317   0.871   4.519 -0.0484  0.8902  0.0279
   44MOL   C27714123   7.250   0.988   4.517 -0.2103  0.5101  0.3763
   44MOL   C27814124   7.159   1.016   4.620  0.5928  0.1752  0.4755
   44MOL  Cl27914125   7.057   1.156   4.592 -0.3047  0.3711  0.1436
   44MOL   C28014126   7.158   0.940   4.740 -0.5757 -0.0940  0.2513
   44MOL   C28114127   7.246   0.830   4.754  0.5303 -0.7480  0.3374
   44MOL   C28214128   7.325   0.542   4.652 -0.3915 -0.3895 -0.2463
   44MOL   H28314129   7.460   0.686   4.751  1.3231 -0.2230 -0.0123
   44MOL   H28414130   7.384   0.851   4.437  0.2266 -0.0491  0.4711
   44MOL   H28514131   7.253   1.046   4.426  2.2763  1.6101  1.1187
   44MOL   H28614132   7.090   0.975   4.816 -0.6635  0.4653 -0.0810
   44MOL   H28714133   7.253   0.779   4.849 -0.6586  0.2875  1.0025
   44MOL   H28814134   7.219   0.558   4.634 -0.1485  4.4048  1.7398
   44MOL   H28914135   7.357   0.480   4.568 -0.7720 -0.4824 -0.3211
   44MOL   C29014136   7.327   0.453   4.784  0.4328 -1.2194 -0.8366
   44MOL   C29114137   7.222   0.343   4.776 -0.1315 -0.8179 -0.3678
   44MOL   C29214138   7.225   0.242   4.676  0.7759  0.1764 -0.1778
   44MOL   C29314139   7.126   0.144   4.670  0.3488 -0.2734  0.5624
   44MOL   C29414140   7.027   0.138   4.768 -0.3578  0.2262  0.0871
   44MOL  Cl29514141   6.912   0.006   4.779 -0.1499 -0.3295  0.1408
   44MOL   C29614142   7.026   0.234   4.872 -0.3886 -0.3932 -0.8320
   44MOL   C29714143   7.123   0.336   4.875 -0.3689  0.1095  0.1937
   44MOL   C29814144   7.469   0.386   4.796 -0.3918 -0.0618  0.4391
   44MOL   H29914145   7.307   0.515   4.871 -1.8940 -2.0479 -0.7441
   44MOL   H30014146   7.297   0.253   4.596 -1.6974  0.8052 -2.3998
   44MOL   H30114147   7.136   0.067   4.595  2.6622  0.6038 -0.0623
   44MOL   H30214148   6.954   0.234   4.952  0.3537  1.1472 -0.1470
   44MOL   H30314149   7.111   0.412   4.951  2.1707  0.1743  0.5939
   44MOL   H30414150   7.482   0.323   4.708  1.3769  1.9031 -0.7686
   44MOL   H30514151   7.540   0.467   4.780 -1.0535  0.2928 -0.7770
   44MOL   C30614152   7.506   0.304   4.922  0.1624  0.3692  0.1065
   44MOL   C30714153   7.642   0.240   4.887 -0.2292 -0.1475 -0.3952
   44MOL   C30814154   7.652   0.101   4.900  0.4993 -0.0800  0.2940
   44MOL   C30914155   7.771   0.036   4.877  0.4193  0.3442 -0.4153
   44MOL   C31014156   7.883   0.111   4.845 -0.4246 -0.2349  0.1537
   44MOL  Cl31114157   8.038   0.038   4.815  0.1830  0.2471  0.0581
   44MOL   C31214158   7.875   0.252   4.846 -0.0812  0.1791 -0.3534
   44MOL   C31314159   7.754   0.322   4.871 -0.2902 -0.2503 -0.0407
   44MOL   C31414160   7.508   0.373   5.052 -0.7062  0.2575 -0.2199
   44MOL   H31514161   7.421   0.237   4.931  1.0844 -0.6056  1.6790
   44MOL   H31614162   7.567   0.041   4.928 -1.2782  1.6245 -1.2704
   44MOL   H31714163   7.762   8.372   4.864 -1.1951  0.3136  0.8780
   44MOL   H31814164   7.970   0.300   4.829  2.1573 -3.4975  0.9850
   44MOL   H31914165   7.745   0.430   4.869  0.1431 -0.2250 -0.8535
   44MOL   H32014166   7.535   0.299   5.128 -1.8708 -1.1106 -1.1321
   44MOL   H32114167   7.577   0.457   5.061 -0.7749  0.1217  2.0239
   44MOL   H32214168   7.405   0.404   5.071 -0.6276  0.1940  0.3199
   45MOL     C114169   4.100   7.435   7.854 -1.1566  0.4348  0.6510
   45MOL     C214170   4.236   7.456   7.923  0.5871 -0.3110  0.2532
   45MOL     C314171   4.313   7.348   7.969  0.0044  0.5440 -0.5461
   45MOL     C414172   4.445   7.363   8.014  0.3979  0.1372  0.6002
   45MOL     C514173   4.505   7.490   8.001 -0.5642  0.1505  1.0276
   45MOL    Cl614174   4.673   7.499   8.048  0.0412  0.1700 -0.1826
   45MOL     C714175   4.431   7.604   7.965  0.0649  0.4520 -0.0574
   45MOL     C814176   4.298   7.584   7.927 -0.1136  0.7540 -0.1264
   45MOL     C914177   4.002   7.363   7.947  1.1919 -0.4487  0.2376
   45MOL    H1014178   4.108   7.386   7.757  1.6006  0.0125  1.0452
   45MOL    H1114179   4.279   7.248   7.946 -2.4788  1.4328 -0.8042
   45MOL    H1214180   4.506   7.276   8.036  0.9214  0.4408  0.3571
   45MOL    H1314181   4.479   7.700   7.971  1.1540 -0.1523  1.0267
   45MOL    H1414182   4.237   7.666   7.893 -0.6016  0.2913 -0.3582
   45MOL    H1514183   4.036   7.259   7.951  1.7504 -0.2717  0.1253
   45MOL    H1614184   4.004   7.405   8.047  2.1973 -0.9771  0.4513
   45MOL    H1714185   4.064   7.535   7.832 -0.2640  0.5169 -0.5002
   45MOL    C1814186   3.859   7.346   7.901 -0.1843 -0.0195 -0.3687
   45MOL    C1914187   3.828   7.367   7.751  0.8002 -0.0357 -0.2820
   45MOL    C2014188   3.778   7.491   7.704 -0.1257 -0.7241  0.2377
   45MOL    C2114189   3.754   7.513   7.560 -0.2377  0.5082  0.3570
   45MOL    C2214190   3.782   7.412   7.467 -0.0507 -0.6491  0.1721
   45MOL   Cl2314191   3.746   7.428   7.304 -0.0706  0.0845 -0.2330
   45MOL    C2414192   3.835   7.290   7.515  0.9895 -0.1426  0.2452
   45MOL    C2514193   3.863   7.275   7.652 -0.5601 -0.5294  0.3588
   45MOL    C2614194   3.779   7.222   7.956  0.2671  0.0873  0.0297
   45MOL    H2714195   3.801   7.424   7.951  2.4077  0.1491  2.5544
   45MOL    H2814196   3.756   7.571   7.774 -1.1496 -1.3068  0.5876
   45MOL    H2914197   3.727   7.609   7.519  2.7686  0.2687 -2.3917
   45MOL    H3014198   3.855   7.211   7.444 -1.9020  1.8235 -2.9683
   45MOL    H3114199   3.914   7.185   7.684 -0.0835 -0.8721 -1.2827
   45MOL    H3214200   3.679   7.235   7.917  0.7217 -2.4265 -2.0887
   45MOL    H3314201   3.818   7.130   7.912  1.1043 -0.0930  1.1033
   45MOL    C3414202   3.784   7.193   8.110  0.2513  0.3720 -0.1567
   45MOL    C3514203   3.752   7.313   8.194  0.5758 -0.4308 -0.4404
   45MOL    C3614204   3.622   7.372   8.182 -0.5397  0.1067  0.0687
   45MOL    C3714205   3.583   7.486   8.262  0.4098  0.5610 -0.8371
   45MOL    C3814206   3.663   7.523   8.366 -0.5833  0.5522  0.3453
   45MOL   Cl3914207   3.616   7.645   0.031 -0.3384 -0.0082 -0.2048
   45MOL    C4014208   3.793   7.470   8.376  0.3762 -0.6490 -0.2317
   45MOL    C4114209   3.842   7.367   8.289  0.3555  0.3158  0.9006
   45MOL    C4214210   3.685   7.082   8.151 -0.0171  0.3343 -0.2438
   45MOL    H4314211   3.885   7.157   8.131  0.2516 -0.0366 -0.8638
   45MOL    H4414212   3.555   7.340   8.104 -1.6974 -0.1489  1.1402
   45MOL    H4514213   3.486   7.529   8.244 -0.4898  0.2038  2.8015
   45MOL    H4614214   3.853   7.506   0.015  0.7590 -3.4678  0.8069
   45MOL    H4714215   3.943   7.331   8.301  0.2764  0.3064  1.5689
   45MOL    H4814216   3.583   7.109   8.125 -0.6741  0.8905  2.7142
   45MOL    H4914217   3.689   6.998   8.082 -1.4308  0.8128 -0.9382
   45MOL    C5014218   3.685   7.030   8.300  0.2294  0.8002 -0.3558
   45MOL    C5114219   3.586   6.915   8.312  0.2426 -0.3438  0.7803
   45MOL    C5214220   3.605   6.795   8.233  0.4509 -0.0482  0.2863
   45MOL    C5314221   3.521   6.685   8.243  0.2974 -0.3558  0.3327
   45MOL    C5414222   3.408   6.700   8.320 -1.1022  0.1885  0.1026
   45MOL   Cl5514223   3.313   6.559   8.338 -0.1537  0.1434  0.0508
   45MOL    C5614224   3.375   6.813   8.397 -0.2689  0.2687  0.4603
   45MOL    C5714225   3.471   6.916   8.400 -1.0221  0.0695 -0.6574
   45MOL    C5814226   3.829   6.995   8.351  0.1231  0.0600  0.0316
   45MOL    H5914227   3.654   7.117   8.358 -0.9737  0.4692 -0.4999
   45MOL    H6014228   3.690   6.784   8.168  0.1329  0.7307 -0.2688
   45MOL    H6114229   3.546   6.589   8.201 -1.4496 -0.3458 -0.7818
   45MOL    H6214230   3.286   6.822   0.014 -0.3842 -0.4617  0.4113
   45MOL    H6314231   3.450   7.001   0.020  0.7520  0.0908 -0.0779
   45MOL    H6414232   3.866   6.923   8.278 -0.3915  0.0465 -0.2170
   45MOL    H6514233   3.903   7.074   8.338  0.6242 -0.3969  0.0882
   45MOL    C6614234   3.836   6.939   0.056 -0.2851 -0.4913 -0.0432
   45MOL    C6714235   3.964   6.863   0.067  0.5574 -0.3635 -0.1091
   45MOL    C6814236   3.958   6.728   0.091 -0.6218 -0.1910 -0.0666
   45MOL    C6914237   4.074   6.641   0.091  0.8799  0.1307 -0.0168
   45MOL    C7014238   4.197   6.704   0.065 -1.0475 -0.3383  0.0837
   45MOL   Cl7114239   4.344   6.612   0.064  0.2483  0.1710  0.0515
   45MOL    C7214240   4.207   6.841   0.034  0.1921  0.2986  0.4834
   45MOL    C7314241   4.089   6.922   0.043 -0.3882  0.6224 -0.4741
   45MOL    C7414242   3.826   7.061   0.150  0.2901  0.6069  0.3355
   45MOL    H7514243   3.761   6.862   0.073  0.2880 -0.7879  1.1854
   45MOL    H7614244   3.863   6.688   0.123 -1.1951  1.9771  0.9999
   45MOL    H7714245   4.070   6.534   0.107 -2.2655  0.1626 -0.2273
   45MOL    H7814246   4.299   6.887   8.442 -0.6747 -0.4715 -2.9883
   45MOL    H7914247   4.095   7.026   0.012  1.0991  1.2263  1.7140
   45MOL    H8014248   3.879   7.147   0.109 -1.3724  0.6835 -1.7294
   45MOL    H8114249   3.725   7.103   0.143 -0.5268 -1.2049  0.9080
   45MOL    C8214250   3.847   7.042   0.304 -0.5964  0.0344 -0.2848
   45MOL    C8314251   3.808   6.905   0.362 -0.2883  0.0474  0.2922
   45MOL    C8414252   3.678   6.858   0.356  0.4915  0.0978 -0.3301
   45MOL    C8514253   3.644   6.722   0.390 -0.2078 -0.1852  0.8435
   45MOL    C8614254   3.743   6.636   0.429  0.7134 -0.3352 -0.0139
   45MOL   Cl8714255   3.702   6.468   0.442 -0.1028 -0.3289  0.3939
   45MOL    C8814256   3.876   6.676   0.428  0.3268  0.2770 -0.7302
   45MOL    C8914257   3.907   6.810   0.401  0.1840 -0.1918 -0.3220
   45MOL    C9014258   3.994   7.088   0.350  0.2593 -0.1483  0.7871
   45MOL    H9114259   3.786   7.108   0.366  0.0184  0.9434 -0.6197
   45MOL    H9214260   3.602   6.922   0.315 -1.7285 -1.4464  1.3025
   45MOL    H9314261   3.544   6.682   0.380  0.1977 -1.7995  2.9149
   45MOL    H9414262   3.955   6.603   0.436 -0.4319 -1.0003 -4.1138
   45MOL    H9514263   4.013   6.824   0.389 -0.0685  0.3162 -2.0917
   45MOL    H9614264   3.995   7.070   0.458 -1.7135  0.0658  0.8582
   45MOL    H9714265   4.069   7.022   0.307 -0.6916  0.4239 -1.8422
   45MOL    C9814266   4.025   7.239   0.330  0.4312 -0.6824 -0.9155
   45MOL    C9914267   3.919   7.321   0.397 -0.5601  0.2404  0.3488
   45MOL   C10014268   3.840   7.410   0.323  0.9366 -0.0486 -0.1359
   45MOL   C10114269   3.728   7.477   0.379 -0.1682  0.4840 -0.8641
   45MOL   C10214270   3.691   7.444   0.509 -0.0943 -0.5251 -0.1269
   45MOL  Cl10314271   3.532   7.493   0.567 -0.1541 -0.2247 -0.1903
   45MOL   C10414272   3.772   7.363   0.591  0.3882  0.1927 -0.5843
   45MOL   C10514273   3.883   7.299   0.531  0.6229  0.1302 -0.0918
   45MOL   C10614274   4.173   7.265   0.386  0.2526  0.3267  1.0457
   45MOL   H10714275   4.020   7.261   0.224  0.9253 -1.9267 -1.2031
   45MOL   H10814276   3.851   7.425   0.216 -0.8202  2.3284 -0.0261
   45MOL   H10914277   3.655   7.519   0.310 -1.5416 -2.6797 -1.4493
   45MOL   H11014278   3.751   7.354   0.696 -0.7817  0.1010 -0.8261
   45MOL   H11114279   3.956   7.244   0.588  1.4671  1.5467  0.2289
   45MOL   H11214280   4.175   7.363   0.433  0.8424 -0.1872  2.1138
   45MOL   H11314281   4.198   7.191   0.462  1.2064 -0.7429 -0.2647
   45MOL   C11414282   4.285   7.269   0.276  0.2076  0.3618  0.2675
   45MOL   C11514283   4.256   7.366   0.161  0.3758  0.2218  0.0063
   45MOL   C11614284   4.233   7.320   0.035 -0.4202 -0.8194 -0.3498
   45MOL   C11714285   4.200   7.410   8.370  0.3185 -0.0152 -0.4920
   45MOL   C11814286   4.176   7.547   8.396 -0.2638  0.3165  0.0224
   45MOL  Cl11914287   4.114   7.653   8.274  0.3302 -0.0329 -0.0981
   45MOL   C12014288   4.194   7.592   0.082  0.4953 -0.3742  0.2007
   45MOL   C12114289   4.247   7.504   0.183  0.0942 -0.5070  0.2601
   45MOL   C12214290   4.421   7.293   0.337  0.3687 -0.3614  0.2238
   45MOL   H12314291   4.287   7.174   0.224 -0.4748  1.5848 -2.0439
   45MOL   H12414292   4.240   7.216   0.009 -0.1773 -1.4468  2.1139
   45MOL   H12514293   4.179   7.380   8.269  2.2658  0.6480 -1.1155
   45MOL   H12614294   4.167   7.693   0.108 -1.7686 -0.7322 -0.6831
   45MOL   H12714295   4.260   7.538   0.284  1.6601 -0.4063  0.0278
   45MOL   H12814296   4.482   7.341   0.260  0.4518 -3.8103 -1.9778
   45MOL   H12914297   4.410   7.370   0.413  0.8477 -1.1328  1.0859
   45MOL   C13014298   4.498   7.168   0.397 -0.2786  0.1156 -0.2290
   45MOL   C13114299   4.516   7.057   0.291 -0.1325  0.2742  0.3667
   45MOL   C13214300   4.516   6.918   0.326  0.3260  0.0339 -0.1601
   45MOL   C13314301   4.548   6.821   0.225  0.6043 -0.0864 -0.7941
   45MOL   C13414302   4.595   6.857   0.093 -0.5389  0.3940  0.9709
   45MOL  Cl13514303   4.645   6.735   8.429 -0.1120 -0.1591  0.3093
   45MOL   C13614304   4.601   6.994   0.065  0.4032 -0.0563 -0.3548
   45MOL   C13714305   4.556   7.093   0.160  0.1717 -0.4976  0.3084
   45MOL   C13814306   4.637   7.208   0.457 -0.4756 -0.6355  0.2787
   45MOL   H13914307   4.437   7.122   0.474 -0.3613 -0.2819 -0.5328
   45MOL   H14014308   4.489   6.883   0.425  1.7255  1.0901  0.6210
   45MOL   H14114309   4.546   6.717   0.255 -0.9754 -0.0182 -0.6173
   45MOL   H14214310   4.639   7.035   8.416  0.7837  1.1955  0.3507
   45MOL   H14314311   4.554   7.196   0.128 -2.5106  0.3237  2.8676
   45MOL   H14414312   4.671   7.116   0.504 -2.2472 -1.6444 -0.3740
   45MOL   H14514313   4.712   7.212   0.378  0.2026 -0.2467  0.9350
   45MOL   C14614314   4.651   7.325   0.557  0.3348  0.7755  0.6265
   45MOL   C14714315   4.568   7.315   0.688 -0.6286  0.1547 -0.2352
   45MOL   C14814316   4.617   7.225   0.788  0.2061  0.1864  0.1116
   45MOL   C14914317   4.545   7.219   0.909 -0.9387 -0.2216  0.1728
   45MOL   C15014318   4.429   7.294   0.934 -0.2415  0.2127  0.8243
   45MOL  Cl15114319   4.350   7.272   1.089  0.7756 -0.4051 -0.0081
   45MOL   C15214320   4.391   7.387   0.841 -0.0555 -0.8031  0.2899
   45MOL   C15314321   4.451   7.388   0.715  0.0824  0.2162  0.3629
   45MOL   C15414322   4.803   7.361   0.587 -0.6926 -0.8788  0.0908
   45MOL   H15514323   4.605   7.414   0.513  1.9250  2.1295  1.6330
   45MOL   H15614324   4.699   7.158   0.769  1.6097  2.3105 -1.5212
   45MOL   H15714325   4.578   7.146   0.980 -0.3483 -0.2684 -0.1481
   45MOL   H15814326   4.299   7.442   0.856  0.7894  0.9822 -0.9505
   45MOL   H15914327   4.412   7.459   0.644 -1.1946  0.0662  0.8979
   45MOL   H16014328   4.827   7.311   0.681  1.3272  0.1950  0.1782
   45MOL   H16114329   4.854   7.301   0.512 -3.4723 -2.0123 -0.9465
   45MOL   C16214330   4.856   7.506   0.570  0.1581 -0.7032  0.0338
   45MOL   C16314331   4.780   7.610   0.654  0.3935 -0.3935 -0.6831
   45MOL   C16414332   4.736   7.732   0.597 -0.0778 -0.2238 -0.1067
   45MOL   C16514333   4.688   7.832   0.683 -0.1482 -0.5806 -0.1939
   45MOL   C16614334   4.696   7.817   0.821  0.5145  0.0745 -1.2228
   45MOL  Cl16714335   4.652   7.943   0.935 -0.0448 -0.1366  0.2001
   45MOL   C16814336   4.717   7.686   0.872 -0.2691  0.3488  0.0408
   45MOL   C16914337   4.771   7.581   0.793  1.0394 -0.2207  0.2396
   45MOL   C17014338   5.014   7.500   0.591 -0.2119 -0.4278  0.5385
   45MOL   H17114339   4.836   7.531   0.466  0.9410  0.0238  0.0500
   45MOL   H17214340   4.743   7.764   0.494  1.5039 -0.7842 -0.1800
   45MOL   H17314341   4.661   7.931   0.650 -0.4210  0.0153  1.8009
   45MOL   H17414342   4.726   7.666   0.978 -0.9146 -1.7488 -0.2712
   45MOL   H17514343   4.810   7.494   0.844 -1.2708 -0.3502  1.8200
   45MOL   H17614344   5.056   7.596   0.621  1.4730 -1.8102  2.8700
   45MOL   H17714345   5.035   7.429   0.671 -0.3519 -1.3688 -0.2461
   45MOL   C17814346   5.091   7.443   0.461  0.5445  0.2643 -0.1002
   45MOL   C17914347   5.079   7.541   0.337  0.1174 -1.1021 -0.1882
   45MOL   C18014348   5.078   7.684   0.353 -0.0745  0.1741  0.1722
   45MOL   C18114349   5.058   7.767   0.237 -0.1421  0.6309 -0.4315
   45MOL   C18214350   5.031   7.703   0.116 -0.2809 -0.2940 -0.7541
   45MOL  Cl18314351   4.989   7.803   8.423  0.1297 -0.1777  0.3153
   45MOL   C18414352   5.032   7.565   0.102 -0.0661  0.3196 -0.1078
   45MOL   C18514353   5.054   7.483   0.213 -0.4588  0.3120  0.0750
   45MOL   C18614354   5.233   7.390   0.493 -0.1063 -0.2566 -0.1870
   45MOL   H18714355   5.029   7.363   0.420 -0.3362  0.1629  1.3520
   45MOL   H18814356   5.085   7.728   0.451 -1.2566 -1.3563  0.9821
   45MOL   H18914357   5.044   7.873   0.250  0.2828  0.4525  1.6296
   45MOL   H19014358   5.025   7.519   0.004  0.7529 -0.2945  0.1184
   45MOL   H19114359   5.056   7.375   0.204 -1.0545  0.3632 -0.6551
   45MOL   H19214360   5.275   7.353   0.399  1.1179  0.2627  0.1412
   45MOL   H19314361   5.305   7.457   0.540  0.3888 -1.9880  1.5856
   45MOL   C19414362   5.236   7.259   0.586  0.1495 -0.0575  0.3765
   45MOL   C19514363   5.142   7.147   0.541  0.2131 -0.4388  0.2113
   45MOL   C19614364   5.160   7.085   0.417  0.0014 -0.5861 -0.5299
   45MOL   C19714365   5.066   7.005   0.363  0.0431  0.0775 -0.2625
   45MOL   C19814366   4.953   6.970   0.438 -0.7363  0.3843 -0.0633
   45MOL  Cl19914367   4.845   6.849   0.385  0.3117  0.2561  0.6129
   45MOL   C20014368   4.929   7.025   0.573  0.0827  0.3117  0.9553
   45MOL   C20114369   5.029   7.110   0.622  0.5915 -0.1983  0.3343
   45MOL   C20214370   5.381   7.209   0.603 -0.4634 -0.0936  0.3817
   45MOL   H20314371   5.193   7.288   0.683  0.2604 -1.9279  0.9896
   45MOL   H20414372   5.244   7.117   0.356  1.9680 -1.0251  1.8686
   45MOL   H20514373   5.078   6.972   0.261  3.4688  0.4386 -0.0339
   45MOL   H20614374   4.848   6.990   0.635  0.4784  0.1922  1.4046
   45MOL   H20714375   5.017   7.162   0.716  0.3770 -0.2107  0.3144
   45MOL   H20814376   5.434   7.200   0.508  0.1485 -1.1698  0.8138
   45MOL   H20914377   5.425   7.276   0.678 -0.7124  0.1011  0.3543
   45MOL   C21014378   5.390   7.068   0.667  0.6064 -0.8155  0.4601
   45MOL   C21114379   5.526   6.997   0.648 -0.2692  0.6315  0.0085
   45MOL   C21214380   5.637   7.036   0.727  0.2606 -0.0670 -0.5789
   45MOL   C21314381   5.759   6.973   0.707 -0.3329  0.3742 -0.2741
   45MOL   C21414382   5.772   6.865   0.617 -0.2892  0.3167 -0.5643
   45MOL  Cl21514383   5.928   6.781   0.598 -0.2376  0.6196  0.0322
   45MOL   C21614384   5.659   6.827   0.540  0.1484 -0.1837  0.6017
   45MOL   C21714385   5.542   6.901   0.549  0.0502 -0.9304  0.3014
   45MOL   C21814386   5.334   7.058   0.813  0.2097 -0.0555 -0.4003
   45MOL   H21914387   5.326   7.012   0.599  1.4854 -0.1464 -0.9320
   45MOL   H22014388   5.641   7.123   0.792  1.1244 -1.7800  1.7577
   45MOL   H22114389   5.844   7.012   0.761  0.3617 -0.1471 -0.9756
   45MOL   H22214390   5.662   6.750   0.463  0.1786 -0.8151  1.2290
   45MOL   H22314391   5.458   6.878   0.485 -1.4621 -0.7581  2.1926
   45MOL   H22414392   5.412   7.089   0.883  0.6044 -1.8414 -0.0127
   45MOL   H22514393   5.245   7.119   0.826  1.1945  0.9640  2.0540
   45MOL   C22614394   5.285   6.910   0.857 -0.2263 -0.5285  0.1097
   45MOL   C22714395   5.179   6.836   0.769  0.3719  0.0247 -0.1444
   45MOL   C22814396   5.045   6.807   0.818 -0.6716 -0.4490  0.2929
   45MOL   C22914397   4.963   6.721   0.753 -0.0173  0.0469 -0.7218
   45MOL   C23014398   5.006   6.664   0.629 -0.0930  0.6345 -0.7724
   45MOL  Cl23114399   4.909   6.538   0.567 -0.2759 -0.4347 -0.3706
   45MOL   C23214400   5.128   6.701   0.568  0.1788  0.4294  0.6842
   45MOL   C23314401   5.211   6.781   0.645 -0.8537  0.0285  0.0141
   45MOL   C23414402   5.406   6.813   0.891 -0.1279  0.1681  0.0977
   45MOL   H23514403   5.230   6.931   0.949 -0.2826 -1.4064  0.2830
   45MOL   H23614404   5.005   6.855   0.906 -1.7760  0.5895 -0.7524
   45MOL   H23714405   4.874   6.683   0.802  0.3032 -1.0990 -1.0134
   45MOL   H23814406   5.159   6.661   0.473 -0.0409 -0.2710  0.9002
   45MOL   H23914407   5.311   6.795   0.609 -1.9440 -1.2408 -3.7754
   45MOL   H24014408   5.363   6.716   0.919 -0.1421  0.5718  1.5575
   45MOL   H24114409   5.457   6.790   0.798  3.5812  0.6829  1.9082
   45MOL   C24214410   5.493   6.858   1.008 -0.5827 -0.3095 -0.3217
   45MOL   C24314411   5.423   6.916   1.133 -1.1535 -0.1856 -0.0345
   45MOL   C24414412   5.422   7.056   1.162  0.3223 -0.7977  0.6621
   45MOL   C24514413   5.371   7.101   1.283  0.3369  0.2741 -0.1860
   45MOL   C24614414   5.315   7.017   1.379 -0.0907  0.3107  0.2531
   45MOL  Cl24714415   5.247   7.072   1.527  0.0796  0.0625 -0.0838
   45MOL   C24814416   5.302   6.877   1.349  0.3128  0.0905 -0.1730
   45MOL   C24914417   5.352   6.829   1.226 -0.9201 -0.2955  0.8751
   45MOL   C25014418   5.584   6.735   1.032  0.1538 -0.6510  0.0478
   45MOL   H25114419   5.555   6.942   0.976  1.0450 -0.3610  2.4314
   45MOL   H25214420   5.469   7.125   1.093 -1.0596 -1.6890 -1.2130
   45MOL   H25314421   5.386   7.207   1.298  0.7664  0.0196  1.2751
   45MOL   H25414422   5.249   6.811   1.417  0.5148  0.4098  0.2910
   45MOL   H25514423   5.346   6.723   1.211  0.1745 -0.4024  1.1865
   45MOL   H25614424   5.516   6.655   1.060  1.1960 -1.8437 -0.7663
   45MOL   H25714425   5.634   6.711   0.939 -0.4370  0.5272 -0.5913
   45MOL   C25814426   5.698   6.754   1.140  0.5584  0.0299 -0.1990
   45MOL   C25914427   5.746   6.619   1.207  0.0594  0.2062  0.1678
   45MOL   C26014428   5.766   6.595   1.345 -0.3262 -0.1823 -0.2568
   45MOL   C26114429   5.822   6.479   1.397  0.1531 -0.5700  0.4641
   45MOL   C26214430   5.860   6.372   1.312 -0.7798 -0.2361 -0.0350
   45MOL  Cl26314431   5.897   6.218   1.378 -0.1508 -0.4556 -0.1731
   45MOL   C26414432   5.850   6.393   1.176  0.0814  0.1652 -0.0878
   45MOL   C26514433   5.791   6.513   1.124 -0.1170 -0.4573 -0.7031
   45MOL   C26614434   5.814   6.832   1.073  0.0552 -0.8968 -0.3104
   45MOL   H26714435   5.658   6.805   1.228  0.1708  1.0314 -0.9409
   45MOL   H26814436   5.734   6.673   1.413 -0.3226 -0.0527 -0.4010
   45MOL   H26914437   5.839   6.467   1.503  1.1696 -0.6066  0.3027
   45MOL   H27014438   5.864   6.316   1.102  1.6468  1.0762 -0.7621
   45MOL   H27114439   5.786   6.522   1.017  0.6337 -1.7844 -0.8553
   45MOL   H27214440   5.843   6.788   0.978  0.5084 -0.5557 -0.3336
   45MOL   H27314441   5.767   6.922   1.033  0.1423 -0.8609 -0.3317
   45MOL   C27414442   5.936   6.873   1.165 -0.2883 -0.9266  0.2171
   45MOL   C27514443   6.063   6.811   1.109 -0.3416  0.7942 -0.4415
   45MOL   C27614444   6.117   6.689   1.164  0.4984  0.2449  0.4830
   45MOL   C27714445   6.236   6.631   1.105 -0.4855  0.4210 -0.1365
   45MOL   C27814446   6.295   6.690   0.994 -0.4496  0.2715 -0.3547
   45MOL  Cl27914447   6.440   6.627   0.912 -0.0348 -0.0500  0.0932
   45MOL   C28014448   6.237   6.810   0.936  0.1166  0.1687  0.1765
   45MOL   C28114449   6.127   6.874   1.001  0.2270  0.0701 -0.2953
   45MOL   C28214450   5.962   7.027   1.184  0.3033  0.6559  1.1340
   45MOL   H28314451   5.918   6.827   1.262 -2.3615 -0.4451  0.0723
   45MOL   H28414452   6.072   6.642   1.250  2.1443  0.7366  1.6394
   45MOL   H28514453   6.266   6.538   1.149 -0.5300  1.3981  2.0254
   45MOL   H28614454   6.284   6.855   0.849 -2.7131  0.2037 -1.4069
   45MOL   H28714455   6.094   6.964   0.950  1.0410 -0.2605 -1.4059
   45MOL   H28814456   6.053   7.027   1.243  1.8480 -2.3909 -1.0780
   45MOL   H28914457   5.982   7.072   1.087  0.2965 -0.6507  0.5081
   45MOL   C29014458   5.859   7.107   1.252  0.1461 -0.4336  0.3418
   45MOL   C29114459   5.813   7.039   1.383  0.2812 -0.3383  0.3506
   45MOL   C29214460   5.674   7.004   1.398  0.4889  0.2691 -0.1639
   45MOL   C29314461   5.632   6.950   1.519  0.2933 -0.7257  0.0544
   45MOL   C29414462   5.720   6.928   1.624  0.1303  0.9102  0.2043
   45MOL  Cl29514463   5.660   6.859   1.771 -0.1126  0.1460  0.1052
   45MOL   C29614464   5.856   6.959   1.610 -0.9690 -0.2791  0.1974
   45MOL   C29714465   5.897   7.027   1.493 -0.1443  0.1435 -0.5022
   45MOL   C29814466   5.910   7.245   1.276 -0.6167 -0.1186 -0.7087
   45MOL   H29914467   5.777   7.105   1.180  0.6026 -0.3538 -0.1825
   45MOL   H30014468   5.603   7.027   1.319 -0.0379 -2.4105 -0.5132
   45MOL   H30114469   5.526   6.932   1.532  0.3106 -0.0584  1.1291
   45MOL   H30214470   5.923   6.933   1.690 -0.2575  3.0624  0.7935
   45MOL   H30314471   5.996   7.070   1.486  0.0074 -0.2351 -0.6925
   45MOL   H30414472   5.859   7.284   1.364  1.1393  1.8114 -0.5132
   45MOL   H30514473   6.013   7.235   1.312 -0.7172  1.1659 -0.0270
   45MOL   C30614474   5.920   7.352   1.166  0.7160  0.0949  0.6447
   45MOL   C30714475   5.773   7.388   1.128 -0.2140 -0.0460 -0.9788
   45MOL   C30814476   5.707   7.494   1.201  0.3178 -0.3300  0.8743
   45MOL   C30914477   5.577   7.528   1.172 -0.4861  0.1871  0.2147
   45MOL   C31014478   5.504   7.461   1.065 -0.1944 -0.8081 -0.7511
   45MOL  Cl31114479   5.337   7.498   1.037  0.0754  0.1650 -0.0421
   45MOL   C31214480   5.565   7.356   0.995 -0.4579  0.7110  0.3697
   45MOL   C31314481   5.704   7.319   1.026  0.6684 -0.0196  0.4126
   45MOL   C31414482   6.003   7.481   1.192  0.4693  0.1171  0.7332
   45MOL   H31514483   5.961   7.312   1.074 -3.3932 -1.2428 -0.6934
   45MOL   H31614484   5.743   7.549   1.287 -0.2511  2.5432 -0.6875
   45MOL   H31714485   5.541   7.606   1.237  1.4643  0.0403  1.5188
   45MOL   H31814486   5.509   7.293   0.928  0.2939 -0.1579  0.5440
   45MOL   H31914487   5.752   7.243   0.967 -0.7368 -0.4841 -0.1629
   45MOL   H32014488   6.107   7.452   1.187 -0.2861 -2.7975  1.0502
   45MOL   H32114489   5.993   7.547   1.106 -1.0731  1.4836  1.9228
   45MOL   H32214490   5.969   7.533   1.282 -1.0377  1.1972 -0.4251
   46MOL     C114491   4.489   6.281   0.836  0.0118 -0.1878 -0.0187
   46MOL     C214492   4.359   6.345   0.794  0.1629  0.4532  0.2085
   46MOL     C314493   4.253   6.254   0.764 -1.2281  0.2307 -0.0872
   46MOL     C414494   4.129   6.306   0.751 -0.7569 -0.2347  1.0696
   46MOL     C514495   4.117   6.450   0.747 -0.0903 -0.3454 -0.2777
   46MOL    Cl614496   3.962   6.523   0.736  0.1789 -0.5535  0.0897
   46MOL     C714497   4.226   6.535   0.773 -0.1165  0.2894  0.0949
   46MOL     C814498   4.350   6.482   0.788 -0.4685  0.5034  0.3087
   46MOL     C914499   4.535   6.331   0.976 -0.1690  0.0573 -0.1567
   46MOL    H1014500   4.560   6.300   0.756 -0.8885  3.7883  0.0031
   46MOL    H1114501   4.261   6.146   0.773  0.8113  0.6229  3.4450
   46MOL    H1214502   4.044   6.240   0.737 -0.7021  0.1933 -1.6227
   46MOL    H1314503   4.212   6.642   0.781  0.4144  0.1907  2.6403
   46MOL    H1414504   4.437   6.541   0.812  1.1255 -2.2119  1.5737
   46MOL    H1514505   4.639   6.313   1.004  0.0397  0.1468 -0.8515
   46MOL    H1614506   4.536   6.439   0.961  0.3060 -0.1458 -1.6744
   46MOL    H1714507   4.478   6.173   0.834 -0.3154 -0.1647  0.4198
   46MOL    C1814508   4.445   6.305   1.105 -0.2271  0.4457  0.4120
   46MOL    C1914509   4.453   6.163   1.147  0.5240 -0.3164 -0.5638
   46MOL    C2014510   4.553   6.115   1.232  1.1937  0.3043 -0.4395
   46MOL    C2114511   4.554   5.975   1.271 -0.4649  0.0066 -0.0280
   46MOL    C2214512   4.459   5.886   1.217  0.4342 -0.3091  0.5329
   46MOL   Cl2314513   4.464   5.726   1.277 -0.3379  0.0766  0.1879
   46MOL    C2414514   4.364   5.933   1.128  0.0700  0.6861 -0.8264
   46MOL    C2514515   4.361   6.067   1.091  0.1979  0.2970  0.0807
   46MOL    C2614516   4.468   6.403   1.222  0.0941 -0.2000  0.6364
   46MOL    H2714517   4.339   6.328   1.089 -0.5764 -2.3196 -1.6096
   46MOL    H2814518   4.628   6.182   1.272 -0.8695  0.4012  3.5416
   46MOL    H2914519   4.629   5.933   1.337 -3.1249 -3.8458  0.7583
   46MOL    H3014520   4.290   5.861   1.096 -1.3442  2.2253 -1.0271
   46MOL    H3114521   4.296   6.097   1.010  2.7311 -0.0039 -2.1654
   46MOL    H3214522   4.446   6.359   1.320 -0.7394 -0.8892  0.1396
   46MOL    H3314523   4.576   6.416   1.235 -0.2206  1.7091  1.4541
   46MOL    C3414524   4.399   6.535   1.207 -0.4172  0.1598  0.0701
   46MOL    C3514525   4.253   6.529   1.236 -0.1542 -0.0255  0.3629
   46MOL    C3614526   4.158   6.534   1.132  0.7786 -0.4401  0.2731
   46MOL    C3714527   4.027   6.494   1.157 -0.0814  0.2565  0.3196
   46MOL    C3814528   3.986   6.456   1.282  0.3951  0.1943 -0.8504
   46MOL   Cl3914529   3.824   6.405   1.311  0.3928  0.0962 -0.0034
   46MOL    C4014530   4.077   6.456   1.397  0.0772 -0.2929  0.7840
   46MOL    C4114531   4.215   6.496   1.370 -0.0933  0.1952 -0.0341
   46MOL    C4214532   4.458   6.649   1.285 -0.2755  0.8026 -0.2363
   46MOL    H4314533   4.396   6.566   1.103 -0.0358 -1.6800 -0.4909
   46MOL    H4414534   4.181   6.551   1.028 -0.6531  3.1672  0.4584
   46MOL    H4514535   3.953   6.489   1.078 -2.0568  2.1907  1.9608
   46MOL    H4614536   4.038   6.425   1.493 -0.8510 -1.2951  0.0987
   46MOL    H4714537   4.286   6.510   1.450 -2.5707 -1.4892  2.5015
   46MOL    H4814538   4.374   6.716   1.307 -0.5410  0.6179 -0.6935
   46MOL    H4914539   4.481   6.622   1.388  0.5901  1.6463 -0.1959
   46MOL    C5014540   4.574   6.738   1.227  0.4595 -0.2869  0.2035
   46MOL    C5114541   4.532   6.799   1.093  0.1895  0.0662  0.1243
   46MOL    C5214542   4.618   6.792   0.984  0.3613  0.3263 -0.7517
   46MOL    C5314543   4.580   6.859   0.866 -0.3410  0.6903 -0.0915
   46MOL    C5414544   4.453   6.905   0.843 -0.0812  0.3472 -0.5379
   46MOL   Cl5514545   4.409   6.959   0.681  0.3562  0.2379  0.0363
   46MOL    C5614546   4.361   6.904   0.946  0.2611 -0.2771 -0.2513
   46MOL    C5714547   4.405   6.864   1.075 -0.6165 -0.5727  0.5530
   46MOL    C5814548   4.613   6.850   1.328 -0.4123 -0.6527  0.1120
   46MOL    H5914549   4.661   6.674   1.216  2.0425  2.1850 -2.4406
   46MOL    H6014550   4.716   6.749   0.999 -0.0265  0.1674  1.4471
   46MOL    H6114551   4.648   6.858   0.782  0.4562 -0.5851  0.5510
   46MOL    H6214552   4.265   6.939   0.912  0.1049 -2.4011 -2.1625
   46MOL    H6314553   4.332   6.872   1.155 -0.7614 -3.3568  0.7615
   46MOL    H6414554   4.632   6.941   1.271 -1.4034 -0.4174  0.1628
   46MOL    H6514555   4.527   6.869   1.392 -0.6836 -0.4384 -0.3147
   46MOL    C6614556   4.727   6.837   1.429  0.2818 -0.5162  0.0756
   46MOL    C6714557   4.725   6.950   1.529  0.8794  0.6024 -0.0601
   46MOL    C6814558   4.659   6.940   1.658 -0.0351  0.3612  0.4018
   46MOL    C6914559   4.646   7.057   1.739 -0.2086  0.2307  0.2940
   46MOL    C7014560   4.711   7.174   1.699  0.6589 -0.2957  0.1928
   46MOL   Cl7114561   4.694   7.318   1.800 -0.5287 -0.0352  0.1862
   46MOL    C7214562   4.788   7.183   1.578  1.2722 -0.1967  0.3807
   46MOL    C7314563   4.794   7.068   1.498 -0.1766  0.1071  0.4049
   46MOL    C7414564   4.737   6.692   1.493 -0.0674  0.8812 -0.2005
   46MOL    H7514565   4.818   6.859   1.373  1.0396 -0.8772  1.1483
   46MOL    H7614566   4.609   6.852   1.696 -0.5613  0.0823 -0.9015
   46MOL    H7714567   4.589   7.062   1.830  0.8150  1.8052  0.8771
   46MOL    H7814568   4.829   7.280   1.556 -0.7204  1.1534  2.3435
   46MOL    H7914569   4.859   7.072   1.412  0.7687 -0.2960  1.0923
   46MOL    H8014570   4.652   6.662   1.556  1.7025 -2.9451  0.5607
   46MOL    H8114571   4.749   6.614   1.418  0.8954  1.8965 -1.1034
   46MOL    C8214572   4.855   6.672   1.595  0.2049  0.9765  0.3953
   46MOL    C8314573   4.831   6.555   1.693  0.3129 -0.0821 -0.7309
   46MOL    C8414574   4.743   6.448   1.681  1.0267 -0.0798  0.0697
   46MOL    C8514575   4.720   6.360   1.790  0.2334  0.3155  0.2480
   46MOL    C8614576   4.792   6.372   1.910 -1.0535  0.7267  0.1348
   46MOL   Cl8714577   4.769   6.274   2.043 -0.4421  0.2696  0.0614
   46MOL    C8814578   4.886   6.479   1.924  0.4805  1.0452 -0.5304
   46MOL    C8914579   4.908   6.559   1.812  0.8859 -0.4331  0.2576
   46MOL    C9014580   4.989   6.661   1.518  0.3669  0.4810  0.3600
   46MOL    H9114581   4.867   6.761   1.656 -3.0499  2.3402 -0.8881
   46MOL    H9214582   4.682   6.435   1.592  0.0499 -2.4792  1.0316
   46MOL    H9314583   4.649   6.283   1.766  0.9313 -0.3867  0.4102
   46MOL    H9414584   4.935   6.501   2.018  0.1709 -0.0324 -0.1036
   46MOL    H9514585   4.979   6.640   1.810 -1.1600  1.3664 -0.0495
   46MOL    H9614586   4.995   6.746   1.450  0.6227 -0.1808 -0.4623
   46MOL    H9714587   5.068   6.682   1.590 -0.1568  2.8290  0.3088
   46MOL    C9814588   5.020   6.521   1.455 -0.4381 -0.6173  0.0470
   46MOL    C9914589   4.972   6.499   1.308 -0.1260 -0.1505  0.7815
   46MOL   C10014590   4.978   6.607   1.217 -0.3132 -0.3629 -0.2186
   46MOL   C10114591   4.934   6.579   1.082  0.9651 -0.0077 -0.3455
   46MOL   C10214592   4.882   6.454   1.053 -0.1703  0.3435 -0.2301
   46MOL  Cl10314593   4.827   6.428   0.891 -0.0808 -0.2276 -0.1731
   46MOL   C10414594   4.874   6.352   1.151 -0.0786 -0.4377  0.4758
   46MOL   C10514595   4.926   6.365   1.278 -0.2276 -0.3452  0.0921
   46MOL   C10614596   5.176   6.502   1.453  0.5123  0.2005 -0.9656
   46MOL   H10714597   4.968   6.441   1.508  1.0803 -0.0897  2.4257
   46MOL   H10814598   5.014   6.704   1.249  0.5579 -0.3809 -1.1440
   46MOL   H10914599   4.944   6.658   1.009 -0.6551 -0.2633 -0.8544
   46MOL   H11014600   4.842   6.252   1.124  2.1556 -1.0199 -0.1771
   46MOL   H11114601   4.920   6.283   1.347 -0.1561 -1.1414 -0.8328
   46MOL   H11214602   5.204   6.428   1.379  0.0808  0.1838 -1.1147
   46MOL   H11314603   5.237   6.586   1.420  2.0026  1.4219  4.2853
   46MOL   C11414604   5.231   6.450   1.589 -0.3101 -0.3741  0.4128
   46MOL   C11514605   5.188   6.312   1.612  0.4450 -0.2605  0.0330
   46MOL   C11614606   5.212   6.200   1.523  0.7214 -0.1999 -0.1245
   46MOL   C11714607   5.148   6.075   1.542 -0.5325 -0.0624  0.3603
   46MOL   C11814608   5.073   6.053   1.653 -0.0389 -0.4128  0.0920
   46MOL  Cl11914609   5.000   5.904   1.675  0.0291  0.1615 -0.5279
   46MOL   C12014610   5.054   6.159   1.746 -0.2235  0.5442  0.2941
   46MOL   C12114611   5.103   6.288   1.717 -0.0463 -0.1500 -0.3506
   46MOL   C12214612   5.387   6.466   1.584 -0.4102 -0.0940 -0.8046
   46MOL   H12314613   5.204   6.502   1.680  0.8316  2.2617 -0.7025
   46MOL   H12414614   5.268   6.214   1.431  0.6859  2.6086  0.2293
   46MOL   H12514615   5.147   6.007   1.458 -0.4703  1.8826 -1.2545
   46MOL   H12614616   4.980   6.139   1.822  0.1743 -2.0099  0.0634
   46MOL   H12714617   5.075   6.368   1.784 -0.1644 -0.8122  0.3977
   46MOL   H12814618   5.430   6.442   1.487 -1.6108  0.2306 -1.4305
   46MOL   H12914619   5.401   6.574   1.580 -4.4643  0.4929 -1.3138
   46MOL   C13014620   5.458   6.394   1.703 -0.2535  0.0651  0.6744
   46MOL   C13114621   5.493   6.252   1.661 -0.1244 -0.7616  0.5332
   46MOL   C13214622   5.588   6.226   1.558  0.4581 -0.6917  0.3529
   46MOL   C13314623   5.616   6.096   1.522 -0.2480 -0.0575 -0.8474
   46MOL   C13414624   5.561   5.987   1.595  0.4405  0.1458  0.2052
   46MOL  Cl13514625   5.615   5.832   1.556  0.2638 -0.0073 -0.2498
   46MOL   C13614626   5.467   6.011   1.699  0.0508  0.0123 -0.4517
   46MOL   C13714627   5.430   6.144   1.732  0.3604 -0.3399  0.5073
   46MOL   C13814628   5.590   6.473   1.743  0.5857  0.2970  0.3940
   46MOL   H13914629   5.384   6.389   1.783 -1.1934 -1.5209 -0.2639
   46MOL   H14014630   5.649   6.297   1.503  1.3236 -1.4473  0.3090
   46MOL   H14114631   5.685   6.082   1.440  1.9697 -2.2366  1.2772
   46MOL   H14214632   5.433   5.924   1.752 -0.7198  1.3323  1.2551
   46MOL   H14314633   5.366   6.160   1.817  2.2842  0.5803  1.8263
   46MOL   H14414634   5.667   6.445   1.671 -1.4889 -0.5709 -1.5518
   46MOL   H14514635   5.560   6.577   1.734 -0.5803  0.1176  2.0040
   46MOL   C14614636   5.649   6.441   1.886 -0.0440 -0.1459  0.0488
   46MOL   C14714637   5.695   6.298   1.892 -0.3443  0.0451  0.0315
   46MOL   C14814638   5.807   6.262   1.820  0.4800 -0.0948  0.4353
   46MOL   C14914639   5.856   6.124   1.830  0.2658 -0.1367  0.1134
   46MOL   C15014640   5.785   6.024   1.904 -0.4049  0.3361  0.0505
   46MOL  Cl15114641   5.862   5.863   1.911  0.2643  0.1047  0.0353
   46MOL   C15214642   5.664   6.066   1.971  0.1382 -0.1671  0.1339
   46MOL   C15314643   5.625   6.202   1.970  0.5089  0.0226  0.4290
   46MOL   C15414644   5.764   6.550   1.918 -0.1344  0.1715  0.4381
   46MOL   H15514645   5.573   6.453   1.963  0.1167  0.9550  0.0434
   46MOL   H15614646   5.869   6.331   1.764 -0.4898  0.7019  0.3397
   46MOL   H15714647   5.948   6.094   1.782  0.0961 -0.6882  0.1367
   46MOL   H15814648   5.607   5.999   2.034 -1.2629  0.6712 -0.2226
   46MOL   H15914649   5.535   6.230   2.022  1.1216  1.0385  0.9583
   46MOL   H16014650   5.828   6.566   1.831  1.2308 -1.1597  1.1720
   46MOL   H16114651   5.706   6.642   1.922 -3.0428 -1.6540  4.1938
   46MOL   C16214652   5.840   6.544   2.052 -0.1105  0.0084 -0.3826
   46MOL   C16314653   5.972   6.625   2.056  0.1653  0.3604 -0.1469
   46MOL   C16414654   5.982   6.761   2.000  0.0262 -0.9354  0.8938
   46MOL   C16514655   6.109   6.822   2.000  0.4864  0.1289  0.2558
   46MOL   C16614656   6.221   6.767   2.055 -0.8864  0.0333 -0.3120
   46MOL  Cl16714657   6.378   6.841   2.047  0.2841 -0.0708 -0.5658
   46MOL   C16814658   6.212   6.636   2.105 -0.3923 -0.0298  0.4163
   46MOL   C16914659   6.087   6.573   2.116  0.6521  0.1755  0.1926
   46MOL   C17014660   5.744   6.576   2.170  0.2535 -0.6306  0.7226
   46MOL   H17114661   5.869   6.440   2.068 -1.0305  0.0469  1.7982
   46MOL   H17214662   5.886   6.795   1.965  0.5316  0.9104  1.2533
   46MOL   H17314663   6.120   6.925   1.968 -1.1236  0.3908  0.4988
   46MOL   H17414664   6.293   6.587   2.155 -2.6564 -1.5802  2.6778
   46MOL   H17514665   6.083   6.481   2.171  1.2334 -0.2210 -0.4137
   46MOL   H17614666   5.764   6.680   2.198 -1.5727  0.1462 -0.8059
   46MOL   H17714667   5.637   6.581   2.155 -0.2794 -0.0217  4.3091
   46MOL   C17814668   5.754   6.464   2.279  0.3784 -0.1996  0.3006
   46MOL   C17914669   5.872   6.476   2.372 -0.6803 -0.1599  0.4547
   46MOL   C18014670   5.966   6.369   2.380  0.1606  0.4046  0.2250
   46MOL   C18114671   6.076   6.369   2.465  0.2821 -0.3345  0.0515
   46MOL   C18214672   6.096   6.478   2.554 -0.8242  0.6096 -0.6929
   46MOL  Cl18314673   6.243   6.490   2.653 -0.3593 -0.1407  0.1771
   46MOL   C18414674   6.006   6.584   2.550  0.0683 -0.3439 -0.3422
   46MOL   C18514675   5.888   6.581   2.466  0.2731 -0.4190  0.7973
   46MOL   C18614676   5.619   6.453   2.348 -0.3102  0.6978 -0.2820
   46MOL   H18714677   5.762   6.368   2.229  2.0489 -0.3137  0.7685
   46MOL   H18814678   5.958   6.289   2.308 -0.6844 -1.3021  2.1507
   46MOL   H18914679   6.143   6.284   2.461  1.2247  0.3119  1.5194
   46MOL   H19014680   6.035   6.663   2.618 -0.1973 -1.8861  1.5822
   46MOL   H19114681   5.828   6.670   2.462  0.9642  0.0302  0.1796
   46MOL   H19214682   5.602   6.547   2.399 -1.5023  0.2487  0.1838
   46MOL   H19314683   5.537   6.433   2.278  0.7929  0.9490 -1.6574
   46MOL   C19414684   5.616   6.340   2.456 -0.1226 -0.0147 -0.0368
   46MOL   C19514685   5.503   6.367   2.555 -0.0809 -0.0768 -0.8349
   46MOL   C19614686   5.527   6.372   2.697 -0.1172 -0.3862  0.2021
   46MOL   C19714687   5.418   6.369   2.784 -0.4760  0.3332  0.2551
   46MOL   C19814688   5.293   6.392   2.732 -0.5560 -0.3416  1.0863
   46MOL  Cl19914689   5.166   6.411   2.841  0.0795  0.2593 -0.0420
   46MOL   C20014690   5.270   6.394   2.591 -0.1958 -0.4911 -0.2206
   46MOL   C20114691   5.374   6.376   2.504 -0.4815 -0.0923 -0.6575
   46MOL   C20214692   5.610   6.197   2.387 -0.1739 -0.5612  0.1070
   46MOL   H20314693   5.710   6.347   2.512  0.2200 -1.0386 -0.4732
   46MOL   H20414694   5.626   6.338   2.724 -0.3113 -0.6291  0.5945
   46MOL   H20514695   5.429   6.366   2.891 -2.0273  1.3728  0.4513
   46MOL   H20614696   5.168   6.422   2.567 -0.2196 -0.3808  0.0095
   46MOL   H20714697   5.354   6.364   2.398 -2.0304 -0.0513 -0.3809
   46MOL   H20814698   5.508   6.194   2.350  0.7657  0.8971 -2.7483
   46MOL   H20914699   5.681   6.187   2.305 -2.1498  1.2358 -1.8649
   46MOL   C21014700   5.636   6.081   2.482  0.7913  0.2244 -0.4906
   46MOL   C21114701   5.593   5.950   2.425  0.0840 -0.6315  0.2223
   46MOL   C21214702   5.500   5.869   2.503 -0.2172  0.3132  0.8077
   46MOL   C21314703   5.472   5.738   2.458 -0.4190 -0.1067  0.4676
   46MOL   C21414704   5.526   5.699   2.333  0.0244 -0.6389 -0.0803
   46MOL  Cl21514705   5.489   5.534   2.285  0.0367  0.2292  0.2684
   46MOL   C21614706   5.617   5.776   2.257 -0.2626 -0.2721 -0.6329
   46MOL   C21714707   5.656   5.901   2.307  0.2222  0.9994  0.7632
   46MOL   C21814708   5.791   6.073   2.513 -0.2730  0.0353  0.6365
   46MOL   H21914709   5.583   6.103   2.575  0.9143 -3.1037  0.4026
   46MOL   H22014710   5.442   5.906   2.587  1.5920 -0.1929  2.3125
   46MOL   H22114711   5.418   5.676   2.528  0.8196  1.8355  3.2626
   46MOL   H22214712   5.669   5.731   2.174 -0.2255 -0.0471 -0.7307
   46MOL   H22314713   5.725   5.965   2.254 -2.5123  3.7066  0.2855
   46MOL   H22414714   5.844   6.040   2.424 -0.1745 -0.6290  0.9442
   46MOL   H22514715   5.833   6.173   2.530  1.8189 -0.5266 -0.9608
   46MOL   C22614716   5.830   5.973   2.621  0.0515  0.1565 -0.0954
   46MOL   C22714717   5.979   5.935   2.626 -0.2129 -0.3442 -0.4967
   46MOL   C22814718   6.062   6.029   2.690 -0.1967 -0.9579 -0.6243
   46MOL   C22914719   6.201   6.011   2.697 -0.0641  0.7136 -0.2179
   46MOL   C23014720   6.256   5.896   2.636  0.5207  0.4290  0.1046
   46MOL  Cl23114721   6.428   5.879   2.634  0.0203 -0.5796 -0.0674
   46MOL   C23214722   6.175   5.799   2.571  0.1224  0.2853  0.3922
   46MOL   C23314723   6.034   5.824   2.559  0.3406 -0.2448 -0.4845
   46MOL   C23414724   5.765   6.002   2.768  0.1045 -0.0593  0.1873
   46MOL   H23514725   5.778   5.881   2.595 -0.2452  0.0959  0.6987
   46MOL   H23614726   6.016   6.121   2.724  1.3073 -0.8503  1.2101
   46MOL   H23714727   6.265   6.080   2.750  1.3745 -0.4552 -0.3893
   46MOL   H23814728   6.227   5.717   2.524 -0.9229 -0.2264  0.1128
   46MOL   H23914729   5.980   5.755   2.495 -2.2927  0.5842  0.7744
   46MOL   H24014730   5.795   6.104   2.792 -3.7315  0.5997  2.6238
   46MOL   H24114731   5.656   5.998   2.769  0.1084  0.0699  1.3446
   46MOL   C24214732   5.806   5.907   2.888  0.0228  0.0005  0.7183
   46MOL   C24314733   5.836   5.991   3.012  0.1958  0.3744  0.6459
   46MOL   C24414734   5.723   6.044   3.084  0.2400 -0.5455 -0.6618
   46MOL   C24514735   5.739   6.147   3.175  0.0465  0.2437 -0.3656
   46MOL   C24614736   5.865   6.188   3.212 -0.5398  0.1023  0.0670
   46MOL  Cl24714737   5.885   6.308   3.332  0.1912 -0.1190  0.1138
   46MOL   C24814738   5.977   6.147   3.137 -0.9593 -0.1919  0.0457
   46MOL   C24914739   5.964   6.049   3.033  0.5120 -0.3843 -0.1101
   46MOL   C25014740   5.710   5.793   2.930  0.2251  0.0775  0.4899
   46MOL   H25114741   5.902   5.863   2.863 -0.4822 -0.3957 -0.5734
   46MOL   H25214742   5.621   6.015   3.061 -0.1175 -0.4163  0.7549
   46MOL   H25314743   5.661   6.195   3.232 -0.6389 -0.8052 -0.4154
   46MOL   H25414744   6.079   6.174   3.163  0.0661 -2.4226 -1.4904
   46MOL   H25514745   6.049   6.007   2.982 -1.0343  0.4417 -3.4631
   46MOL   H25614746   5.760   5.734   3.007 -1.2478 -1.8348  0.0083
   46MOL   H25714747   5.618   5.834   2.971 -1.3734 -2.2874 -0.6072
   46MOL   C25814748   5.666   5.699   2.813  0.0382  0.8422 -0.0123
   46MOL   C25914749   5.783   5.624   2.756  0.2338  0.1422 -0.0026
   46MOL   C26014750   5.899   5.592   2.829 -0.0495 -0.4625  0.3017
   46MOL   C26114751   6.010   5.514   2.780 -0.0041  0.2359  0.1037
   46MOL   C26214752   6.010   5.478   2.644  0.3101 -0.7071  0.2528
   46MOL  Cl26314753   6.142   5.390   2.564 -0.0352  0.0021 -0.0639
   46MOL   C26414754   5.896   5.519   2.567 -0.5869 -0.5644 -1.0735
   46MOL   C26514755   5.785   5.595   2.617 -0.7542  1.0591 -0.0348
   46MOL   C26614756   5.554   5.615   2.844 -0.0933  0.3884  0.2130
   46MOL   H26714757   5.639   5.777   2.742 -0.3175  0.0095 -0.8019
   46MOL   H26814758   5.916   5.626   2.930  0.2800  1.2515 -0.3170
   46MOL   H26914759   6.094   5.497   2.845  0.2529  1.5026  0.1251
   46MOL   H27014760   5.900   5.495   2.462 -1.6947  0.5332 -1.3811
   46MOL   H27114761   5.708   5.624   2.548  0.0494  0.7602 -1.0699
   46MOL   H27214762   5.475   5.671   2.896 -0.1417  1.1816 -0.6983
   46MOL   H27314763   5.513   5.583   2.748 -0.4324  1.1895  0.0844
   46MOL   C27414764   5.576   5.480   2.911  0.5791  0.2192 -0.4750
   46MOL   C27514765   5.627   5.501   3.057 -0.4172  0.3399 -0.6108
   46MOL   C27614766   5.753   5.445   3.098 -0.1942 -0.0405  0.2288
   46MOL   C27714767   5.802   5.469   3.227 -0.0225  0.2434  0.0147
   46MOL   C27814768   5.735   5.552   3.315 -0.1970 -0.6330 -0.0283
   46MOL  Cl27914769   5.794   5.581   3.472  0.0284  0.2144 -0.0472
   46MOL   C28014770   5.602   5.593   3.287  0.2079 -0.1421  0.3660
   46MOL   C28114771   5.553   5.573   3.158  0.5484  0.5473 -0.0571
   46MOL   C28214772   5.446   5.395   2.913 -0.5831  0.5603 -0.1227
   46MOL   H28314773   5.648   5.421   2.854 -0.5055 -0.1420 -1.5126
   46MOL   H28414774   5.808   5.382   3.030 -1.2512  1.5713 -2.1735
   46MOL   H28514775   5.900   5.428   3.246  0.2519  0.5602 -0.7062
   46MOL   H28614776   5.539   5.646   3.358  0.3519  0.7774 -0.1901
   46MOL   H28714777   5.455   5.610   3.132  0.3717 -0.0182 -0.2168
   46MOL   H28814778   5.463   5.308   2.977  1.5794  0.0608 -1.3070
   46MOL   H28914779   5.372   5.457   2.964  0.9886  0.8515  1.8296
   46MOL   C29014780   5.394   5.345   2.777  0.0799  0.6162 -0.1182
   46MOL   C29114781   5.507   5.287   2.692  0.9419  0.0241  0.1785
   46MOL   C29214782   5.576   5.181   2.743  0.0625  0.5265  0.2412
   46MOL   C29314783   5.686   5.125   2.672 -0.1289 -0.3039  0.4365
   46MOL   C29414784   5.717   5.181   2.541  0.7074 -0.4351  0.5917
   46MOL  Cl29514785   5.857   5.127   2.459  0.1480 -0.2472 -0.2272
   46MOL   C29614786   5.632   5.283   2.483 -0.4703  0.6883 -0.2735
   46MOL   C29714787   5.528   5.336   2.562  0.6358 -0.5645  0.2476
   46MOL   C29814788   5.282   5.245   2.811  0.2016 -0.1188 -0.1665
   46MOL   H29914789   5.348   5.430   2.726  0.2383  1.4526  1.1149
   46MOL   H30014790   5.542   5.149   2.841  0.5756  1.0830  0.6021
   46MOL   H30114791   5.736   5.037   2.710 -2.7246  0.7365  6.8276
   46MOL   H30214792   5.654   5.326   2.387  0.8117 -0.9210 -0.7105
   46MOL   H30314793   5.477   5.425   2.529  3.3028  1.7874  2.2500
   46MOL   H30414794   5.322   5.162   2.869 -0.7948 -0.9343 -0.6377
   46MOL   H30514795   5.214   5.296   2.880 -0.0522 -0.8665  0.1415
   46MOL   C30614796   5.219   5.182   2.688 -0.6351 -0.3559  0.2070
   46MOL   C30714797   5.124   5.068   2.712  0.8654  0.0339 -0.3467
   46MOL   C30814798   5.100   4.970   2.612  0.0381 -0.3144 -0.2095
   46MOL   C30914799   5.009   4.868   2.635 -0.4296  0.6431  0.0525
   46MOL   C31014800   4.951   4.853   2.759 -0.2668  0.5481  0.1552
   46MOL  Cl31114801   4.833   4.723   2.777 -0.4732 -0.3497  0.2107
   46MOL   C31214802   4.973   4.940   2.864 -0.0532  0.0414  0.2118
   46MOL   C31314803   5.053   5.051   2.837  0.1715 -1.1088  0.8513
   46MOL   C31414804   5.152   5.288   2.585  0.1599  0.5833 -1.0023
   46MOL   H31514805   5.303   5.134   2.639 -0.1873 -1.3198  1.8479
   46MOL   H31614806   5.150   4.965   2.516 -0.6058  1.1122 -0.6413
   46MOL   H31714807   5.002   4.793   2.557  0.1780  1.0162 -0.3641
   46MOL   H31814808   4.922   4.923   2.957  0.1109  0.5009  0.3818
   46MOL   H31914809   5.058   5.122   2.918 -2.2819 -0.8448  0.8154
   46MOL   H32014810   5.108   5.232   2.502 -0.7440  2.2103 -1.6403
   46MOL   H32114811   5.071   5.348   2.624 -0.0693 -0.2917 -0.1244
   46MOL   H32214812   5.241   5.345   2.555 -1.1782  2.8021 -0.8593
   47MOL     C114813   4.089   2.282   6.816  0.4949 -0.1933 -0.1735
   47MOL     C214814   4.038   2.310   6.676  0.1019 -0.1104  0.4151
   47MOL     C314815   4.081   2.427   6.616 -0.2480  0.7272 -0.0960
   47MOL     C414816   4.020   2.478   6.499  0.0906  0.7537 -0.7817
   47MOL     C514817   3.909   2.404   6.445  0.1741 -0.1636  0.0335
   47MOL    Cl614818   3.818   2.483   6.325 -0.0695  0.3111 -0.1679
   47MOL     C714819   3.879   2.279   6.494  0.6702 -0.0817 -0.5963
   47MOL     C814820   3.944   2.235   6.611  1.0911  0.3138 -0.6849
   47MOL     C914821   3.994   2.360   6.925 -0.0681 -0.5987 -0.9549
   47MOL    H1014822   4.187   2.328   6.827  0.3671 -0.4452  2.3724
   47MOL    H1114823   4.158   2.486   6.664 -2.3363  2.5158  1.0926
   47MOL    H1214824   4.034   2.573   6.450 -2.1053  2.4053  1.6488
   47MOL    H1314825   3.793   2.222   6.461  0.0762  0.4322  0.0582
   47MOL    H1414826   3.916   2.139   6.652  1.0490  0.5477 -0.1549
   47MOL    H1514827   3.982   2.462   6.889 -0.0010  0.7472  2.6580
   47MOL    H1614828   3.895   2.314   6.932 -0.8554  1.3217  1.0588
   47MOL    H1714829   4.097   2.177   6.841 -1.5522 -0.5403 -0.8477
   47MOL    C1814830   4.058   2.363   7.067 -0.1436 -0.0211 -0.9733
   47MOL    C1914831   4.202   2.415   7.056 -0.6733 -0.3354  0.1860
   47MOL    C2014832   4.306   2.321   7.052  0.1917 -0.0170  0.0208
   47MOL    C2114833   4.432   2.358   7.025  0.0540  0.0066 -0.1077
   47MOL    C2214834   4.463   2.496   6.998  0.2306 -0.1123 -0.5486
   47MOL   Cl2314835   4.628   2.540   6.965 -0.3684 -0.2166 -0.3161
   47MOL    C2414836   4.357   2.590   6.996  0.2380 -0.1271  0.1277
   47MOL    C2514837   4.225   2.553   7.032  0.4360  0.5776 -0.1891
   47MOL    C2614838   3.965   2.450   7.169 -0.4782  0.3715 -0.4214
   47MOL    H2714839   4.060   2.260   7.104  0.3069  0.8850  1.6161
   47MOL    H2814840   4.275   2.218   7.065  1.8413 -0.3337  1.8564
   47MOL    H2914841   4.515   2.293   7.046  1.9682  2.0179 -1.3385
   47MOL    H3014842   4.378   2.693   6.973 -1.1154  0.1336  0.0436
   47MOL    H3114843   4.142   2.622   7.025  0.2208  0.1043 -2.8821
   47MOL    H3214844   3.982   2.557   7.156  1.1137  0.1129 -0.4958
   47MOL    H3314845   3.864   2.423   7.136 -0.8642 -0.0335  1.0652
   47MOL    C3414846   3.967   2.402   7.315 -0.1278 -0.4224  0.0384
   47MOL    C3514847   4.059   2.491   7.396 -0.3521  0.3387 -1.0085
   47MOL    C3614848   4.018   2.621   7.439  0.0545  0.3665 -0.5618
   47MOL    C3714849   4.107   2.711   7.499  0.2732 -0.4745 -0.3904
   47MOL    C3814850   4.236   2.665   7.530 -0.3525  0.5413 -0.2774
   47MOL   Cl3914851   4.342   2.762   7.626  0.0266  0.0120  0.2569
   47MOL    C4014852   4.276   2.532   7.499  0.3844  0.0998 -0.4689
   47MOL    C4114853   4.182   2.446   7.439 -0.2938  0.1531 -0.6375
   47MOL    C4214854   3.820   2.395   7.371  0.7945  0.4014 -0.5730
   47MOL    H4314855   4.007   2.303   7.335 -0.8256 -0.4668  1.2546
   47MOL    H4414856   3.920   2.660   7.416 -0.4883 -2.3163 -3.2131
   47MOL    H4514857   4.074   2.808   7.533 -2.7549 -1.3770 -0.5936
   47MOL    H4614858   4.376   2.497   7.522  0.3922  0.5035  0.1128
   47MOL    H4714859   4.212   2.347   7.410 -0.0803  0.3962 -1.2746
   47MOL    H4814860   3.825   2.412   7.478 -0.5602  0.7220 -0.5534
   47MOL    H4914861   3.769   2.482   7.329 -2.7084 -0.5174  1.5779
   47MOL    C5014862   3.727   2.269   7.348 -0.2800 -0.3175 -0.2607
   47MOL    C5114863   3.804   2.140   7.395  0.3163  0.0147 -0.3200
   47MOL    C5214864   3.854   2.133   7.527  0.0042 -0.3365 -0.2173
   47MOL    C5314865   3.933   2.022   7.570 -0.2270  0.4694  0.1761
   47MOL    C5414866   3.954   1.913   7.479  0.4480  0.0688  0.1966
   47MOL   Cl5514867   4.052   1.783   7.520 -0.0843  0.4593 -0.3490
   47MOL    C5614868   3.896   1.922   7.349 -0.6108  0.0632 -0.5730
   47MOL    C5714869   3.817   2.026   7.307 -0.2032  0.4048 -0.2237
   47MOL    C5814870   3.597   2.296   7.415  0.0431  0.0375 -0.4661
   47MOL    H5914871   3.710   2.260   7.241  0.5397 -2.8284 -0.2213
   47MOL    H6014872   3.850   2.223   7.586  0.5467  0.7557 -1.8354
   47MOL    H6114873   3.985   2.031   7.664 -0.9845  0.1459  0.6305
   47MOL    H6214874   3.917   1.837   7.286  1.3296  0.4430 -0.4691
   47MOL    H6314875   3.787   2.027   7.203 -1.8323  0.5947  0.2407
   47MOL    H6414876   3.609   2.313   7.522 -0.9889 -1.2223 -0.1325
   47MOL    H6514877   3.549   2.385   7.376  2.1607  0.6350 -1.8257
   47MOL    C6614878   3.504   2.170   7.411 -0.3900 -0.5591 -0.6726
   47MOL    C6714879   3.484   2.110   7.548  0.3390  0.0370  0.0357
   47MOL    C6814880   3.515   1.972   7.573  0.3406 -0.2589  0.2957
   47MOL    C6914881   3.475   1.914   7.695 -0.1809 -0.3005  0.6650
   47MOL    C7014882   3.422   1.993   7.799  0.2366 -0.3538  0.1546
   47MOL   Cl7114883   3.381   1.926   7.958 -0.0777  0.2983 -0.2318
   47MOL    C7214884   3.405   2.136   7.777 -0.1366 -0.0561  0.2903
   47MOL    C7314885   3.431   2.188   7.649 -0.4014 -0.7742  0.2379
   47MOL    C7414886   3.362   2.198   7.346 -0.2419  0.7315 -0.0914
   47MOL    H7514887   3.547   2.094   7.346 -0.0523  0.1276 -1.2662
   47MOL    H7614888   3.573   1.913   7.503  0.9247  0.5868  0.0665
   47MOL    H7714889   3.483   1.809   7.718  0.7299 -0.5267 -0.6104
   47MOL    H7814890   3.352   2.193   7.851 -1.3095 -1.1172  0.2872
   47MOL    H7914891   3.406   2.291   7.631  1.1139 -0.2777  0.8647
   47MOL    H8014892   3.306   2.106   7.357  0.8898  0.2419  2.0249
   47MOL    H8114893   3.321   2.286   7.396 -0.0019  1.2866 -0.8712
   47MOL    C8214894   3.359   2.238   7.195 -0.0986  0.7171  0.1586
   47MOL    C8314895   3.453   2.158   7.104 -0.2820 -0.3180 -0.2035
   47MOL    C8414896   3.549   2.220   7.017  0.3525  0.0369  0.1853
   47MOL    C8514897   3.629   2.147   6.934  0.6800 -0.4244 -0.1834
   47MOL    C8614898   3.627   2.006   6.946 -0.8235  0.2688  0.1240
   47MOL   Cl8714899   3.716   1.907   6.835 -0.1034  0.0048  0.0513
   47MOL    C8814900   3.556   1.945   7.045  0.5051 -0.9203 -1.0801
   47MOL    C8914901   3.462   2.017   7.119 -0.4236 -1.1162 -0.2432
   47MOL    C9014902   3.219   2.240   7.136  0.3369  0.0488 -0.0582
   47MOL    H9114903   3.403   2.338   7.188 -0.9163  1.1069  0.4160
   47MOL    H9214904   3.565   2.326   7.011 -2.0380  0.3955 -0.0306
   47MOL    H9314905   3.693   2.195   6.861  1.4743 -1.3649 -0.1198
   47MOL    H9414906   3.578   1.843   7.071  1.5386 -0.6809 -0.9905
   47MOL    H9514907   3.392   1.960   7.178 -0.7402 -2.5856 -1.9837
   47MOL    H9614908   3.220   2.250   7.028  0.4640  0.6165 -0.0103
   47MOL    H9714909   3.180   2.139   7.151 -0.5258  0.2720 -0.7993
   47MOL    C9814910   3.125   2.344   7.198  0.2817  0.2340 -0.0498
   47MOL    C9914911   3.165   2.480   7.146  0.0342  0.5922 -0.1991
   47MOL   C10014912   3.273   2.543   7.207  0.1183 -0.0727  0.0077
   47MOL   C10114913   3.309   2.677   7.173 -0.3287 -0.0780  0.6118
   47MOL   C10214914   3.241   2.737   7.065  0.0184 -0.0621 -0.2731
   47MOL  Cl10314915   3.296   2.885   6.994  0.2229  0.8004 -0.0784
   47MOL   C10414916   3.125   2.679   7.011  0.0320  0.0345 -0.1225
   47MOL   C10514917   3.089   2.546   7.049  0.3546 -0.2032  0.5234
   47MOL   C10614918   2.978   2.303   7.177 -0.0349 -0.1030 -0.0964
   47MOL   H10714919   3.145   2.340   7.305  0.2094  0.3747 -0.0312
   47MOL   H10814920   3.325   2.490   7.285  0.3363 -1.4353 -1.0487
   47MOL   H10914921   3.392   2.728   7.221 -0.4716  1.8379 -1.1221
   47MOL   H11014922   3.073   2.737   6.936  0.0663  1.9162  1.2789
   47MOL   H11114923   3.001   2.501   7.006 -0.3847 -0.5754  2.3801
   47MOL   H11214924   2.918   2.392   7.194  0.5345  0.6199 -1.7642
   47MOL   H11314925   2.949   2.269   7.077 -0.7545 -1.1334  0.4569
   47MOL   C11414926   2.929   2.195   7.282  0.5032  0.5119  0.3954
   47MOL   C11514927   2.972   2.213   7.426  0.2070 -0.0233  0.6646
   47MOL   C11614928   2.934   2.326   7.498  0.3778  0.1307 -0.0119
   47MOL   C11714929   2.965   2.352   7.624 -0.6135 -0.5804 -0.6518
   47MOL   C11814930   3.041   2.254   7.699 -0.4482  0.6798  0.5878
   47MOL  Cl11914931   3.075   2.287   7.864 -0.2574  0.0567 -0.3794
   47MOL   C12014932   3.072   2.134   7.636 -0.2353  0.7210 -0.5983
   47MOL   C12114933   3.045   2.115   7.500  0.2238  0.6882  0.2601
   47MOL   C12214934   2.777   2.177   7.283  0.3609 -0.5752  0.3567
   47MOL   H12314935   2.980   2.101   7.260 -0.0385  0.0051  1.2569
   47MOL   H12414936   2.880   2.397   7.437  0.5359  0.6983  0.4949
   47MOL   H12514937   2.926   2.438   7.678  0.7315 -0.9784  0.9878
   47MOL   H12614938   3.121   2.054   7.690  0.5701  0.2671 -1.9867
   47MOL   H12714939   3.075   2.026   7.447  1.6226  0.1888  1.8264
   47MOL   H12814940   2.735   2.277   7.290  0.8982 -0.2097 -1.5185
   47MOL   H12914941   2.747   2.148   7.182 -1.6085  0.6101  0.5714
   47MOL   C13014942   2.703   2.077   7.381 -0.4069  0.5632  0.4459
   47MOL   C13114943   2.570   2.135   7.435  0.5069  0.6163 -0.2536
   47MOL   C13214944   2.465   2.180   7.350 -0.0568 -0.1929 -0.4091
   47MOL   C13314945   2.342   2.229   7.393  0.4538 -0.6650 -0.2488
   47MOL   C13414946   2.324   2.241   7.533  0.1101 -0.8527  0.9348
   47MOL  Cl13514947   2.166   2.304   7.582 -0.1095 -0.3257 -0.1280
   47MOL   C13614948   2.426   2.200   7.619  0.5014 -0.1320 -0.2851
   47MOL   C13714949   2.551   2.152   7.573 -0.2749 -0.0683  0.9099
   47MOL   C13814950   2.697   1.935   7.307 -0.3123 -0.1236  0.0345
   47MOL   H13914951   2.764   2.065   7.471  1.0610 -1.2610 -0.7509
   47MOL   H14014952   2.485   2.164   7.245  2.4371  0.9785 -0.1398
   47MOL   H14114953   2.266   2.264   7.325  0.1413 -0.4185  0.2208
   47MOL   H14214954   2.413   2.210   7.725 -0.1454 -3.4285  0.0086
   47MOL   H14314955   2.627   2.114   7.639  0.9842 -0.3013 -0.6632
   47MOL   H14414956   2.605   1.924   7.249 -1.4287  0.1984  1.7016
   47MOL   H14514957   2.777   1.930   7.234  0.3647 -3.2502  0.9284
   47MOL   C14614958   2.726   1.808   7.396 -0.6668 -0.3327  0.4497
   47MOL   C14714959   2.632   1.805   7.522 -0.5265  0.6390  0.1894
   47MOL   C14814960   2.693   1.794   7.650 -0.4112  0.3543 -0.4368
   47MOL   C14914961   2.609   1.758   7.751  0.2761  0.1904 -0.0776
   47MOL   C15014962   2.467   1.769   7.745  0.1103  0.4678  0.0778
   47MOL  Cl15114963   2.363   1.742   7.881  0.0861  0.3650 -0.0378
   47MOL   C15214964   2.408   1.788   7.622  0.2114  0.4027  0.0860
   47MOL   C15314965   2.493   1.805   7.509 -0.4253 -0.6851  0.2062
   47MOL   C15414966   2.700   1.679   7.314 -0.3481  0.4740 -0.1212
   47MOL   H15514967   2.833   1.798   7.415  0.1217  1.3277 -2.6969
   47MOL   H15614968   2.800   1.787   7.660 -0.4024  0.9727  0.0008
   47MOL   H15714969   2.657   1.740   7.846  0.8712  2.4729  0.0830
   47MOL   H15814970   2.301   1.781   7.613  0.2170 -2.5425  1.5298
   47MOL   H15914971   2.444   1.811   7.413  0.2595  1.6336 -0.0402
   47MOL   H16014972   2.719   1.598   7.385  1.2610 -1.7228 -2.9817
   47MOL   H16114973   2.595   1.660   7.290 -0.1258 -0.2011 -0.5860
   47MOL   C16214974   2.783   1.648   7.191 -0.3737  0.2254  0.3118
   47MOL   C16314975   2.931   1.667   7.212 -0.7377  0.0621 -0.0394
   47MOL   C16414976   2.995   1.600   7.318 -0.2310 -0.3605 -0.1605
   47MOL   C16514977   3.131   1.600   7.331  0.7112  0.5437 -0.1101
   47MOL   C16614978   3.214   1.674   7.248  0.5070 -0.7316  0.4694
   47MOL  Cl16714979   3.384   1.687   7.271  0.1584 -0.3401  0.3655
   47MOL   C16814980   3.156   1.741   7.137  0.9240  0.2608  0.3904
   47MOL   C16914981   3.014   1.733   7.120  0.0141  0.2055 -0.6638
   47MOL   C17014982   2.755   1.509   7.131  0.2921 -0.5916  0.4982
   47MOL   H17114983   2.754   1.712   7.108 -0.4496 -1.0332 -0.6360
   47MOL   H17214984   2.943   1.541   7.393  2.2021 -1.4062  0.7801
   47MOL   H17314985   3.178   1.568   7.422  0.2278 -0.1680 -0.1117
   47MOL   H17414986   3.217   1.782   7.058  0.2927 -0.9488 -0.7510
   47MOL   H17514987   2.968   1.770   7.029  2.2526 -0.2564 -2.0279
   47MOL   H17614988   2.841   1.443   7.119  0.7782  0.3953 -1.8008
   47MOL   H17714989   2.688   1.467   7.206 -1.1533 -0.6510 -0.8045
   47MOL   C17814990   2.676   1.498   6.996 -0.4051 -0.3495 -0.5364
   47MOL   C17914991   2.774   1.527   6.885 -0.3309 -0.4742 -0.2506
   47MOL   C18014992   2.779   1.660   6.839  0.2038  0.1175  0.0343
   47MOL   C18114993   2.860   1.693   6.733  0.7039 -0.7092  0.8582
   47MOL   C18214994   2.944   1.591   6.681 -0.1014  0.1512  0.2165
   47MOL  Cl18314995   3.047   1.628   6.540  0.1405 -0.0373 -0.0459
   47MOL   C18414996   2.945   1.458   6.731 -0.0391 -0.9246 -0.0106
   47MOL   C18514997   2.863   1.431   6.839 -0.9340  0.3732 -0.4506
   47MOL   C18614998   2.603   1.365   6.968  0.1583 -0.0306 -0.4777
   47MOL   H18714999   2.604   1.580   7.000  2.5332  2.3210 -1.3628
   47MOL   H18815000   2.718   1.735   6.888 -2.0158 -0.2617 -2.1130
   47MOL   H18915001   2.860   1.794   6.695 -1.7037 -0.3625  1.6856
   47MOL   H19015002   3.011   1.385   6.687  3.2003  2.2829 -0.7021
   47MOL   H19115003   2.849   1.330   6.876 -2.1423 -0.3294 -2.7776
   47MOL   H19215004   2.611   1.329   6.865  0.2198 -1.9748  0.1802
   47MOL   H19315005   2.653   1.288   7.026 -2.2780 -0.7122  0.8069
   47MOL   C19415006   2.451   1.371   7.012 -0.8398  0.2821 -0.2320
   47MOL   C19515007   2.375   1.459   6.916 -0.4024  0.0956 -0.2795
   47MOL   C19615008   2.340   1.591   6.946 -0.3866  0.4576  0.0720
   47MOL   C19715009   2.261   1.665   6.860 -0.0702  0.1292 -0.0613
   47MOL   C19815010   2.207   1.608   6.747  0.8744 -0.0303  1.2883
   47MOL  Cl19915011   2.115   1.707   6.633  0.1622  0.2970 -0.1019
   47MOL   C20015012   2.244   1.478   6.714  0.3581 -0.4553 -0.6089
   47MOL   C20115013   2.331   1.409   6.796  0.5294  0.0305 -0.1329
   47MOL   C20215014   2.386   1.231   7.033 -0.2510 -0.2335  0.6309
   47MOL   H20315015   2.444   1.415   7.112  1.2467  0.6868 -0.2544
   47MOL   H20415016   2.370   1.644   7.035  1.7315  2.5149 -1.7942
   47MOL   H20515017   2.233   1.765   6.891  0.4528  0.5088 -0.7891
   47MOL   H20615018   2.209   1.438   6.620  0.5154  1.0235 -1.3058
   47MOL   H20715019   2.369   1.309   6.782  0.1576 -0.4089  1.8893
   47MOL   H20815020   2.281   1.245   7.007  0.2682 -3.2013 -3.5009
   47MOL   H20915021   2.425   1.156   6.964 -1.9631 -1.5633  1.0676
   47MOL   C21015022   2.395   1.188   7.180 -0.4289  0.1694 -0.0832
   47MOL   C21115023   2.278   1.251   7.260  0.0392 -0.9058  0.2630
   47MOL   C21215024   2.147   1.220   7.239  0.1156  0.2773 -0.1505
   47MOL   C21315025   2.042   1.294   7.305  0.0930  1.5312 -0.0196
   47MOL   C21415026   2.075   1.396   7.395 -0.0263  0.0662  0.1448
   47MOL  Cl21515027   1.941   1.486   7.453 -0.0267  0.1250  0.1389
   47MOL   C21615028   2.212   1.428   7.420 -0.4726  0.1997 -0.7379
   47MOL   C21715029   2.315   1.350   7.356 -0.4322  0.1268  0.4417
   47MOL   C21815030   2.408   1.036   7.198 -0.4438 -0.1711  0.5680
   47MOL   H21915031   2.490   1.225   7.219  0.0459 -0.9040 -0.2287
   47MOL   H22015032   2.107   1.150   7.167  1.8023  1.2948 -2.1148
   47MOL   H22115033   1.937   1.282   7.286  0.6120 -0.4709 -1.8431
   47MOL   H22215034   2.230   1.512   7.486 -0.4479  1.2834 -2.1101
   47MOL   H22315035   2.418   1.385   7.359  0.0772 -1.2085 -1.0678
   47MOL   H22415036   2.389   1.017   7.303  1.4018 -0.8346  0.8015
   47MOL   H22515037   2.327   0.979   7.151 -1.3059  0.9780  0.6541
   47MOL   C22615038   2.540   0.955   7.172  0.1746 -0.5957  0.0682
   47MOL   C22715039   2.568   0.932   7.022  0.3404 -0.4428  0.6193
   47MOL   C22815040   2.657   1.006   6.941 -0.6160  0.4390  0.4457
   47MOL   C22915041   2.661   0.983   6.801  0.7983  0.2662  0.0092
   47MOL   C23015042   2.593   0.873   6.746  0.0561 -0.1947  0.2358
   47MOL  Cl23115043   2.594   0.839   6.576  0.3128  0.3813 -0.3197
   47MOL   C23215044   2.515   0.792   6.833 -0.8728  0.5112  0.2096
   47MOL   C23315045   2.496   0.819   6.970  1.0252  0.3620 -0.1238
   47MOL   C23415046   2.651   1.012   7.265 -0.0583 -0.2650 -0.2264
   47MOL   H23515047   2.523   0.856   7.212 -1.6406 -0.7326 -1.0030
   47MOL   H23615048   2.726   1.078   6.983  1.0957  0.0013 -1.5249
   47MOL   H23715049   2.733   1.033   6.739  1.1513  1.4702  1.3667
   47MOL   H23815050   2.460   0.709   6.790  0.8517 -0.3154 -0.4534
   47MOL   H23915051   2.427   0.754   7.023  1.3072 -0.6028 -0.9274
   47MOL   H24015052   2.662   1.115   7.231  1.8716  0.6348  3.0053
   47MOL   H24115053   2.624   1.031   7.369  0.3457  2.6401 -0.5948
   47MOL   C24215054   2.783   0.926   7.264  0.3897 -0.8845 -0.3372
   47MOL   C24315055   2.910   1.011   7.301 -0.0375  0.4862  0.6489
   47MOL   C24415056   2.899   1.121   7.382 -0.3963  0.6854 -0.8713
   47MOL   C24515057   3.014   1.206   7.398  0.2890  0.3228  0.3554
   47MOL   C24615058   3.137   1.173   7.348  0.2513  0.3938 -0.1623
   47MOL  Cl24715059   3.275   1.261   7.396  0.1201  0.1976  0.4949
   47MOL   C24815060   3.148   1.058   7.268 -0.1152  1.0484 -0.6535
   47MOL   C24915061   3.038   0.975   7.250  0.4353 -0.5912  0.8829
   47MOL   C25015062   2.777   0.808   7.361  1.4070  0.3444  0.1531
   47MOL   H25115063   2.777   0.894   7.160  0.4654 -1.1731 -0.2540
   47MOL   H25215064   2.805   1.147   7.429  0.9775  0.7529  1.9916
   47MOL   H25315065   3.006   1.295   7.458 -3.3964  1.0698 -1.1236
   47MOL   H25415066   3.243   1.020   7.234 -1.9993 -2.7593 -1.8411
   47MOL   H25515067   3.042   0.888   7.186  0.4250 -1.0380  1.4849
   47MOL   H25615068   2.871   0.792   7.413  1.7323 -2.2657 -1.1241
   47MOL   H25715069   2.707   0.830   7.441  1.7746 -0.0713  0.5873
   47MOL   C25815070   2.746   0.664   7.293  0.2435 -0.9730 -0.0053
   47MOL   C25915071   2.849   0.621   7.199 -0.2421 -0.1909  0.5738
   47MOL   C26015072   2.987   0.625   7.232 -0.7146  0.2649  0.6838
   47MOL   C26115073   3.079   0.563   7.147 -0.2359  0.3946  0.7521
   47MOL   C26215074   3.041   0.511   7.023  0.2446  0.4912  0.1067
   47MOL  Cl26315075   3.146   0.416   6.929  0.4581  0.1052 -0.1701
   47MOL   C26415076   2.907   0.530   6.979 -0.5295 -0.6783 -0.2673
   47MOL   C26515077   2.809   0.587   7.063 -0.7759  0.2782  0.1280
   47MOL   C26615078   2.710   0.563   7.401  0.2335 -0.0073  0.4937
   47MOL   H26715079   2.661   0.681   7.227  0.1114 -0.1203  0.3616
   47MOL   H26815080   3.021   0.681   7.318  0.1759 -0.5141  0.8546
   47MOL   H26915081   3.181   0.546   7.179 -0.0799  1.6799  0.9726
   47MOL   H27015082   2.875   0.511   6.878 -1.6141  0.0623 -0.0770
   47MOL   H27115083   2.710   0.602   7.024 -0.3079  1.8376 -0.4988
   47MOL   H27215084   2.756   0.468   7.373 -2.1900 -0.9361 -0.5624
   47MOL   H27315085   2.755   0.588   7.497 -0.5356 -0.7073  1.0485
   47MOL   C27415086   2.555   0.547   7.418  0.1463  0.1496 -0.3232
   47MOL   C27515087   2.494   0.508   7.282  0.1671  0.4697 -0.2133
   47MOL   C27615088   2.545   0.402   7.207 -0.3672  0.4754  0.1435
   47MOL   C27715089   2.492   0.355   7.086  0.2863  0.6211  0.5973
   47MOL   C27815090   2.377   0.426   7.038  0.1529  0.6899 -0.6508
   47MOL  Cl27915091   2.325   0.390   6.879 -0.1266  0.2812 -0.5232
   47MOL   C28015092   2.314   0.529   7.113 -0.1936 -0.1586  0.0381
   47MOL   C28115093   2.371   0.570   7.237  0.4985 -0.1806 -0.1083
   47MOL   C28215094   2.511   0.444   7.522  0.2842  0.2297 -0.1815
   47MOL   H28315095   2.514   0.646   7.435 -1.2544 -0.3625 -0.6454
   47MOL   H28415096   2.629   0.340   7.235  0.5260  1.2862 -0.6862
   47MOL   H28515097   2.541   0.271   7.039 -0.1956  1.6701 -1.8532
   47MOL   H28615098   2.225   0.577   7.075  0.1105  1.1310  0.8939
   47MOL   H28715099   2.312   0.645   7.286 -1.5235  0.1875 -3.0257
   47MOL   H28815100   2.467   0.358   7.471  0.0755 -0.4191  1.0654
   47MOL   H28915101   2.601   0.405   7.571  1.1202  0.7058 -1.3194
   47MOL   C29015102   2.406   0.505   7.622 -0.5829 -0.5986 -0.9452
   47MOL   C29115103   2.257   0.502   7.587  0.6278 -0.2224 -0.7836
   47MOL   C29215104   2.192   0.382   7.546  0.4521 -0.7385 -0.1091
   47MOL   C29315105   2.056   0.378   7.515  0.4685  0.1462  0.3200
   47MOL   C29415106   1.978   0.497   7.526 -1.0764 -0.8817 -0.1294
   47MOL  Cl29515107   1.811   0.504   7.486  0.4921  0.0576 -0.2054
   47MOL   C29615108   2.041   0.612   7.570  0.4273  0.5250  0.7281
   47MOL   C29715109   2.174   0.613   7.600 -0.0483  0.7733  0.3063
   47MOL   C29815110   2.430   0.436   7.755  0.0474  0.0523 -0.3096
   47MOL   H29915111   2.430   0.608   7.647 -0.2473 -1.6469  3.5120
   47MOL   H30015112   2.254   0.294   7.549  0.1655 -0.9332  0.2496
   47MOL   H30115113   2.022   0.282   7.479  0.0986  0.3047  0.2421
   47MOL   H30215114   1.973   0.695   7.582  0.2955  0.0984  3.1735
   47MOL   H30315115   2.213   0.708   7.633  0.9356  1.0041 -1.4055
   47MOL   H30415116   2.420   0.329   7.737 -1.1228  0.0749  0.1287
   47MOL   H30515117   2.535   0.454   7.778  0.1571 -0.6525 -0.2301
   47MOL   C30615118   2.344   0.475   7.880 -0.5528  0.2775  0.3579
   47MOL   C30715119   2.213   0.410   7.899 -0.7915  0.0428  0.2589
   47MOL   C30815120   2.116   0.477   7.972  0.6038  0.3928 -0.9992
   47MOL   C30915121   1.991   0.419   7.991  0.2627 -0.8469 -0.9273
   47MOL   C31015122   1.959   0.294   7.940  0.0995  0.3152  0.0866
   47MOL  Cl31115123   1.815   0.207   7.996 -0.3405  0.0868  0.3511
   47MOL   C31215124   2.062   0.218   7.873 -0.6717 -0.3381 -0.3372
   47MOL   C31315125   2.186   0.279   7.851 -0.0570  0.4709 -0.3085
   47MOL   C31415126   2.421   0.483   8.018 -0.2397 -0.3116 -0.1759
   47MOL   H31515127   2.311   0.578   7.866  2.1920  1.4752  2.5122
   47MOL   H31615128   2.135   0.569   8.024  0.9204  0.0630 -0.5331
   47MOL   H31715129   1.919   0.481   8.043  1.5874  0.6691 -0.8625
   47MOL   H31815130   2.045   0.115   7.847  0.9403 -1.5346  2.9985
   47MOL   H31915131   2.271   0.218   7.822 -0.1226 -0.5258  1.5054
   47MOL   H32015132   2.502   0.556   8.009  1.6160 -2.0355  1.8651
   47MOL   H32115133   2.352   0.507   8.098 -1.4569 -0.7197 -1.0973
   47MOL   H32215134   2.479   0.400   8.059  2.0973  2.3593  2.1280
   48MOL     C115135   2.506   6.685   0.226  0.3451 -0.0337  0.3058
   48MOL     C215136   2.656   6.664   0.232  0.3779 -0.2673 -0.3564
   48MOL     C315137   2.734   6.752   0.307  0.1607 -1.1709  0.9073
   48MOL     C415138   2.875   6.737   0.310  0.5878 -0.6318  0.4563
   48MOL     C515139   2.934   6.643   0.227 -0.3250 -0.2913 -0.3325
   48MOL    Cl615140   3.105   6.650   0.220  0.2395  0.0839  0.1606
   48MOL     C715141   2.859   6.552   0.156  0.9889  0.6314 -0.7893
   48MOL     C815142   2.713   6.568   0.153 -0.5142  0.3562 -0.2552
   48MOL     C915143   2.423   6.548   0.225 -0.6952 -0.5653  0.1551
   48MOL    H1015144   2.491   6.740   0.133 -0.1257 -0.6716 -0.0053
   48MOL    H1115145   2.694   6.838   0.358  0.0251 -0.8650  0.2794
   48MOL    H1215146   2.935   6.814   0.357 -0.9770  2.1797 -2.0020
   48MOL    H1315147   2.900   6.479   0.088 -1.0577  0.0490 -1.4366
   48MOL    H1415148   2.657   6.502   0.088 -1.8312  1.3914 -0.1710
   48MOL    H1515149   2.405   6.523   0.121 -0.3943 -4.3510  0.9434
   48MOL    H1615150   2.483   6.468   0.269  3.2200  1.1258 -1.8972
   48MOL    H1715151   2.470   6.755   0.302 -0.3927  0.3610 -0.4024
   48MOL    C1815152   2.296   6.557   0.308 -0.2905  0.7195 -0.0406
   48MOL    C1915153   2.190   6.461   0.274 -0.1339 -0.1218  0.2686
   48MOL    C2015154   2.060   6.506   0.265  0.6826 -0.1321 -0.3099
   48MOL    C2115155   1.958   6.414   0.247  0.3377  0.4135 -0.2823
   48MOL    C2215156   1.997   6.275   0.247  0.1823  0.4567  0.1762
   48MOL   Cl2315157   1.878   6.154   0.239 -0.3613 -0.2924  0.3099
   48MOL    C2415158   2.128   6.230   0.263  0.0510 -0.3270 -0.1719
   48MOL    C2515159   2.228   6.328   0.265 -0.6003  0.2565  0.0217
   48MOL    C2615160   2.321   6.544   0.461 -0.2295 -0.3189  0.0501
   48MOL    H2715161   2.265   6.656   0.276 -0.6462  1.0934  1.4074
   48MOL    H2815162   2.032   6.610   0.277  3.4840  0.5916  0.3341
   48MOL    H2915163   1.851   6.429   0.249  0.6357  3.1853 -2.0366
   48MOL    H3015164   2.153   6.125   0.265  0.7273 -0.2504 -2.8466
   48MOL    H3115165   2.333   6.307   0.279  0.2368  3.9109 -0.3250
   48MOL    H3215166   2.309   6.441   0.494 -2.5396  1.0117  3.5703
   48MOL    H3315167   2.427   6.561   0.476 -0.3410  0.6689 -0.2811
   48MOL    C3415168   2.249   6.636   0.563 -0.1066 -0.4174 -0.6352
   48MOL    C3515169   2.286   6.784   0.540  0.1226  0.7583  0.2744
   48MOL    C3615170   2.394   6.842   0.607  0.2765 -0.0297  0.6992
   48MOL    C3715171   2.437   6.966   0.562 -0.2338 -0.6990 -0.1502
   48MOL    C3815172   2.372   7.038   0.460  0.0420  0.6822  0.9151
   48MOL   Cl3915173   2.440   7.193   0.416  0.4187  0.0476 -0.3518
   48MOL    C4015174   2.259   6.978   0.401  0.1870 -0.0637 -0.1769
   48MOL    C4115175   2.217   6.855   0.446  0.0234 -0.3632  0.4683
   48MOL    C4215176   2.091   6.601   0.586 -0.0772  0.6352 -0.2316
   48MOL    H4315177   2.299   6.609   0.656 -0.5639 -2.6114 -0.9911
   48MOL    H4415178   2.455   6.779   0.670  1.5887 -1.7613 -2.1999
   48MOL    H4515179   2.525   7.013   0.603  0.3808 -1.3357 -0.7221
   48MOL    H4615180   2.210   7.023   0.316  0.0145  1.9426  0.9749
   48MOL    H4715181   2.128   6.812   0.403  1.5032 -0.7372 -2.2792
   48MOL    H4815182   2.040   6.626   0.493  0.8346  0.2023 -0.8512
   48MOL    H4915183   2.078   6.493   0.598 -1.4480  0.7930 -0.1581
   48MOL    C5015184   2.025   6.685   0.691 -0.5357 -0.6601  0.2130
   48MOL    C5115185   1.876   6.663   0.697  0.9434 -0.5663 -0.6712
   48MOL    C5215186   1.793   6.713   0.590  0.1407  0.4850  0.7519
   48MOL    C5315187   1.651   6.697   0.590  0.3480 -0.2596  0.2351
   48MOL    C5415188   1.591   6.641   0.705  0.1716  0.8307  0.4308
   48MOL   Cl5515189   1.418   6.624   0.702  0.3826  0.3642 -0.2009
   48MOL    C5615190   1.665   6.592   0.808 -0.0001 -0.5853  0.3214
   48MOL    C5715191   1.806   6.597   0.804 -0.1049 -0.0916 -0.7898
   48MOL    C5815192   2.094   6.677   0.826 -0.9248  1.1835 -0.8798
   48MOL    H5915193   2.041   6.785   0.652 -0.8410 -1.1049 -1.0748
   48MOL    H6015194   1.830   6.763   0.502 -2.2982  2.2849  0.7062
   48MOL    H6115195   1.586   6.727   0.510  1.6239 -0.5870 -0.9498
   48MOL    H6215196   1.626   6.542   0.895 -0.5212 -0.2885  0.2623
   48MOL    H6315197   1.863   6.572   0.892  0.9236 -2.2058 -2.0126
   48MOL    H6415198   2.086   6.577   0.868 -0.1523  0.9633 -1.2569
   48MOL    H6515199   2.202   6.686   0.822 -0.5380 -1.1982  2.1834
   48MOL    C6615200   2.057   6.784   0.934 -0.3218 -0.4506  0.9918
   48MOL    C6715201   2.138   6.747   1.059  0.2500  0.1784  0.9984
   48MOL    C6815202   2.277   6.768   1.066  0.9215 -0.4418 -0.0758
   48MOL    C6915203   2.352   6.733   1.178  0.2967  0.2081  0.6048
   48MOL    C7015204   2.286   6.664   1.277 -0.0266 -0.0437  0.0695
   48MOL   Cl7115205   2.369   6.622   1.425 -0.3825 -0.0266 -0.1147
   48MOL    C7215206   2.151   6.622   1.262  0.2964  0.2541 -0.2548
   48MOL    C7315207   2.077   6.672   1.154  0.2448  0.5532 -0.0683
   48MOL    C7415208   2.072   6.936   0.894  0.1572 -0.4908 -0.0344
   48MOL    H7515209   1.951   6.775   0.957 -0.4609  0.5867  0.8134
   48MOL    H7615210   2.308   6.825   0.979  2.4297 -1.3754 -0.1657
   48MOL    H7715211   2.451   6.772   1.200  0.9559 -1.7669  1.3248
   48MOL    H7815212   2.108   6.569   1.345  0.0018  1.5628  0.4425
   48MOL    H7915213   1.971   6.650   1.150  0.5273 -0.6433 -1.7781
   48MOL    H8015214   2.065   6.992   0.987 -0.7717 -1.2444  0.3561
   48MOL    H8115215   2.168   6.958   0.847  0.7911  0.2200  1.5555
   48MOL    C8215216   1.945   6.991   0.817 -0.0069 -0.0221 -0.0340
   48MOL    C8315217   1.847   7.062   0.915 -0.4042  0.1584 -0.3608
   48MOL    C8415218   1.719   7.006   0.936 -0.7641  0.0356  0.2115
   48MOL    C8515219   1.627   7.059   1.023  0.0948 -0.2096 -0.6327
   48MOL    C8615220   1.662   7.169   1.096 -0.5031 -0.4502 -0.2251
   48MOL   Cl8715221   1.561   7.219   1.226 -0.0763  0.2489  0.1754
   48MOL    C8815222   1.789   7.234   1.077 -0.2903 -0.0613  0.0579
   48MOL    C8915223   1.880   7.173   0.986  0.0057  0.1189  0.2276
   48MOL    C9015224   1.992   7.083   0.706 -0.2174  0.4483  0.2046
   48MOL    H9115225   1.884   6.917   0.766 -1.4185  0.9130  0.2803
   48MOL    H9215226   1.689   6.924   0.872 -1.2349 -0.0427  0.5309
   48MOL    H9315227   1.536   7.010   1.052  0.4252  0.4959  1.7902
   48MOL    H9415228   1.815   7.327   1.126 -0.0979 -0.3939  0.5936
   48MOL    H9515229   1.976   7.222   0.979  0.8683 -1.7956 -2.4669
   48MOL    H9615230   2.053   7.162   0.750 -1.8374  1.9397 -0.1538
   48MOL    H9715231   2.065   7.033   0.642  1.2933  1.9689  0.6833
   48MOL    C9815232   1.889   7.155   0.621 -0.0568  0.0449 -0.2578
   48MOL    C9915233   1.963   7.231   0.510  0.6889  0.3243 -0.1165
   48MOL   C10015234   1.967   7.173   0.381 -0.6316 -0.8097 -0.1163
   48MOL   C10115235   2.042   7.234   0.280 -0.3118 -0.7986 -0.2640
   48MOL   C10215236   2.122   7.349   0.307 -0.0450  0.1026  0.5198
   48MOL  Cl10315237   2.202   7.423   0.174 -0.3409  0.0789  0.1442
   48MOL   C10415238   2.114   7.407   0.437  0.0715  0.3331  0.4835
   48MOL   C10515239   2.034   7.346   0.534  0.4831 -0.2251 -0.5231
   48MOL   C10615240   1.763   7.077   0.574 -0.0548  0.1241  0.3322
   48MOL   H10715241   1.855   7.230   0.693 -1.5511  0.6470 -1.5651
   48MOL   H10815242   1.903   7.093   0.346  0.4433 -1.7989  0.1339
   48MOL   H10915243   2.045   7.198   0.178  1.4878  0.3442 -0.6355
   48MOL   H11015244   2.171   7.494   0.469 -1.5429  1.2119  1.0641
   48MOL   H11115245   2.023   7.388   0.634  0.1751  1.7213 -1.3423
   48MOL   H11215246   1.779   6.989   0.511  1.1771  2.1830 -2.3380
   48MOL   H11315247   1.714   7.040   0.664  2.6943 -2.7570  0.7538
   48MOL   C11415248   1.652   7.150   0.489 -0.7986 -0.7918 -0.6125
   48MOL   C11515249   1.545   7.052   0.454 -0.3748 -0.6715 -0.1749
   48MOL   C11615250   1.536   7.011   0.321  0.2638  0.6222  0.9921
   48MOL   C11715251   1.437   6.914   0.281 -0.8335  0.4147 -0.2653
   48MOL   C11815252   1.358   6.857   0.380  0.3053 -0.1117  0.2563
   48MOL  Cl11915253   1.258   6.729   0.323 -0.6416 -0.1826  0.2119
   48MOL   C12015254   1.359   6.903   0.512 -0.4496 -0.7555  0.0475
   48MOL   C12115255   1.459   6.997   0.551 -0.6514 -0.0094 -0.5707
   48MOL   C12215256   1.592   7.275   0.575 -0.2041  0.0279  0.2717
   48MOL   H12315257   1.701   7.181   0.396  3.6625  1.1786  2.2646
   48MOL   H12415258   1.596   7.066   0.250 -0.0779  1.5369  1.4010
   48MOL   H12515259   1.437   6.876   0.180  0.4969  1.6725 -0.7590
   48MOL   H12615260   1.292   6.858   0.584 -0.0657  0.4933  1.2190
   48MOL   H12715261   1.481   7.022   0.653  1.8458  1.0190 -1.3384
   48MOL   H12815262   1.483   7.273   0.584 -0.1974 -2.8156  0.0922
   48MOL   H12915263   1.614   7.271   0.681  1.3758 -0.2216 -0.0558
   48MOL   C13015264   1.618   7.411   0.517 -0.4412 -0.0985 -0.1793
   48MOL   C13115265   1.623   7.416   0.367 -0.0794 -0.6561 -0.7047
   48MOL   C13215266   1.502   7.398   0.296  0.6199  0.3358  0.1050
   48MOL   C13315267   1.506   7.401   0.157 -0.5541  0.2922 -0.1216
   48MOL   C13415268   1.626   7.405   0.086 -0.4320 -0.1072 -0.3805
   48MOL  Cl13515269   1.639   7.385   8.358  0.0246 -0.2487 -0.3024
   48MOL   C13615270   1.746   7.425   0.153 -0.1928 -0.2147 -0.4575
   48MOL   C13715271   1.742   7.432   0.291  0.3011 -0.3788  0.4577
   48MOL   C13815272   1.533   7.522   0.578 -0.1903 -0.7142  0.1047
   48MOL   H13915273   1.717   7.430   0.557 -0.5202  0.1091 -0.0816
   48MOL   H14015274   1.416   7.361   0.350 -0.1492  1.8199 -0.0901
   48MOL   H14115275   1.408   7.391   0.112 -1.5120  0.3316  1.8755
   48MOL   H14215276   1.841   7.433   0.101  0.7023  2.2191  1.4711
   48MOL   H14315277   1.834   7.453   0.345  1.4659 -2.5784 -0.6294
   48MOL   H14415278   1.553   7.614   0.523  1.3314 -0.2237  1.4611
   48MOL   H14515279   1.431   7.505   0.545  0.1012  0.4081 -1.4375
   48MOL   C14615280   1.557   7.542   0.734 -0.1928  0.3064 -0.0459
   48MOL   C14715281   1.701   7.586   0.752  0.4827 -0.1722  0.3180
   48MOL   C14815282   1.740   7.711   0.692 -0.2019 -0.2051 -0.2340
   48MOL   C14915283   1.871   7.751   0.715  0.5536 -0.0104  0.2350
   48MOL   C15015284   1.958   7.675   0.792 -0.8523  0.0179  0.3358
   48MOL  Cl15115285   2.120   7.729   0.815  0.0059 -0.6096 -0.6305
   48MOL   C15215286   1.919   7.557   0.851 -0.5578  0.2724  0.4259
   48MOL   C15315287   1.787   7.512   0.833  0.8775 -0.8213  0.4058
   48MOL   C15415288   1.451   7.630   0.803 -0.3743 -0.7075 -0.1028
   48MOL   H15515289   1.534   7.448   0.784 -2.5714 -0.9056 -3.1848
   48MOL   H15615290   1.667   7.763   0.632  0.1187 -2.9749 -3.1495
   48MOL   H15715291   1.907   7.844   0.674 -1.9885  0.7097 -0.4151
   48MOL   H15815292   1.989   7.494   0.906 -0.0771  1.0259  0.6805
   48MOL   H15915293   1.761   7.419   0.882  2.3089 -2.0274 -1.0712
   48MOL   H16015294   1.459   7.614   0.911  2.0841  1.6480  0.1285
   48MOL   H16115295   1.479   7.732   0.778  2.6329 -1.6008 -0.6194
   48MOL   C16215296   1.299   7.614   0.784 -0.7031 -0.4186 -0.2918
   48MOL   C16315297   1.265   7.467   0.770  0.1253  0.0923  0.0372
   48MOL   C16415298   1.204   7.422   0.652 -0.2260 -0.5130  0.0108
   48MOL   C16515299   1.173   7.281   0.634 -0.0961 -0.6517 -0.1843
   48MOL   C16615300   1.192   7.194   0.740  0.4103 -0.3146  0.1167
   48MOL  Cl16715301   1.145   7.028   0.727 -0.3323 -0.1130 -0.0673
   48MOL   C16815302   1.246   7.237   0.860  0.4036  0.2459  0.3755
   48MOL   C16915303   1.290   7.368   0.875  0.3025 -0.0875  0.2227
   48MOL   C17015304   1.213   7.679   0.893 -0.7384 -0.3927 -0.3699
   48MOL   H17115305   1.274   7.656   0.687  0.1182 -1.5718 -1.0104
   48MOL   H17215306   1.174   7.495   0.579  2.2542  0.1825 -0.3450
   48MOL   H17315307   1.121   7.237   0.551 -2.2222 -0.1671  0.8606
   48MOL   H17415308   1.265   7.169   0.942 -0.3350  0.2592  0.5622
   48MOL   H17515309   1.336   7.396   0.969  0.7735 -0.6251  0.1490
   48MOL   H17615310   1.109   7.656   0.867 -0.6804  0.0778 -1.0204
   48MOL   H17715311   1.244   7.625   0.982  0.4358  1.8483  0.6066
   48MOL   C17815312   1.228   7.836   0.903 -0.0744 -0.0730 -0.7882
   48MOL   C17915313   1.189   7.910   0.773 -0.0795  0.5745 -0.5154
   48MOL   C18015314   1.050   7.898   0.733  0.8430  0.3396 -0.0279
   48MOL   C18115315   1.007   7.957   0.617  0.6880 -0.3989  0.2175
   48MOL   C18215316   1.088   8.024   0.534  0.3495  0.0169 -0.8053
   48MOL  Cl18315317   1.033   8.092   0.380 -0.1487  0.0410 -0.2749
   48MOL   C18415318   1.219   8.034   0.569  0.2261  1.6042 -0.4826
   48MOL   C18515319   1.275   7.978   0.690 -0.6533  0.6366 -0.6068
   48MOL   C18615320   1.158   7.885   1.037 -0.1588 -0.0927  0.1805
   48MOL   H18715321   1.335   7.849   0.917  0.2242 -2.1404 -0.9803
   48MOL   H18815322   0.979   7.848   0.797 -0.9545  0.7401 -1.6605
   48MOL   H18915323   0.903   7.940   0.592  0.7898  0.0300 -0.5097
   48MOL   H19015324   1.285   8.083   0.499  0.1350  3.4630  0.7122
   48MOL   H19115325   1.377   7.978   0.726 -1.7560 -0.7416  2.8065
   48MOL   H19215326   1.053   7.913   1.030 -0.4143 -0.6533  1.6950
   48MOL   H19315327   1.161   7.801   1.106 -0.2366  0.5189  0.9362
   48MOL   C19415328   1.245   7.997   1.113 -0.0327 -0.4322  0.9744
   48MOL   C19515329   1.219   8.141   1.065  0.2230 -0.3104  0.2161
   48MOL   C19615330   1.115   8.178   0.978 -0.1696 -0.4037  0.5057
   48MOL   C19715331   1.094   8.314   0.952 -0.4488  0.1617  0.3628
   48MOL   C19815332   1.171   8.408   1.019  0.0652 -0.3581  0.3671
   48MOL  Cl19915333   1.157   0.137   0.990  0.1492  0.2012  0.0521
   48MOL   C20015334   1.273   8.372   1.110 -0.4117  0.2158 -0.0449
   48MOL   C20115335   1.303   8.236   1.128 -0.8415  0.2581 -0.3985
   48MOL   C20215336   1.211   7.987   1.265  0.3244 -0.5034  0.6567
   48MOL   H20315337   1.349   7.975   1.090 -0.7732 -2.3753 -0.6674
   48MOL   H20415338   1.047   8.102   0.941 -0.2058 -0.8987  1.5662
   48MOL   H20515339   1.018   8.351   0.884 -0.5884  0.5487  0.7299
   48MOL   H20615340   1.328   0.004   1.165 -1.1978 -0.3054  1.4757
   48MOL   H20715341   1.381   8.209   1.198 -0.4833 -0.6211 -1.1326
   48MOL   H20815342   1.273   8.062   1.315 -1.5482  2.5427 -1.4054
   48MOL   H20915343   1.108   8.021   1.275  0.7507  0.4577  1.8163
   48MOL   C21015344   1.232   7.855   1.344 -0.8263  0.3887  0.2580
   48MOL   C21115345   1.360   7.777   1.319 -0.3615 -0.1841  0.5881
   48MOL   C21215346   1.486   7.843   1.324 -0.4957 -0.3770  0.0031
   48MOL   C21315347   1.599   7.772   1.286  0.0594  0.9574 -0.0151
   48MOL   C21415348   1.590   7.637   1.239  0.4678  0.9430 -0.9528
   48MOL  Cl21515349   1.724   7.556   1.176 -0.4111  0.0051 -0.0216
   48MOL   C21615350   1.467   7.573   1.243 -0.0237  0.4990  0.4809
   48MOL   C21715351   1.352   7.641   1.288  0.3123  0.4763 -0.3348
   48MOL   C21815352   1.213   7.876   1.491  0.2471 -0.0168  0.2320
   48MOL   H21915353   1.143   7.795   1.327 -1.4644  0.5820  2.6331
   48MOL   H22015354   1.487   7.943   1.366 -0.0311  0.6070 -2.2697
   48MOL   H22115355   1.694   7.823   1.289  1.2244 -1.2280  1.3831
   48MOL   H22215356   1.459   7.467   1.224 -2.5425  0.4325  1.7622
   48MOL   H22315357   1.258   7.589   1.292  1.1531 -1.0474  0.1825
   48MOL   H22415358   1.308   7.916   1.526  0.4875  1.9971 -2.4930
   48MOL   H22515359   1.143   7.959   1.503 -0.8708 -1.2248  2.2691
   48MOL   C22615360   1.151   7.752   1.573 -0.4009  0.1467  0.0378
   48MOL   C22715361   1.214   7.745   1.715  0.3914  0.1481  0.1625
   48MOL   C22815362   1.223   7.863   1.790 -0.2101 -0.6725 -0.1196
   48MOL   C22915363   1.293   7.864   1.912  0.0371 -0.2589  0.1658
   48MOL   C23015364   1.353   7.752   1.962 -0.6445 -0.0078  0.1757
   48MOL  Cl23115365   1.426   7.762   2.120 -0.0163 -0.1467  0.0426
   48MOL   C23215366   1.353   7.631   1.882  0.4666 -0.0803  0.1460
   48MOL   C23315367   1.285   7.627   1.762 -0.6916  0.2544  0.3005
   48MOL   C23415368   0.994   7.756   1.582  0.0328 -0.8325 -0.0144
   48MOL   H23515369   1.186   7.662   1.522 -0.5042 -0.9014  1.7698
   48MOL   H23615370   1.189   7.958   1.753  4.3241  1.1659  0.1535
   48MOL   H23715371   1.303   7.954   1.972 -2.6693  0.4464 -0.3641
   48MOL   H23815372   1.400   7.537   1.905 -2.8665 -2.3159 -1.7597
   48MOL   H23915373   1.288   7.537   1.703  0.2283  1.2456 -1.2244
   48MOL   H24015374   0.954   7.670   1.636 -0.6514 -0.4546  0.0842
   48MOL   H24115375   0.966   7.848   1.634  0.2618  0.7589 -2.6243
   48MOL   C24215376   0.907   7.778   1.443  0.2598 -0.4723  0.1656
   48MOL   C24315377   0.917   7.667   1.342  0.2301  0.5258  0.1793
   48MOL   C24415378   0.904   7.705   1.205  0.1539 -0.3141  0.1144
   48MOL   C24515379   0.897   7.611   1.106  0.1298 -0.1031  0.4156
   48MOL   C24615380   0.918   7.474   1.144  0.4279  0.6980  0.2152
   48MOL  Cl24715381   0.921   7.354   1.022  0.1760 -0.0853  0.0373
   48MOL   C24815382   0.923   7.428   1.276  0.1580  0.3482  0.4882
   48MOL   C24915383   0.931   7.531   1.377 -0.0108 -0.3705 -0.7727
   48MOL   C25015384   0.760   7.800   1.474  0.0587 -0.0919  0.4245
   48MOL   H25115385   0.940   7.863   1.384  2.0351 -0.2400  1.4458
   48MOL   H25215386   0.893   7.808   1.172 -0.0913 -0.5317 -0.4956
   48MOL   H25315387   0.887   7.633   1.001 -0.9699 -0.9697  0.3322
   48MOL   H25415388   0.938   7.328   1.314 -2.3022  1.0163  3.4270
   48MOL   H25515389   0.935   7.501   1.481  0.6362 -2.3988 -1.3521
   48MOL   H25615390   0.716   7.806   1.374  0.7228  0.6968  0.1692
   48MOL   H25715391   0.710   7.715   1.521 -1.4603 -0.7507 -2.2914
   48MOL   C25815392   0.715   7.928   1.538  0.3181  0.6616 -0.9071
   48MOL   C25915393   0.784   8.052   1.476 -0.4421 -0.3566  0.1236
   48MOL   C26015394   0.772   8.093   1.343  0.1950 -0.1801 -0.6021
   48MOL   C26115395   0.851   8.203   1.293  0.6792 -0.8410 -0.0380
   48MOL   C26215396   0.934   8.275   1.376  0.0467 -0.6959  0.3308
   48MOL  Cl26315397   1.025   8.408   1.320  0.1778  0.3345 -0.4567
   48MOL   C26415398   0.954   8.232   1.508  0.5145 -0.7151 -0.0904
   48MOL   C26515399   0.883   8.116   1.549  0.1228 -0.7291  0.1748
   48MOL   C26615400   0.559   7.946   1.549  0.1470  0.6825  0.4709
   48MOL   H26715401   0.737   7.921   1.644 -4.0292  2.0030  0.1927
   48MOL   H26815402   0.704   8.035   1.281 -0.9904  1.8754 -1.2754
   48MOL   H26915403   0.844   8.232   1.189 -0.7622 -0.1489  0.2478
   48MOL   H27015404   1.008   8.298   1.575  0.1384  0.2504 -0.7275
   48MOL   H27115405   0.897   8.080   1.650 -2.2652 -2.0058  0.0817
   48MOL   H27215406   0.518   7.931   1.449 -0.4634 -1.2063  0.9634
   48MOL   H27315407   0.524   7.852   1.593  0.0444 -0.2557 -1.5351
   48MOL   C27415408   0.490   8.070   1.607 -0.4311 -0.3593 -0.2550
   48MOL   C27515409   0.343   8.075   1.576  0.7207 -0.2739 -0.0929
   48MOL   C27615410   0.263   7.959   1.571  0.0661  0.1857 -0.0526
   48MOL   C27715411   0.140   7.969   1.517 -0.1503 -0.5091 -0.5754
   48MOL   C27815412   0.078   8.095   1.490 -0.2542 -0.2790  0.7584
   48MOL  Cl27915413   8.355   8.099   1.452  0.3827 -0.1982  0.2033
   48MOL   C28015414   0.151   8.211   1.497  0.0783  0.2451  0.1903
   48MOL   C28115415   0.283   8.203   1.537  0.3182  0.1521 -0.2373
   48MOL   C28215416   0.521   8.088   1.756 -0.0258 -0.1915 -1.4282
   48MOL   H28315417   0.535   8.154   1.554  0.4646 -0.9597 -0.4804
   48MOL   H28415418   0.304   7.862   1.596  3.5131  1.2303 -1.3651
   48MOL   H28515419   0.085   7.876   1.506  0.9637 -1.7215  3.2862
   48MOL   H28615420   0.108   8.306   1.471 -0.4200  0.1520  0.6753
   48MOL   H28715421   0.352   8.286   1.532  0.4664  0.4431  4.3553
   48MOL   H28815422   0.624   8.120   1.774 -0.3254 -0.5938  1.1998
   48MOL   H28915423   0.473   8.181   1.786 -1.2370 -1.8954  2.2351
   48MOL   C29015424   0.503   7.969   1.854  0.4291 -0.6838  0.1727
   48MOL   C29115425   0.632   7.910   1.907 -0.2089 -0.3123  1.0078
   48MOL   C29215426   0.662   7.772   1.878  0.7666 -0.9923  0.0663
   48MOL   C29315427   0.779   7.708   1.917  0.2681 -0.9815 -0.1039
   48MOL   C29415428   0.862   7.779   2.004 -0.0342 -0.0798 -0.2276
   48MOL  Cl29515429   1.007   7.699   2.053 -0.4587 -0.1390 -0.1047
   48MOL   C29615430   0.832   7.913   2.040 -0.1467  0.4079  0.5600
   48MOL   C29715431   0.719   7.979   1.990  0.3312  0.2082  0.1486
   48MOL   C29815432   0.404   8.002   1.968 -0.0771 -0.2281 -0.4826
   48MOL   H29915433   0.454   7.892   1.795  0.4986 -0.3720 -0.2956
   48MOL   H30015434   0.598   7.714   1.814 -0.1962 -1.4741  1.4587
   48MOL   H30115435   0.800   7.609   1.882 -1.3346 -1.0919 -0.8195
   48MOL   H30215436   0.902   7.964   2.104 -0.7502  1.0385  0.7204
   48MOL   H30315437   0.697   8.082   2.013 -1.8060 -0.3239  0.5617
   48MOL   H30415438   0.453   8.068   2.041  1.3890 -1.1053 -0.6379
   48MOL   H30515439   0.318   8.058   1.932 -0.2197  0.4284  0.8288
   48MOL   C30615440   0.343   7.894   2.065  0.0837  0.3011  0.0252
   48MOL   C30715441   0.447   7.809   2.141 -0.7052  0.2249  0.7021
   48MOL   C30815442   0.468   7.670   2.105  0.8242  0.8098 -0.7130
   48MOL   C30915443   0.560   7.597   2.191  0.0759 -0.2066 -0.5082
   48MOL   C31015444   0.619   7.652   2.306 -0.8150  0.5986  0.7117
   48MOL  Cl31115445   0.731   7.562   2.404  0.1040  0.2480 -0.2282
   48MOL   C31215446   0.602   7.785   2.331  0.5883  0.1406  0.3189
   48MOL   C31315447   0.519   7.865   2.246  0.0953  0.6044 -0.4527
   48MOL   C31415448   0.241   7.945   2.167  0.2556  0.0857  0.2385
   48MOL   H31515449   0.286   7.825   2.002 -0.5233 -1.0769  2.0275
   48MOL   H31615450   0.408   7.624   2.027 -2.2678 -0.2961  2.2082
   48MOL   H31715451   0.573   7.494   2.163  1.6621 -0.0071 -0.5470
   48MOL   H31815452   0.644   7.841   2.414  1.5401  2.4021 -1.6119
   48MOL   H31915453   0.504   7.970   2.266 -1.2842  0.4504 -0.6479
   48MOL   H32015454   0.217   7.868   2.241 -2.2362  0.2003 -0.3996
   48MOL   H32115455   0.286   8.025   2.226 -1.6844  0.5137  1.1718
   48MOL   H32215456   0.150   7.982   2.121 -1.0214 -0.9698  1.8585
   49MOL     C115457   5.325   0.774   4.817 -0.2164  0.0282  0.2878
   49MOL     C215458   5.214   0.681   4.846  0.5060  0.7100  0.6824
   49MOL     C315459   5.147   0.682   4.971 -0.5243 -0.6720  0.0369
   49MOL     C415460   5.043   0.595   5.000  0.0916  0.0822  0.0694
   49MOL     C515461   5.009   0.498   4.903 -0.1130  0.2280  0.6284
   49MOL    Cl615462   4.878   0.388   4.931  0.1423  0.1478  0.4171
   49MOL     C715463   5.063   0.499   4.775  0.0193 -0.1012 -0.4836
   49MOL     C815464   5.171   0.584   4.752  0.4311 -0.2939  0.7824
   49MOL     C915465   5.280   0.927   4.802 -1.0075  0.2275 -0.0911
   49MOL    H1015466   5.388   0.741   4.734  0.1538 -0.6823  0.8481
   49MOL    H1115467   5.171   0.746   5.054 -0.2301  0.1113 -0.6465
   49MOL    H1215468   4.980   0.599   5.088 -1.6117 -0.5653 -1.0866
   49MOL    H1315469   5.021   0.435   4.699  0.1266 -1.4761  0.5802
   49MOL    H1415470   5.211   0.574   4.652 -2.3101 -0.9843 -0.2633
   49MOL    H1515471   5.205   0.947   4.725 -1.1756 -1.9466 -0.5157
   49MOL    H1615472   5.238   0.959   4.897  0.7659 -0.1451  0.8180
   49MOL    H1715473   5.393   0.767   4.901 -0.5408  0.3952  0.5787
   49MOL    C1815474   5.405   1.030   4.794 -0.2028  0.1866 -0.2704
   49MOL    C1915475   5.486   1.011   4.657 -0.7305  0.0785  0.4193
   49MOL    C2015476   5.417   0.984   4.533 -0.9985  0.5665  0.0858
   49MOL    C2115477   5.495   0.976   4.413 -0.4461  0.1805  0.6834
   49MOL    C2215478   5.635   0.970   4.424 -0.5312 -0.0335  0.7043
   49MOL   Cl2315479   5.728   0.930   4.285 -0.1491  0.2390  0.4290
   49MOL    C2415480   5.702   0.998   4.547 -0.2012  0.0438  0.0151
   49MOL    C2515481   5.626   1.026   4.660  0.2577 -0.0127 -0.5518
   49MOL    C2615482   5.355   1.169   4.810  0.7591 -0.2100  0.1747
   49MOL    H2715483   5.462   0.993   4.879 -2.5176  1.6632  1.9945
   49MOL    H2815484   5.309   0.986   4.536 -1.0309 -0.4779 -0.2370
   49MOL    H2915485   5.448   0.955   4.317 -1.0918  1.5036  0.7015
   49MOL    H3015486   5.809   1.005   4.544 -0.3879  3.9327 -1.0404
   49MOL    H3115487   5.666   1.033   4.760  1.4257  0.5922 -1.0457
   49MOL    H3215488   5.431   1.227   4.758 -0.2204 -1.0012 -2.2237
   49MOL    H3315489   5.256   1.171   4.764  0.2319 -1.6234  1.1998
   49MOL    C3415490   5.345   1.243   4.951  0.5004 -0.1536  0.0812
   49MOL    C3515491   5.493   1.269   5.009  1.1916 -0.2526  0.3848
   49MOL    C3615492   5.517   1.251   5.145 -0.0626 -0.0629 -0.4938
   49MOL    C3715493   5.640   1.280   5.208 -0.4072  0.5220 -0.2989
   49MOL    C3815494   5.744   1.339   5.130 -0.1668 -0.0112 -0.4522
   49MOL   Cl3915495   5.893   1.387   5.216  0.1120  0.1038 -0.0567
   49MOL    C4015496   5.725   1.343   4.995 -0.7126  0.0742  0.1385
   49MOL    C4115497   5.597   1.328   4.931 -0.0591 -0.5381  0.1262
   49MOL    C4215498   5.266   1.385   4.957  0.0416  0.5654  0.6200
   49MOL    H4315499   5.299   1.177   5.025  0.7037 -0.4004 -0.0098
   49MOL    H4415500   5.437   1.206   5.202  0.4064 -0.9001 -0.4906
   49MOL    H4515501   5.650   1.270   5.315 -1.4754  1.9444 -0.0578
   49MOL    H4615502   5.804   1.388   4.936  0.4148 -1.5614  0.3719
   49MOL    H4715503   5.592   1.349   4.825  0.5772 -3.0158 -0.4158
   49MOL    H4815504   5.290   1.431   5.053  2.1297 -0.2328  0.5176
   49MOL    H4915505   5.315   1.448   4.883  2.1347 -1.2730  0.3900
   49MOL    C5015506   5.114   1.393   4.945 -0.2263 -0.4307  0.5628
   49MOL    C5115507   5.046   1.273   5.012  0.1463  0.7352  0.0920
   49MOL    C5215508   5.019   1.154   4.929 -0.6958  1.6998  0.6389
   49MOL    C5315509   4.996   1.035   4.991 -0.0405  0.5527 -0.4375
   49MOL    C5415510   4.986   1.022   5.133 -0.1820 -0.0721  0.0840
   49MOL   Cl5515511   4.926   0.870   5.212 -0.3055  0.3101 -0.1223
   49MOL    C5615512   5.014   1.131   5.213 -0.7650 -0.9105  0.0187
   49MOL    C5715513   5.042   1.259   5.151  0.2542 -0.0938 -0.4106
   49MOL    C5815514   5.055   1.536   4.982  0.6322  0.3219 -0.0418
   49MOL    H5915515   5.091   1.374   4.840 -0.3112 -0.0495  0.5113
   49MOL    H6015516   5.036   1.144   4.823  0.2623 -0.5964  0.9920
   49MOL    H6115517   4.986   0.953   4.920  0.2760 -1.4864  1.8047
   49MOL    H6215518   5.002   1.133   5.320 -1.5517  0.5787 -0.0817
   49MOL    H6315519   5.075   1.346   5.206  1.6215 -0.6633 -0.3166
   49MOL    H6415520   4.947   1.525   4.993  0.5084  1.4523 -0.0007
   49MOL    H6515521   5.095   1.564   5.080  0.1080 -1.4165  0.6839
   49MOL    C6615522   5.088   1.640   4.865 -0.0141 -0.7357  0.2376
   49MOL    C6715523   4.983   1.623   4.752  0.2231 -0.0635 -0.8917
   49MOL    C6815524   5.013   1.546   4.636  0.3142 -0.2919  0.4126
   49MOL    C6915525   4.922   1.511   4.540 -0.6559 -0.1020  0.4739
   49MOL    C7015526   4.789   1.544   4.558  0.2283 -0.8316  0.2492
   49MOL   Cl7115527   4.664   1.502   4.440 -0.1152 -0.2988  0.1613
   49MOL    C7215528   4.756   1.634   4.670  0.0623  0.8973  0.6218
   49MOL    C7315529   4.849   1.675   4.767  0.0182 -0.6267 -0.0150
   49MOL    C7415530   5.084   1.786   4.931 -0.5891 -0.4690  0.2559
   49MOL    H7515531   5.185   1.626   4.818  1.0629 -2.6487  2.8990
   49MOL    H7615532   5.115   1.510   4.632  0.5515  0.4811 -0.5324
   49MOL    H7715533   4.957   1.450   4.458  3.0818  0.4549  1.5922
   49MOL    H7815534   4.655   1.672   4.678 -0.3527 -0.0499 -0.0043
   49MOL    H7915535   4.813   1.737   4.847 -0.4773 -0.0139 -0.7053
   49MOL    H8015536   4.981   1.810   4.957 -0.4911 -0.8399  1.0056
   49MOL    H8115537   5.144   1.773   5.021  1.7620 -0.0938 -1.2380
   49MOL    C8215538   5.153   1.896   4.845 -0.4921  0.6283 -0.0763
   49MOL    C8315539   5.071   1.929   4.720 -0.0443  0.3427  0.0072
   49MOL    C8415540   4.951   1.999   4.736 -0.5916 -1.2499 -0.4170
   49MOL    C8515541   4.870   2.016   4.623 -0.1603  0.4669  0.8819
   49MOL    C8615542   4.908   1.955   4.499 -0.3041 -0.0061  0.3460
   49MOL   Cl8715543   4.801   1.956   4.364 -0.0020  0.4906 -0.4017
   49MOL    C8815544   5.029   1.889   4.484  0.3922 -0.8063 -0.0621
   49MOL    C8915545   5.110   1.883   4.596 -0.3606 -0.3585  0.6940
   49MOL    C9015546   5.176   2.018   4.933 -0.4568  0.2970  0.8708
   49MOL    H9115547   5.248   1.860   4.806 -0.7148  2.0067 -1.9637
   49MOL    H9215548   4.921   2.028   4.836  0.7386 -1.9153  0.1882
   49MOL    H9315549   4.772   2.062   4.618  0.6140  2.0039 -0.7419
   49MOL    H9415550   5.057   1.860   4.384 -1.4427  1.0924 -1.1636
   49MOL    H9515551   5.196   1.818   4.585  0.9560  1.5638 -0.7685
   49MOL    H9615552   5.212   2.092   4.861 -3.6443 -0.2614 -1.3618
   49MOL    H9715553   5.085   2.055   4.979 -1.4594 -0.4812 -0.4740
   49MOL    C9815554   5.299   2.008   5.033 -0.3929 -0.6641 -0.6541
   49MOL    C9915555   5.422   1.933   4.972  0.3935 -0.1543  1.0666
   49MOL   C10015556   5.473   1.808   5.024 -0.6945  0.3668  0.3790
   49MOL   C10115557   5.590   1.751   4.974  0.4256 -0.3672  0.5867
   49MOL   C10215558   5.661   1.818   4.873 -0.7977  0.1973 -0.3646
   49MOL  Cl10315559   5.813   1.754   4.824  0.6547 -0.3169  0.0772
   49MOL   C10415560   5.606   1.931   4.808 -0.5073  0.2955  0.0611
   49MOL   C10515561   5.482   1.983   4.854 -0.4489  0.4404 -0.0200
   49MOL   C10615562   5.332   2.152   5.091 -0.8307  0.0347  0.2181
   49MOL   H10715563   5.281   1.947   5.121 -0.0346 -1.1975 -0.9530
   49MOL   H10815564   5.416   1.771   5.108  1.5763 -2.3341  0.7748
   49MOL   H10915565   5.622   1.658   5.017  0.8582 -0.5313 -0.0790
   49MOL   H11015566   5.658   1.974   4.724  0.3734 -0.3737  0.2516
   49MOL   H11115567   5.446   2.078   4.819 -0.6876  0.5213  0.4346
   49MOL   H11215568   5.438   2.158   5.115 -0.0832 -1.3088 -2.4258
   49MOL   H11315569   5.320   2.224   5.010 -1.4938  0.3048  0.5600
   49MOL   C11415570   5.258   2.193   5.226  0.5744 -0.6071 -0.1996
   49MOL   C11515571   5.284   2.096   5.344  0.3180 -0.3086  0.2436
   49MOL   C11615572   5.416   2.070   5.395 -0.0871  0.2981  0.7603
   49MOL   C11715573   5.429   1.982   5.501 -0.1369 -0.2348 -0.5664
   49MOL   C11815574   5.319   1.921   5.573 -0.2538 -0.1581  0.4641
   49MOL  Cl11915575   5.358   1.811   5.702 -0.2402 -0.1427 -0.0540
   49MOL   C12015576   5.190   1.941   5.513  0.0515  0.2260 -0.0749
   49MOL   C12115577   5.170   2.030   5.404 -0.3425 -0.3286 -0.3408
   49MOL   C12215578   5.281   2.340   5.267  0.9486  0.1046  0.2735
   49MOL   H12315579   5.151   2.186   5.207  0.5018  0.1179 -0.0577
   49MOL   H12415580   5.503   2.117   5.350 -1.3590  0.6784 -1.3528
   49MOL   H12515581   5.528   1.978   5.546 -1.3539 -1.2035  2.1729
   49MOL   H12615582   5.108   1.884   5.555 -0.7602 -0.4257 -2.4761
   49MOL   H12715583   5.068   2.037   5.371 -0.7370 -1.8552  0.4914
   49MOL   H12815584   5.217   2.359   5.353 -0.1615 -0.5772 -0.3892
   49MOL   H12915585   5.381   2.371   5.297  0.3270  1.2222  1.2421
   49MOL   C13015586   5.224   2.437   5.162 -0.6461  0.3035 -0.2435
   49MOL   C13115587   5.078   2.415   5.137 -0.1301 -0.4445 -0.1117
   49MOL   C13215588   4.986   2.420   5.246 -0.1827  0.2906 -0.0298
   49MOL   C13315589   4.849   2.411   5.217 -0.0881  0.0248 -0.1857
   49MOL   C13415590   4.798   2.405   5.087  0.4353  0.5091 -0.1369
   49MOL  Cl13515591   4.629   2.400   5.051 -0.0136 -0.5548  0.0253
   49MOL   C13615592   4.891   2.397   4.983  0.3570  0.9427 -0.3603
   49MOL   C13715593   5.027   2.398   5.012 -0.2683 -0.1174  0.2019
   49MOL   C13815594   5.242   2.588   5.203 -0.6202 -0.5176 -0.0075
   49MOL   H13915595   5.284   2.422   5.072  0.1987  0.1228  0.3473
   49MOL   H14015596   5.018   2.424   5.349  0.6843 -0.1224 -0.2805
   49MOL   H14115597   4.770   2.416   5.290  0.1498 -1.8606  0.2161
   49MOL   H14215598   4.849   2.385   4.884 -2.4022 -1.9626  1.0724
   49MOL   H14315599   5.099   2.397   4.932 -1.3742 -2.3711 -0.8278
   49MOL   H14415600   5.156   2.622   5.261 -0.2101 -0.1345  0.3805
   49MOL   H14515601   5.333   2.596   5.264  0.9733  3.8075 -2.7184
   49MOL   C14615602   5.267   2.685   5.082 -0.3141  0.4768  0.4336
   49MOL   C14715603   5.135   2.697   5.004 -0.5495 -0.3869 -0.8458
   49MOL   C14815604   5.142   2.669   4.870  0.4622 -0.5023  0.0443
   49MOL   C14915605   5.033   2.702   4.783  0.3169 -0.2125 -0.1349
   49MOL   C15015606   4.903   2.741   4.838  0.0573 -0.0317 -0.5161
   49MOL  Cl15115607   4.763   2.763   4.733  0.0938  0.2384  0.0847
   49MOL   C15215608   4.891   2.745   4.976 -1.1737 -0.4966 -0.5162
   49MOL   C15315609   5.008   2.722   5.063  0.2014  0.4510  0.0766
   49MOL   C15415610   5.336   2.824   5.127  0.8352 -0.2924  0.3600
   49MOL   H15515611   5.338   2.625   5.024 -1.6332  1.1068 -1.8970
   49MOL   H15615612   5.236   2.650   4.819  0.7298  0.1293  0.2969
   49MOL   H15715613   5.044   2.698   4.676 -0.1255 -1.1304 -0.1477
   49MOL   H15815614   4.795   2.764   5.023 -1.1368 -1.5510 -0.0092
   49MOL   H15915615   4.991   2.739   5.168  0.8134  2.5853 -0.1427
   49MOL   H16015616   5.250   2.891   5.135  0.5414 -0.7928  1.4326
   49MOL   H16115617   5.380   2.808   5.226  1.0195 -2.9106 -0.1170
   49MOL   C16215618   5.449   2.885   5.039  0.2700 -0.2444 -0.0464
   49MOL   C16315619   5.425   2.874   4.887  0.8867 -0.6129 -0.1457
   49MOL   C16415620   5.322   2.960   4.829 -0.0845  0.0296 -0.2492
   49MOL   C16515621   5.287   2.959   4.694  0.8221  0.0451 -0.0348
   49MOL   C16615622   5.364   2.885   4.606 -0.4022 -0.3388 -0.2824
   49MOL  Cl16715623   5.319   2.878   4.443 -0.1095 -0.1422 -0.2162
   49MOL   C16815624   5.481   2.816   4.654  0.5760  0.1903  0.0484
   49MOL   C16915625   5.508   2.803   4.796 -0.1685 -0.6131 -0.1047
   49MOL   C17015626   5.486   3.038   5.076 -0.2107 -0.1614  0.3961
   49MOL   H17115627   5.536   2.820   5.052  0.5099  0.4824  2.2723
   49MOL   H17215628   5.271   3.030   4.893  0.5142 -1.9397  2.5148
   49MOL   H17315629   5.199   3.014   4.666  1.0026  0.0976 -0.5046
   49MOL   H17415630   5.540   2.755   4.588 -0.0968  0.7654 -1.1063
   49MOL   H17515631   5.597   2.751   4.828  0.5490  1.6361  1.6345
   49MOL   H17615632   5.552   3.076   4.998 -1.5259 -0.4497 -0.8711
   49MOL   H17715633   5.393   3.095   5.077 -0.1030  0.0116  0.8694
   49MOL   C17815634   5.568   3.044   5.204 -1.0980  0.0298  0.0111
   49MOL   C17915635   5.703   2.967   5.196  0.5761 -0.6531 -0.3109
   49MOL   C18015636   5.721   2.859   5.290 -1.0119  0.1501 -0.5140
   49MOL   C18115637   5.847   2.803   5.301 -0.3395 -0.0922  0.1698
   49MOL   C18215638   5.954   2.846   5.218  0.5570 -0.9043  0.4853
   49MOL  Cl18315639   6.101   2.764   5.227 -0.2137 -0.1577 -0.0786
   49MOL   C18415640   5.926   2.951   5.127  0.8230  0.7921 -0.1373
   49MOL   C18515641   5.800   3.016   5.113 -0.5917 -0.0675  0.5734
   49MOL   C18615642   5.594   3.186   5.261  0.9460 -0.3857 -0.3817
   49MOL   H18715643   5.498   2.990   5.267 -0.6198 -2.3044 -1.4063
   49MOL   H18815644   5.648   2.823   5.361  0.8654 -3.1795 -0.1441
   49MOL   H18915645   5.855   2.731   5.381  2.8941 -1.0291 -0.9421
   49MOL   H19015646   6.015   2.974   5.069  0.3857 -1.2164 -1.6501
   49MOL   H19115647   5.797   3.104   5.050  1.2081 -0.9836 -0.8493
   49MOL   H19215648   5.682   3.184   5.325  0.9314  1.0772 -0.2912
   49MOL   H19315649   5.624   3.242   5.172  0.8232 -1.7622 -1.3009
   49MOL   C19415650   5.478   3.252   5.322  0.1320 -0.5364 -0.1772
   49MOL   C19515651   5.473   3.223   5.473  0.3481  0.2340  0.0407
   49MOL   C19615652   5.375   3.148   5.541 -0.2333 -0.3483 -0.3198
   49MOL   C19715653   5.384   3.125   5.675 -0.1669  0.0427  0.0134
   49MOL   C19815654   5.487   3.181   5.753  0.0824 -0.2557 -0.0022
   49MOL  Cl19915655   5.493   3.135   5.916 -0.5001 -0.1995 -0.1121
   49MOL   C20015656   5.581   3.266   5.693 -0.1803 -0.1805  0.4119
   49MOL   C20115657   5.571   3.283   5.552 -0.5539  0.2786  0.4164
   49MOL   C20215658   5.471   3.400   5.280 -0.1866  0.4671 -0.1659
   49MOL   H20315659   5.383   3.206   5.293  0.1321 -1.3814  1.1258
   49MOL   H20415660   5.294   3.100   5.490 -0.7849 -0.7193  0.8795
   49MOL   H20515661   5.303   3.067   5.716  0.3675  0.2636  1.4252
   49MOL   H20615662   5.666   3.297   5.751 -0.3499 -1.9165  1.5909
   49MOL   H20715663   5.647   3.341   5.502 -0.9450  0.6257  0.2237
   49MOL   H20815664   5.571   3.442   5.292 -0.2331  0.2985  0.8653
   49MOL   H20915665   5.457   3.404   5.172  1.7438 -1.1373 -0.4963
   49MOL   C21015666   5.365   3.489   5.349 -0.1087  0.3085 -0.0863
   49MOL   C21115667   5.421   3.631   5.372 -0.3221 -0.5192 -0.1295
   49MOL   C21215668   5.453   3.719   5.265  0.7268 -1.3888  0.2229
   49MOL   C21315669   5.523   3.840   5.290  0.2280  0.3985  0.6730
   49MOL   C21415670   5.554   3.882   5.424  0.1192  0.1164 -0.1976
   49MOL  Cl21515671   5.645   4.025   5.448 -0.0849  0.0514  0.0276
   49MOL   C21615672   5.515   3.787   5.529  0.4747 -0.8041  0.3526
   49MOL   C21715673   5.449   3.666   5.502  0.2502  0.3743  0.1569
   49MOL   C21815674   5.225   3.486   5.288  0.0576  0.1815 -0.3934
   49MOL   H21915675   5.343   3.450   5.448  0.1173 -0.4863 -0.3451
   49MOL   H22015676   5.435   3.681   5.166 -1.4976  0.2547 -0.0230
   49MOL   H22115677   5.556   3.896   5.204 -0.5248 -0.9167 -0.4825
   49MOL   H22215678   5.555   3.812   5.627  2.5297 -2.9594  0.1200
   49MOL   H22315679   5.424   3.595   5.579  3.4823 -0.9230  0.0999
   49MOL   H22415680   5.226   3.510   5.182 -1.3179 -2.2352 -0.9808
   49MOL   H22515681   5.185   3.385   5.287  0.9183 -0.1695 -0.2591
   49MOL   C22615682   5.115   3.571   5.356  0.5060 -0.2519  0.1675
   49MOL   C22715683   4.991   3.570   5.267 -0.4403 -0.7449  0.7881
   49MOL   C22815684   4.894   3.466   5.283 -1.1657 -1.1444  0.9992
   49MOL   C22915685   4.780   3.462   5.199 -0.3009 -1.0257 -0.2413
   49MOL   C23015686   4.756   3.568   5.107 -0.2259  0.1441  0.9726
   49MOL  Cl23115687   4.608   3.567   5.021  0.1638  0.0786  0.2581
   49MOL   C23215688   4.859   3.662   5.086  0.4505  0.5332  0.6522
   49MOL   C23315689   4.979   3.670   5.169  0.0108 -0.4462  0.6483
   49MOL   C23415690   5.082   3.535   5.500  1.0537  0.2114 -0.0064
   49MOL   H23515691   5.146   3.676   5.358  0.2991 -0.2103  2.2414
   49MOL   H23615692   4.907   3.379   5.346  0.6515 -1.2672  0.5029
   49MOL   H23715693   4.705   3.385   5.212  0.9046 -2.5156 -1.7478
   49MOL   H23815694   4.841   3.737   5.010 -1.6519  0.2731  0.8582
   49MOL   H23915695   5.048   3.751   5.151  0.5666 -1.1488 -0.4714
   49MOL   H24015696   5.071   3.428   5.517 -3.7991  0.3593 -1.3975
   49MOL   H24115697   5.166   3.551   5.568  0.4865 -0.1336  0.7861
   49MOL   C24215698   4.972   3.614   5.567  0.2427 -0.1293  0.2560
   49MOL   C24315699   4.947   3.551   5.705  0.5527 -0.2432 -0.1953
   49MOL   C24415700   5.049   3.542   5.800 -0.3790 -1.0708  0.2411
   49MOL   C24515701   5.020   3.492   5.929  0.2922 -0.4561  0.3784
   49MOL   C24615702   4.889   3.456   5.963  0.1858  0.2785  0.7930
   49MOL  Cl24715703   4.865   3.383   6.119 -0.2911 -0.0128  0.0805
   49MOL   C24815704   4.785   3.454   5.864 -0.2986 -1.0970 -0.4143
   49MOL   C24915705   4.818   3.495   5.730 -0.4277 -0.1775 -0.1149
   49MOL   C25015706   5.002   3.766   5.567  0.0841 -0.4890 -0.2059
   49MOL   H25115707   4.882   3.601   5.507  1.2601 -1.7417 -0.9509
   49MOL   H25215708   5.146   3.586   5.788 -1.4232  1.1961 -0.1556
   49MOL   H25315709   5.098   3.496   6.005  0.7795  1.1018 -0.1791
   49MOL   H25415710   4.684   3.419   5.881 -1.6469  2.4131 -0.7072
   49MOL   H25515711   4.739   3.486   5.656  1.1424  1.2923 -2.0286
   49MOL   H25615712   5.101   3.791   5.606  1.3252 -1.1629 -2.8388
   49MOL   H25715713   5.007   3.802   5.464  1.2651  1.0837  0.3746
   49MOL   C25815714   4.910   3.866   5.641 -0.2269 -0.3136  0.5796
   49MOL   C25915715   4.951   3.873   5.793 -0.0857 -0.2181  0.0833
   49MOL   C26015716   5.089   3.883   5.835  0.2396 -0.0008 -0.0433
   49MOL   C26115717   5.121   3.875   5.971 -0.1669  0.0013 -0.6408
   49MOL   C26215718   5.018   3.873   6.066 -0.5400 -0.2154  0.5683
   49MOL  Cl26315719   5.068   3.880   6.233  0.1066 -0.0886 -0.1541
   49MOL   C26415720   4.881   3.869   6.028  0.2538 -1.0980  0.0245
   49MOL   C26515721   4.852   3.860   5.893  1.0268 -0.0356  0.0655
   49MOL   C26615722   4.905   4.006   5.586 -0.7720  0.3832  0.5450
   49MOL   H26715723   4.811   3.821   5.636 -0.3200 -0.1690  1.0591
   49MOL   H26815724   5.168   3.897   5.763  0.2056  0.4137 -0.0035
   49MOL   H26915725   5.224   3.883   6.004 -0.7620  2.5189  0.7568
   49MOL   H27015726   4.805   3.858   6.104  0.1853 -3.3285 -0.3241
   49MOL   H27115727   4.748   3.844   5.869  1.1386  2.0462 -1.9844
   49MOL   H27215728   4.870   4.082   5.655 -0.7750  1.9744 -1.1752
   49MOL   H27315729   5.008   4.038   5.573 -1.4660  3.1044  1.6335
   49MOL   C27415730   4.825   4.023   5.457  0.3047 -0.2187  0.8996
   49MOL   C27515731   4.681   3.986   5.470  0.3753 -0.2052 -0.0008
   49MOL   C27615732   4.622   3.893   5.384  0.1422  0.1712  0.8521
   49MOL   C27715733   4.481   3.867   5.390 -0.0467  0.5210 -0.6778
   49MOL   C27815734   4.400   3.931   5.488 -0.4970 -0.3640  0.4506
   49MOL  Cl27915735   4.230   3.893   5.499  0.1438  0.0375  0.3304
   49MOL   C28015736   4.469   4.008   5.586  0.3840  0.2897 -0.4215
   49MOL   C28115737   4.601   4.043   5.570 -0.0750  0.0339 -0.1716
   49MOL   C28215738   4.831   4.170   5.409 -0.1385 -0.1614  0.7545
   49MOL   H28315739   4.870   3.967   5.374 -0.6049 -0.6633  0.6989
   49MOL   H28415740   4.680   3.843   5.308 -2.3089 -0.3754 -0.7111
   49MOL   H28515741   4.436   3.803   5.316 -2.2299  0.2978  0.7949
   49MOL   H28615742   4.407   4.044   5.667  3.1831  0.8500  1.5568
   49MOL   H28715743   4.639   4.114   5.642 -2.0443  1.4976 -0.5270
   49MOL   H28815744   4.811   4.239   5.491 -1.3208 -0.3140  0.6006
   49MOL   H28915745   4.928   4.196   5.367  0.0697 -2.1529 -0.0941
   49MOL   C29015746   4.723   4.210   5.307 -0.4395  0.1526 -0.1288
   49MOL   C29115747   4.701   4.357   5.300  0.2976 -0.6249  0.4493
   49MOL   C29215748   4.573   4.402   5.257  0.7368  0.9402  0.9571
   49MOL   C29315749   4.551   4.537   5.244 -0.4822  0.3396  0.1053
   49MOL   C29415750   4.653   4.629   5.277 -0.5716  0.0390 -0.4776
   49MOL  Cl29515751   4.606   4.798   5.264  0.8358 -0.4956  0.2215
   49MOL   C29615752   4.777   4.590   5.327  0.2739  0.0058  0.0394
   49MOL   C29715753   4.802   4.454   5.333 -0.1600 -0.4510  0.1009
   49MOL   C29815754   4.727   4.139   5.171  0.2082  0.1810 -0.1102
   49MOL   H29915755   4.631   4.195   5.362  0.5194 -0.0282  1.4490
   49MOL   H30015756   4.496   4.328   5.240  0.8223  1.2982 -1.1059
   49MOL   H30115757   4.457   4.588   5.228 -0.1345  0.5885 -1.2448
   49MOL   H30215758   4.859   4.657   5.350  0.2071  0.8795 -2.0981
   49MOL   H30315759   4.898   4.421   5.367  1.8508  2.1823 -2.7632
   49MOL   H30415760   4.755   4.035   5.190 -0.8126 -0.4465 -1.9265
   49MOL   H30515761   4.624   4.130   5.138 -0.0379  2.4603 -0.0255
   49MOL   C30615762   4.825   4.199   5.066  0.0372 -0.7189 -0.0582
   49MOL   C30715763   4.872   4.091   4.975  0.5379 -0.0986 -0.2705
   49MOL   C30815764   5.007   4.056   4.978 -0.1138 -0.3107  0.0513
   49MOL   C30915765   5.046   3.945   4.905 -0.1322 -0.4796  0.2354
   49MOL   C31015766   4.961   3.882   4.815  0.2711  0.4675  0.6131
   49MOL  Cl31115767   5.011   3.753   4.705  0.3809  0.6863  0.0039
   49MOL   C31215768   4.822   3.908   4.822 -0.5274 -0.2386  0.3006
   49MOL   C31315769   4.779   4.023   4.892  0.0900  0.1364  0.3294
   49MOL   C31415770   4.763   4.311   4.985 -0.3634 -0.5225  0.2820
   49MOL   H31515771   4.914   4.237   5.116 -1.1054 -0.2609  1.6718
   49MOL   H31615772   5.083   4.099   5.041  0.4901  0.4939 -1.2078
   49MOL   H31715773   5.147   3.908   4.919 -0.1831  0.9423  5.0617
   49MOL   H31815774   4.750   3.865   4.754 -0.0956  1.4499 -1.2680
   49MOL   H31915775   4.678   4.062   4.884  0.1928 -0.2553 -3.5895
   49MOL   H32015776   4.830   4.343   4.905  1.8077 -2.7312  1.1633
   49MOL   H32115777   4.661   4.288   4.954 -0.4681 -0.5398  0.6369
   49MOL   H32215778   4.761   4.397   5.052  1.7778  0.7191 -1.1973
   50MOL     C115779   2.741   1.232   1.196  0.1883 -0.1022  0.2027
   50MOL     C215780   2.711   1.264   1.046  0.0642 -0.9690 -0.1658
   50MOL     C315781   2.819   1.294   0.954  1.0143 -0.4248 -0.6022
   50MOL     C415782   2.794   1.316   0.817 -0.0299 -0.7675 -0.2622
   50MOL     C515783   2.658   1.320   0.775  0.3265 -0.1644  0.0467
   50MOL    Cl615784   2.614   1.346   0.612  0.0417 -0.1414 -0.1597
   50MOL     C715785   2.556   1.303   0.870  0.3748 -0.4553  0.6595
   50MOL     C815786   2.578   1.264   1.001 -0.1295 -0.1207  0.2675
   50MOL     C915787   2.869   1.302   1.251 -0.4592 -0.2683 -0.2783
   50MOL    H1015788   2.746   1.123   1.201 -1.2987 -0.1799  0.1084
   50MOL    H1115789   2.920   1.297   0.992  0.3584 -1.5817  1.2943
   50MOL    H1215790   2.872   1.341   0.747 -0.8507 -2.4475 -1.7838
   50MOL    H1315791   2.452   1.308   0.839  1.0644 -1.1439 -1.8515
   50MOL    H1415792   2.492   1.248   1.065 -0.9283  1.1305 -0.4759
   50MOL    H1515793   2.958   1.257   1.207 -1.3756  0.4683 -2.9990
   50MOL    H1615794   2.871   1.408   1.223  0.3134  0.1169  1.2099
   50MOL    H1715795   2.659   1.278   1.251  0.9737  2.1279 -0.4566
   50MOL    C1815796   2.872   1.290   1.403  0.0086  0.1909 -0.3025
   50MOL    C1915797   2.865   1.145   1.435  0.3210  0.9625  0.5956
   50MOL    C2015798   2.965   1.057   1.390 -0.1221 -0.2071  0.3463
   50MOL    C2115799   2.954   0.914   1.419 -0.6687  0.1164 -0.3034
   50MOL    C2215800   2.840   0.863   1.484 -0.2651  0.1687  0.1978
   50MOL   Cl2315801   2.832   0.688   1.514  0.1525  0.0129  0.2515
   50MOL    C2415802   2.740   0.960   1.522 -0.5778  0.3900  0.1582
   50MOL    C2515803   2.755   1.098   1.507 -0.4169 -0.0685 -0.4297
   50MOL    C2615804   2.993   1.360   1.463 -0.5365 -0.3445 -0.2388
   50MOL    H2715805   2.788   1.345   1.448  1.9823  1.2862  2.1809
   50MOL    H2815806   3.045   1.091   1.327 -1.9242 -0.3608 -2.0798
   50MOL    H2915807   3.024   0.840   1.381  2.1704  1.4164  2.1390
   50MOL    H3015808   2.646   0.929   1.566 -0.7843  1.7006  0.6790
   50MOL    H3115809   2.683   1.172   1.539  0.1484  1.3613 -2.3307
   50MOL    H3215810   3.041   1.298   1.540  2.7374  2.4563  0.0975
   50MOL    H3315811   3.068   1.353   1.384  0.1612  4.2880 -0.1196
   50MOL    C3415812   2.980   1.501   1.515  0.1667  1.3729 -0.2374
   50MOL    C3515813   2.894   1.515   1.646  0.7496  0.1241  0.0817
   50MOL    C3615814   2.768   1.580   1.644  0.8834  0.1864 -0.1914
   50MOL    C3715815   2.696   1.595   1.763  0.5654  0.3289  0.0984
   50MOL    C3815816   2.743   1.531   1.884  0.2732  0.1689  0.3926
   50MOL   Cl3915817   2.656   1.546   2.029  0.4789 -0.4859 -0.0120
   50MOL    C4015818   2.863   1.458   1.884 -0.3408  0.1552  0.2601
   50MOL    C4115819   2.935   1.444   1.760 -0.1700 -0.1352 -0.0086
   50MOL    C4215820   3.116   1.579   1.542 -0.7515  0.5644 -0.8633
   50MOL    H4315821   2.935   1.562   1.437 -0.7194  2.3613  1.0263
   50MOL    H4415822   2.746   1.628   1.550 -0.4780 -0.2975 -0.1215
   50MOL    H4515823   2.600   1.645   1.761  0.1914 -0.3998 -1.1354
   50MOL    H4615824   2.889   1.408   1.976  0.3252 -0.6894 -0.3892
   50MOL    H4715825   3.021   1.379   1.764 -0.1822 -0.1421  0.1470
   50MOL    H4815826   3.185   1.525   1.608  0.3330  2.0253 -0.7846
   50MOL    H4915827   3.164   1.577   1.444  0.7247 -0.8474 -0.1393
   50MOL    C5015828   3.113   1.721   1.603  0.9432  0.9366 -0.0890
   50MOL    C5115829   3.228   1.740   1.712  0.4711  0.3373 -0.2494
   50MOL    C5215830   3.199   1.741   1.847  0.0144 -0.0176 -0.2020
   50MOL    C5315831   3.306   1.753   1.941 -0.0318  0.1486  0.4090
   50MOL    C5415832   3.439   1.775   1.898  0.1345  0.4963 -1.3876
   50MOL   Cl5515833   3.544   1.799   2.034  0.1062  0.0946  0.5981
   50MOL    C5615834   3.467   1.779   1.762 -0.3310 -0.0526 -1.1602
   50MOL    C5715835   3.362   1.762   1.673 -0.3026 -0.2501  0.5928
   50MOL    C5815836   3.113   1.840   1.503  0.0656  0.4055  0.0470
   50MOL    H5915837   3.020   1.736   1.658  1.6234  3.6934  0.3904
   50MOL    H6015838   3.098   1.719   1.878  0.7552 -1.8120  0.9970
   50MOL    H6115839   3.292   1.749   2.048 -0.4322  0.8553  0.3908
   50MOL    H6215840   3.568   1.792   1.728  0.3553  0.2830  0.9805
   50MOL    H6315841   3.371   1.767   1.565  1.7034  2.3903  0.8314
   50MOL    H6415842   3.148   1.933   1.547  0.4384  0.4967 -0.4403
   50MOL    H6515843   3.195   1.818   1.435 -0.1575 -1.1434  0.2556
   50MOL    C6615844   2.977   1.863   1.432  0.5591 -0.4055  0.0562
   50MOL    C6715845   2.858   1.893   1.521  0.5014 -0.2818  0.6888
   50MOL    C6815846   2.731   1.877   1.469  0.2530  0.1150  0.2295
   50MOL    C6915847   2.621   1.911   1.545  0.2433  0.4556 -0.0971
   50MOL    C7015848   2.643   1.966   1.674  0.2708 -0.3942  0.5863
   50MOL   Cl7115849   2.510   2.013   1.768  0.2477  0.0734  0.1736
   50MOL    C7215850   2.770   1.994   1.721 -0.3619 -0.0155 -0.3450
   50MOL    C7315851   2.877   1.958   1.644 -0.6814  0.4112  0.0493
   50MOL    C7415852   2.999   1.970   1.320  0.3613  0.3126  0.3432
   50MOL    H7515853   2.954   1.766   1.389 -1.4711 -0.6197  1.5124
   50MOL    H7615854   2.717   1.837   1.370 -0.7989  0.3551  0.2823
   50MOL    H7715855   2.522   1.899   1.504 -0.4169  0.2812  1.5463
   50MOL    H7815856   2.781   2.041   1.818  0.6222 -0.5636 -0.1833
   50MOL    H7915857   2.972   1.984   1.688 -1.2619  0.4805  1.3035
   50MOL    H8015858   2.914   2.037   1.305  0.5026  0.6578  1.0504
   50MOL    H8115859   3.074   2.037   1.363  1.0585 -0.3289  0.1399
   50MOL    C8215860   3.035   1.908   1.187  0.1153  0.4077  0.5156
   50MOL    C8315861   2.911   1.852   1.119  0.5578  0.7545  0.1323
   50MOL    C8415862   2.800   1.930   1.072 -0.6404  0.4501  0.2094
   50MOL    C8515863   2.701   1.875   0.989  0.0065 -0.7613 -0.5632
   50MOL    C8615864   2.687   1.733   0.970 -0.5378 -0.4146 -0.2763
   50MOL   Cl8715865   2.563   1.664   0.867  0.2681  0.2679  0.0658
   50MOL    C8815866   2.788   1.654   1.031 -0.9717 -0.1330 -0.3166
   50MOL    C8915867   2.897   1.712   1.103 -0.0759 -0.6582  0.0680
   50MOL    C9015868   3.099   2.006   1.084 -0.1971 -0.1569  0.0347
   50MOL    H9115869   3.105   1.827   1.207 -1.5813 -0.8442  1.5254
   50MOL    H9215870   2.799   2.038   1.084  0.8735  0.7485 -2.2262
   50MOL    H9315871   2.621   1.927   0.938 -0.3174 -1.6069 -0.9270
   50MOL    H9415872   2.786   1.547   1.013 -3.4821  0.1049 -1.5926
   50MOL    H9515873   2.967   1.643   1.148 -1.6640 -2.9857 -0.9134
   50MOL    H9615874   3.132   1.945   1.000 -0.8874 -2.4052  1.3572
   50MOL    H9715875   3.014   2.061   1.045  0.3090 -0.4312 -1.4897
   50MOL    C9815876   3.215   2.103   1.126 -0.6133 -0.1549 -0.0337
   50MOL    C9915877   3.325   2.025   1.203  0.5806 -0.3617 -0.2495
   50MOL   C10015878   3.379   1.910   1.139 -0.3161  0.2550  0.3162
   50MOL   C10115879   3.464   1.825   1.203 -0.1746 -0.5025 -0.2770
   50MOL   C10215880   3.508   1.858   1.334  0.0157 -0.0417  0.1047
   50MOL  Cl10315881   3.611   1.746   1.419  0.0929  0.2321  0.0830
   50MOL   C10415882   3.456   1.971   1.406 -0.1690 -0.2447  0.0757
   50MOL   C10515883   3.361   2.053   1.337  0.6930 -0.2309  0.6910
   50MOL   C10615884   3.283   2.188   1.007  0.4944  0.1077 -0.6937
   50MOL   H10715885   3.173   2.168   1.202 -0.4176 -1.4179  1.1703
   50MOL   H10815886   3.356   1.892   1.035  1.8418  4.8775 -1.1265
   50MOL   H10915887   3.516   1.748   1.147 -0.0920 -1.3605  0.9372
   50MOL   H11015888   3.493   2.004   1.502  1.1500 -0.6226 -0.2884
   50MOL   H11115889   3.327   2.145   1.383 -2.5512 -1.8762  1.7541
   50MOL   H11215890   3.378   2.219   1.049 -0.3462  0.1932  1.1895
   50MOL   H11315891   3.319   2.127   0.924  1.0589  1.6987 -1.6303
   50MOL   C11415892   3.203   2.309   0.942 -0.0678 -0.1351  0.0876
   50MOL   C11515893   3.149   2.410   1.041  0.2020 -0.4178 -0.4120
   50MOL   C11615894   3.236   2.470   1.135 -0.0818 -0.1759 -0.3047
   50MOL   C11715895   3.181   2.557   1.231 -0.9389 -0.2656  0.9548
   50MOL   C11815896   3.047   2.609   1.215 -0.2127 -0.0630 -0.5568
   50MOL  Cl11915897   2.987   2.731   1.320 -0.3451 -0.0128  0.1145
   50MOL   C12015898   2.965   2.561   1.112 -0.0732 -0.1149  0.5795
   50MOL   C12115899   3.011   2.457   1.027  0.5716  0.7665  0.6257
   50MOL   C12215900   3.292   2.381   0.838  0.4293  0.3558 -0.5262
   50MOL   H12315901   3.108   2.270   0.903 -0.0540 -0.2801  0.1959
   50MOL   H12415902   3.338   2.434   1.134 -0.5064 -1.6951  3.0932
   50MOL   H12515903   3.237   2.607   1.309 -1.4417  0.4998  0.8317
   50MOL   H12615904   2.863   2.595   1.111 -0.1071 -0.2426 -0.0643
   50MOL   H12715905   2.943   2.418   0.953  3.4873 -0.5739 -1.4075
   50MOL   H12815906   3.276   2.489   0.834 -0.9280  0.1659 -0.6619
   50MOL   H12915907   3.396   2.379   0.871  0.2695 -1.5875 -0.1243
   50MOL   C13015908   3.291   2.333   0.696  0.6918 -0.0530 -0.7684
   50MOL   C13115909   3.162   2.371   0.618  0.0827 -0.9662 -0.5432
   50MOL   C13215910   3.070   2.269   0.586  0.0560 -0.1395  0.4838
   50MOL   C13315911   2.952   2.299   0.512 -0.5515 -0.4240  0.2886
   50MOL   C13415912   2.934   2.428   0.460 -0.5532 -0.3707 -0.1675
   50MOL  Cl13515913   2.801   2.465   0.356 -0.0269  0.3365 -0.0745
   50MOL   C13615914   3.026   2.529   0.495  0.5677  0.3184  0.2404
   50MOL   C13715915   3.135   2.503   0.576 -0.0752  0.3159  0.5085
   50MOL   C13815916   3.418   2.358   0.612  0.3673  0.6993 -0.1565
   50MOL   H13915917   3.302   2.225   0.702  0.7933  0.0273  0.7123
   50MOL   H14015918   3.081   2.169   0.625  0.6262 -0.6920 -1.0341
   50MOL   H14115919   2.889   2.216   0.483 -3.1711  1.4326  0.5908
   50MOL   H14215920   3.010   2.633   0.470  0.3560 -0.1212 -1.5328
   50MOL   H14315921   3.203   2.584   0.597  0.0791  0.6939 -1.3762
   50MOL   H14415922   3.438   2.464   0.598  3.3414 -0.0919 -2.4253
   50MOL   H14515923   3.501   2.325   0.675 -0.0440 -0.8788 -0.4127
   50MOL   C14615924   3.414   2.291   0.473  0.6140 -0.0576 -0.1459
   50MOL   C14715925   3.445   2.395   0.368 -0.3712  0.4151 -0.0917
   50MOL   C14815926   3.334   2.444   0.300 -0.4909  0.2059 -0.0779
   50MOL   C14915927   3.351   2.546   0.203  0.2135  0.1103 -0.7849
   50MOL   C15015928   3.480   2.591   0.170  0.0590  0.3777 -0.2686
   50MOL  Cl15115929   3.509   2.692   0.032  0.0839 -0.1860  0.0600
   50MOL   C15215930   3.597   2.525   0.223 -0.3375 -0.0834 -0.4545
   50MOL   C15315931   3.576   2.424   0.327 -0.2575  0.2842 -0.1781
   50MOL   C15415932   3.505   2.174   0.447  0.2330  0.0438 -0.7139
   50MOL   H15515933   3.311   2.266   0.447  0.9268  1.4859 -3.0905
   50MOL   H15615934   3.233   2.417   0.327 -0.6650  0.8950 -0.0388
   50MOL   H15715935   3.270   2.599   0.155  0.5122  0.4292 -0.9413
   50MOL   H15815936   3.691   2.573   0.204  0.9747 -1.0414  3.1245
   50MOL   H15915937   3.655   2.377   0.384 -0.9097 -1.8593 -0.9841
   50MOL   H16015938   3.529   2.160   0.342  1.4223  1.6256 -0.6649
   50MOL   H16115939   3.607   2.198   0.477  0.9096 -3.1660 -0.1855
   50MOL   C16215940   3.466   2.037   0.523 -0.3972  0.2149  0.0452
   50MOL   C16315941   3.354   1.968   0.441  0.3840  0.0428 -0.0613
   50MOL   C16415942   3.371   1.939   0.305 -0.0328 -0.3201  0.5127
   50MOL   C16515943   3.264   1.877   0.240  0.0476 -0.6432 -0.4031
   50MOL   C16615944   3.137   1.859   0.308 -1.4909  0.1167  0.3600
   50MOL  Cl16715945   3.017   1.775   0.215  0.2866 -0.3092  0.0575
   50MOL   C16815946   3.118   1.900   0.440  0.0595  0.9719 -0.3113
   50MOL   C16915947   3.231   1.941   0.510  0.0372 -0.0106  0.3494
   50MOL   C17015948   3.582   1.929   0.538 -0.6070 -0.3270  0.0237
   50MOL   H17115949   3.435   2.074   0.620  1.7985  1.9224  0.1190
   50MOL   H17215950   3.468   1.945   0.258  0.7143 -1.6211  1.8571
   50MOL   H17315951   3.274   1.843   0.138 -1.1619  1.2884 -1.1801
   50MOL   H17415952   3.020   1.887   0.485  0.4287 -0.9269  0.0017
   50MOL   H17515953   3.219   1.982   0.609 -3.1973 -0.5728  0.2458
   50MOL   H17615954   3.595   1.857   0.457 -1.0491 -1.0933  0.6224
   50MOL   H17715955   3.674   1.987   0.547 -0.7147 -0.3947  1.9253
   50MOL   C17815956   3.570   1.834   0.667  0.2786  0.3685  0.8627
   50MOL   C17915957   3.447   1.747   0.665 -0.4189  0.0118  1.2727
   50MOL   C18015958   3.334   1.770   0.753  0.1169 -0.6675 -0.2115
   50MOL   C18115959   3.222   1.679   0.757 -0.0951 -0.8021 -0.0367
   50MOL   C18215960   3.234   1.563   0.680  0.4914  0.0250 -0.5481
   50MOL  Cl18315961   3.105   1.451   0.681  0.1949  0.0179  0.0552
   50MOL   C18415962   3.346   1.535   0.597 -0.2252 -0.2021  0.4724
   50MOL   C18515963   3.452   1.629   0.593  0.8155  1.1140  0.4963
   50MOL   C18615964   3.703   1.755   0.701 -0.3395 -0.4210 -0.0214
   50MOL   H18715965   3.547   1.896   0.754  0.7869  1.1345  0.4585
   50MOL   H18815966   3.334   1.863   0.809  1.4721 -0.1267 -1.0781
   50MOL   H18915967   3.133   1.703   0.812 -0.2344 -1.2869 -0.0458
   50MOL   H19015968   3.342   1.446   0.536  1.0717  0.4161 -0.5425
   50MOL   H19115969   3.540   1.608   0.535  0.4247  1.3939 -0.2055
   50MOL   H19215970   3.692   1.677   0.776  0.5378 -0.4696  0.0535
   50MOL   H19315971   3.745   1.705   0.614  0.6315 -2.6001  1.6567
   50MOL   C19415972   3.815   1.854   0.749 -0.0766  0.6126  0.0623
   50MOL   C19515973   3.776   1.946   0.862 -0.4487 -0.8697 -0.5849
   50MOL   C19615974   3.773   1.908   0.996 -0.1171 -1.0469  0.2634
   50MOL   C19715975   3.724   1.992   1.096  0.1465 -0.2647  0.6411
   50MOL   C19815976   3.685   2.119   1.066  0.2459  0.2456  0.5615
   50MOL  Cl19915977   3.644   2.232   1.189  0.0625  0.6084  0.0154
   50MOL   C20015978   3.698   2.159   0.937  0.0074  0.4339  0.7443
   50MOL   C20115979   3.739   2.076   0.833  0.5911  0.0722 -0.4502
   50MOL   C20215980   3.949   1.793   0.775 -0.9012  0.5664 -0.1044
   50MOL   H20315981   3.830   1.914   0.659  0.8128 -0.8070 -0.7497
   50MOL   H20415982   3.816   1.814   1.028  0.5467 -0.4215  1.2441
   50MOL   H20515983   3.710   1.966   1.200  2.1749  0.9829  1.2681
   50MOL   H20615984   3.668   2.260   0.911  0.8815  0.3378 -0.7187
   50MOL   H20715985   3.743   2.114   0.732  1.5114 -1.2938 -0.9370
   50MOL   H20815986   3.946   1.732   0.865 -1.3601 -0.6016 -0.8856
   50MOL   H20915987   3.976   1.725   0.694 -0.4914  1.0285 -0.3592
   50MOL   C21015988   4.054   1.901   0.825  0.0403 -0.2652  0.3510
   50MOL   C21115989   4.189   1.827   0.858 -0.1429  0.4245 -0.6471
   50MOL   C21215990   4.270   1.779   0.753 -0.4158 -0.2797  0.7161
   50MOL   C21315991   4.386   1.709   0.783  0.4031  0.5017  0.5869
   50MOL   C21415992   4.424   1.675   0.914  0.2813 -0.1382 -0.3583
   50MOL  Cl21515993   4.560   1.578   0.949 -0.2214  0.2132 -0.1390
   50MOL   C21615994   4.343   1.719   1.021 -0.1867 -0.6008 -0.2307
   50MOL   C21715995   4.227   1.797   0.994 -1.2937 -0.5675  0.2803
   50MOL   C21815996   4.076   2.022   0.724  0.0434  0.2607  0.1151
   50MOL   H21915997   4.012   1.940   0.917 -0.2910 -1.6609  0.8068
   50MOL   H22015998   4.245   1.800   0.650 -0.2340  0.3250  0.7922
   50MOL   H22115999   4.459   1.687   0.706  0.6540  1.5768  0.5135
   50MOL   H22216000   4.364   1.704   1.126  0.8638 -1.2017 -0.5187
   50MOL   H22316001   4.164   1.820   1.079 -1.2454 -1.7349  0.6335
   50MOL   H22416002   4.123   1.983   0.634  3.8662 -0.3001  2.2461
   50MOL   H22516003   3.985   2.065   0.683  0.5665  1.5725  0.3029
   50MOL   C22616004   4.158   2.141   0.779 -0.7486  0.5483 -0.2115
   50MOL   C22716005   4.214   2.226   0.671 -0.1308  0.0359  0.3063
   50MOL   C22816006   4.352   2.222   0.643  0.3056  0.5053  0.1310
   50MOL   C22916007   4.408   2.301   0.539  0.4789  0.0137  0.3423
   50MOL   C23016008   4.329   2.367   0.445  0.5698 -0.1593  0.3500
   50MOL  Cl23116009   4.391   2.460   0.313 -0.3331 -0.1551  0.3169
   50MOL   C23216010   4.184   2.369   0.471  0.5787  0.2678 -0.2754
   50MOL   C23316011   4.131   2.291   0.577  0.1418 -0.7377  0.2087
   50MOL   C23416012   4.082   2.233   0.880 -0.1335 -0.0149 -0.3429
   50MOL   H23516013   4.242   2.099   0.835 -0.7699  0.8882  0.0806
   50MOL   H23616014   4.418   2.165   0.705  0.7593  1.7570  0.8093
   50MOL   H23716015   4.515   2.314   0.529  0.7190 -2.4401 -0.4178
   50MOL   H23816016   4.121   2.429   0.407 -0.7377  1.6422  2.2544
   50MOL   H23916017   4.023   2.288   0.584  0.0253  0.5235 -0.9846
   50MOL   H24016018   3.988   2.258   0.832 -0.8261  0.2944  1.1220
   50MOL   H24116019   4.062   2.164   0.962  2.3722  1.6238  1.7488
   50MOL   C24216020   4.141   2.372   0.912 -0.6040 -0.8986  0.3331
   50MOL   C24316021   4.050   2.471   0.975  0.3029  0.1946  0.3261
   50MOL   C24416022   3.964   2.427   1.083  0.5430 -0.1766 -0.0706
   50MOL   C24516023   3.885   2.518   1.152  0.6115  0.8327  0.3054
   50MOL   C24616024   3.897   2.662   1.132 -0.2340  0.2184  0.5429
   50MOL  Cl24716025   3.805   2.785   1.203 -0.3045  0.0400  0.0997
   50MOL   C24816026   3.988   2.705   1.034 -0.2900  0.6629 -0.1756
   50MOL   C24916027   4.061   2.608   0.957  0.5988 -0.1478 -0.2254
   50MOL   C25016028   4.269   2.365   0.991  0.2196  0.6462 -0.0702
   50MOL   H25116029   4.178   2.413   0.818  0.6519  2.9444  2.4250
   50MOL   H25216030   3.958   2.325   1.118 -0.2894 -0.0883  0.0448
   50MOL   H25316031   3.814   2.492   1.228  3.1806 -2.0481  1.8176
   50MOL   H25416032   4.000   2.809   1.009 -1.7473  0.8071 -0.3320
   50MOL   H25516033   4.126   2.645   0.879 -0.2325  2.2141  0.1461
   50MOL   H25616034   4.257   2.429   1.079 -2.1722  1.5471 -1.0075
   50MOL   H25716035   4.268   2.261   1.023  0.2919  0.8486  0.5920
   50MOL   C25816036   4.411   2.407   0.941 -0.0421  0.5618 -0.4116
   50MOL   C25916037   4.402   2.550   0.892 -0.2498  0.1901  0.0576
   50MOL   C26016038   4.418   2.660   0.979 -0.2136 -0.3960 -0.3472
   50MOL   C26116039   4.400   2.790   0.925  0.1863 -0.4691  0.1390
   50MOL   C26216040   4.363   2.815   0.791 -0.1564 -0.2075  0.2679
   50MOL  Cl26316041   4.340   2.975   0.737 -0.0742 -0.3203 -0.6490
   50MOL   C26416042   4.357   2.703   0.702  0.8715 -0.0264  0.2066
   50MOL   C26516043   4.380   2.572   0.755  0.8019  0.3329 -0.2121
   50MOL   C26616044   4.520   2.388   1.044 -0.6994 -0.2408 -0.1310
   50MOL   H26716045   4.442   2.352   0.852 -0.0526 -0.2916  0.1130
   50MOL   H26816046   4.455   2.647   1.080 -0.6349  0.2574 -0.1072
   50MOL   H26916047   4.422   2.878   0.984  3.4943 -0.7954 -0.4876
   50MOL   H27016048   4.338   2.726   0.598 -0.9875  0.1812  0.5726
   50MOL   H27116049   4.357   2.491   0.686  0.1870  0.3777 -0.0624
   50MOL   H27216050   4.615   2.435   1.015  0.7036 -2.1448  1.2291
   50MOL   H27316051   4.492   2.450   1.129 -0.7415 -0.1519 -0.2091
   50MOL   C27416052   4.543   2.236   1.074 -0.7891  0.5024  0.4802
   50MOL   C27516053   4.616   2.149   0.969 -0.3756  0.0441  0.2716
   50MOL   C27616054   4.756   2.180   0.943  1.6320 -1.1204  0.3271
   50MOL   C27716055   4.835   2.087   0.883 -0.0967 -0.2386  0.5046
   50MOL   C27816056   4.786   1.973   0.822  0.7096  0.7694 -0.1440
   50MOL  Cl27916057   4.882   1.875   0.724  0.1232 -0.0286 -0.3417
   50MOL   C28016058   4.649   1.943   0.839 -0.0592 -0.9671 -0.2437
   50MOL   C28116059   4.562   2.026   0.921  0.2305  0.0858 -0.5728
   50MOL   C28216060   4.596   2.215   1.216  0.7604  0.9437  0.4716
   50MOL   H28316061   4.443   2.193   1.080 -0.1607 -1.4183 -2.0876
   50MOL   H28416062   4.796   2.274   0.975 -0.7950 -0.3376  1.2005
   50MOL   H28516063   4.939   2.099   0.860 -0.6460 -1.8584 -3.2412
   50MOL   H28616064   4.616   1.849   0.799  2.1178 -1.6759 -0.4262
   50MOL   H28716065   4.461   2.001   0.948  1.0388  0.0993  2.6681
   50MOL   H28816066   4.626   2.111   1.226  1.1173  1.1212  1.2823
   50MOL   H28916067   4.685   2.276   1.234  1.2001  0.8479 -1.2919
   50MOL   C29016068   4.494   2.238   1.336 -0.2179  0.0334 -0.1347
   50MOL   C29116069   4.389   2.129   1.348  0.0280  0.0374  0.4091
   50MOL   C29216070   4.413   1.990   1.377 -0.4185 -0.2122  0.8272
   50MOL   C29316071   4.304   1.902   1.374 -0.1277  0.1563 -0.4547
   50MOL   C29416072   4.174   1.947   1.347  0.0336  0.2630  0.9614
   50MOL  Cl29516073   4.044   1.835   1.321 -0.3182  0.0331  0.1541
   50MOL   C29616074   4.149   2.083   1.321 -0.4090 -0.2541 -0.5170
   50MOL   C29716075   4.256   2.171   1.322 -0.5279  0.3657 -0.0238
   50MOL   C29816076   4.564   2.255   1.472  0.2175 -0.3790 -0.3919
   50MOL   H29916077   4.437   2.330   1.323  3.2156  2.1206 -1.0585
   50MOL   H30016078   4.510   1.950   1.403 -0.7817 -0.3980  1.9468
   50MOL   H30116079   4.326   1.798   1.388 -1.0852 -0.2956 -2.1417
   50MOL   H30216080   4.051   2.118   1.294  0.1231  0.9617 -0.8873
   50MOL   H30316081   4.231   2.272   1.293  0.1263  0.1781 -1.2539
   50MOL   H30416082   4.493   2.229   1.551  1.6075 -1.5643  0.4859
   50MOL   H30516083   4.642   2.179   1.477 -2.5125 -3.2086  1.1822
   50MOL   C30616084   4.632   2.392   1.503 -0.2509 -0.8467 -0.1020
   50MOL   C30716085   4.526   2.508   1.484  0.6785 -0.2783 -0.1191
   50MOL   C30816086   4.399   2.503   1.545 -0.2027  0.2895  0.1729
   50MOL   C30916087   4.291   2.591   1.506  0.0418  0.4099 -0.4703
   50MOL   C31016088   4.326   2.698   1.419 -0.3433  0.4890  0.1827
   50MOL  Cl31116089   4.201   2.809   1.373 -0.0601  0.0948  0.2083
   50MOL   C31216090   4.455   2.711   1.367 -0.4244  0.3470  0.0572
   50MOL   C31316091   4.552   2.612   1.394  0.9675 -0.0551 -1.1405
   50MOL   C31416092   4.681   2.398   1.644  0.5717  0.5198  0.3423
   50MOL   H31516093   4.711   2.407   1.430 -1.3842 -1.0274 -1.3957
   50MOL   H31616094   4.374   2.430   1.620  0.0686  0.2123  0.1866
   50MOL   H31716095   4.192   2.573   1.547  0.6062  0.6163  1.0046
   50MOL   H31816096   4.476   2.790   1.297  1.0104  1.7664  2.0126
   50MOL   H31916097   4.652   2.622   1.354  1.5499  0.4304  0.3973
   50MOL   H32016098   4.749   2.315   1.666  0.1891  0.0270 -0.3453
   50MOL   H32116099   4.746   2.486   1.646  2.0289 -0.5343  0.6107
   50MOL   H32216100   4.602   2.410   1.718  0.9262 -1.0664  1.0059
   51MOL     C116101   1.040   4.567   8.405  0.2090  0.3858 -0.6262
   51MOL     C216102   1.172   4.633   8.354 -0.4186 -0.2484  0.7930
   51MOL     C316103   1.199   4.761   8.401  0.1035  0.0795 -0.5364
   51MOL     C416104   1.316   4.825   8.357 -0.4942  0.8511 -0.1360
   51MOL     C516105   1.415   4.755   8.280  0.0639 -0.0348 -0.7432
   51MOL    Cl616106   1.549   4.852   8.209 -0.4693  0.0975  0.5066
   51MOL     C716107   1.399   4.620   8.259  0.5259  0.4647  0.3693
   51MOL     C816108   1.272   4.560   8.286 -0.8169  0.4486  0.2860
   51MOL     C916109   0.923   4.568   8.292 -0.3638  0.1639 -0.6760
   51MOL    H1016110   1.003   4.630   0.042 -2.9014  2.0627 -3.2701
   51MOL    H1116111   1.122   4.818   0.006 -0.5871 -0.0937 -1.4223
   51MOL    H1216112   1.325   4.931   8.374  2.4073  1.1114 -2.8691
   51MOL    H1316113   1.477   4.568   8.206 -2.1142 -2.0165 -1.1902
   51MOL    H1416114   1.237   4.465   8.250 -1.4888  0.0033  2.0384
   51MOL    H1516115   0.946   4.492   8.216  0.7012 -0.5293  0.3188
   51MOL    H1616116   0.831   4.530   8.337  1.8160 -2.6843  1.6211
   51MOL    H1716117   1.056   4.470   0.009  0.1893  0.4836 -0.4185
   51MOL    C1816118   0.908   4.702   8.212  0.1613  0.1899 -0.3800
   51MOL    C1916119   0.817   4.676   8.090 -1.2945 -0.0705  0.2007
   51MOL    C2016120   0.678   4.651   8.098  0.3242  0.6937 -0.0744
   51MOL    C2116121   0.603   4.623   7.979 -0.2109  0.3810  0.2921
   51MOL    C2216122   0.667   4.618   7.858  0.0981 -0.2823 -0.0463
   51MOL   Cl2316123   0.577   4.580   7.714  0.0545  0.0907 -0.4655
   51MOL    C2416124   0.801   4.643   7.851 -0.4502  0.2202 -0.1520
   51MOL    C2516125   0.878   4.671   7.964 -0.0558  0.2625  0.3747
   51MOL    C2616126   0.848   4.808   8.303 -0.1709  0.0890  0.3520
   51MOL    H2716127   1.003   4.739   8.173 -0.1986  2.5474  0.9241
   51MOL    H2816128   0.619   4.640   8.187 -0.3847 -0.5578 -0.6737
   51MOL    H2916129   0.499   4.594   7.982  0.3590 -1.7935 -0.3009
   51MOL    H3016130   0.855   4.622   7.759  1.2011 -1.3929  1.1301
   51MOL    H3116131   0.984   4.683   7.951  0.1339  0.2274  1.7520
   51MOL    H3216132   0.747   4.774   8.324  0.4318 -1.1963  1.3141
   51MOL    H3316133   0.901   4.810   8.399 -1.6182 -1.5280  1.2211
   51MOL    C3416134   0.849   4.954   8.243  0.5530  0.4761  0.4381
   51MOL    C3516135   0.739   5.030   8.318  0.2258 -0.4621  0.9492
   51MOL    C3616136   0.746   5.055   0.017 -0.0249  0.6935  0.6599
   51MOL    C3716137   0.640   5.121   0.076 -0.4034 -0.1924 -0.2744
   51MOL    C3816138   0.522   5.163   0.007 -0.1438 -0.3094  0.2831
   51MOL   Cl3916139   0.386   5.235   0.091  0.0103 -0.3633 -0.0177
   51MOL    C4016140   0.525   5.149   8.312  0.5422 -0.4747 -0.3412
   51MOL    C4116141   0.631   5.077   8.245  0.4469  0.2396 -0.5904
   51MOL    C4216142   0.986   5.018   8.239  0.0679 -0.9406  0.4632
   51MOL    H4316143   0.813   4.937   8.141  0.3376 -1.2947  0.7895
   51MOL    H4416144   0.824   5.011   0.077  1.3097  0.0555 -1.4782
   51MOL    H4516145   0.639   5.142   0.182 -0.5197 -1.2234 -0.0710
   51MOL    H4616146   0.445   5.203   8.263  0.9321  0.1475 -0.2946
   51MOL    H4716147   0.637   5.067   8.138  0.5692  0.7285 -0.6328
   51MOL    H4816148   1.007   5.048   8.341 -0.6280 -1.9527  0.9080
   51MOL    H4916149   1.055   4.938   8.215 -0.2812 -1.2588  0.5203
   51MOL    C5016150   0.992   5.139   8.139 -0.1902 -0.5178 -0.1021
   51MOL    C5116151   0.919   5.253   8.198  0.0340 -0.3048  0.2515
   51MOL    C5216152   0.802   5.309   8.134  0.3158 -0.0985 -0.0733
   51MOL    C5316153   0.722   5.409   8.197 -0.3460 -0.0185 -0.4990
   51MOL    C5416154   0.760   5.459   8.328  0.1074  0.5952  0.2958
   51MOL   Cl5516155   0.652   5.560   8.422  0.4164 -0.3276  0.2182
   51MOL    C5616156   0.879   5.413   8.385 -0.1753  0.4920 -0.4743
   51MOL    C5716157   0.956   5.312   8.323  0.6685 -0.5922  0.2805
   51MOL    C5816158   1.143   5.169   8.109 -0.6874 -0.0464  0.6154
   51MOL    H5916159   0.946   5.094   8.051  0.5159 -0.7410 -0.3646
   51MOL    H6016160   0.777   5.260   8.042  1.3612  0.7055 -0.8036
   51MOL    H6116161   0.643   5.446   8.133 -1.3876 -1.9799 -0.3772
   51MOL    H6216162   0.917   5.453   0.035 -1.2446 -0.7928  0.5341
   51MOL    H6316163   1.046   5.286   8.377  1.2365 -2.6849 -1.5658
   51MOL    H6416164   1.159   5.267   8.064 -0.5329 -1.9152 -3.5458
   51MOL    H6516165   1.198   5.184   8.202 -0.5794 -2.2409  0.9288
   51MOL    C6616166   1.212   5.062   8.019  0.5839 -0.0700 -0.5985
   51MOL    C6716167   1.144   5.048   7.891  0.0847  0.1493  0.4291
   51MOL    C6816168   1.134   4.913   7.838  0.2107  0.2505 -0.2843
   51MOL    C6916169   1.078   4.889   7.715 -0.5316 -0.0553  0.5425
   51MOL    C7016170   1.031   4.995   7.637  0.4035 -0.2263 -0.0147
   51MOL   Cl7116171   0.925   4.970   7.503 -0.0947 -0.4844 -0.0248
   51MOL    C7216172   1.029   5.129   7.696 -0.1023 -0.4556 -0.2949
   51MOL    C7316173   1.090   5.158   7.816 -0.0470  0.5263 -1.0727
   51MOL    C7416174   1.361   5.063   8.011  0.1059  1.0093 -0.0346
   51MOL    H7516175   1.190   4.970   8.073 -0.7364 -0.6397 -2.0531
   51MOL    H7616176   1.173   4.830   7.895 -0.0642  1.2996  1.4961
   51MOL    H7716177   1.058   4.787   7.687 -0.5256  0.3584 -1.0154
   51MOL    H7816178   0.990   5.217   7.645  0.4463 -0.0714 -0.0531
   51MOL    H7916179   1.109   5.258   7.853  2.0869 -0.7661  1.5027
   51MOL    H8016180   1.405   5.059   8.110 -1.1776 -1.5281  0.4793
   51MOL    H8116181   1.390   4.965   7.972 -2.1536 -0.1132  0.9970
   51MOL    C8216182   1.427   5.170   7.921 -0.6040  0.3809 -0.7866
   51MOL    C8316183   1.401   5.309   7.971 -0.2513  0.0749 -0.3481
   51MOL    C8416184   1.464   5.354   8.089 -0.3968  0.3885 -1.3317
   51MOL    C8516185   1.443   5.490   8.126 -0.3748 -0.0493  0.0637
   51MOL    C8616186   1.378   5.576   8.039  0.5066 -0.3708  0.0707
   51MOL   Cl8716187   1.337   5.734   8.082  0.2937 -0.0751 -0.0830
   51MOL    C8816188   1.329   5.536   7.912  0.4512 -0.8130 -0.2933
   51MOL    C8916189   1.336   5.398   7.880  0.1743  0.2510  0.2446
   51MOL    C9016190   1.578   5.138   7.908 -0.0144 -0.4157 -0.1931
   51MOL    H9116191   1.365   5.155   7.832 -1.8845 -0.8013  0.2678
   51MOL    H9216192   1.528   5.286   8.143 -1.6303  1.0529  1.0221
   51MOL    H9316193   1.502   5.525   8.209  0.6672 -2.2665  0.3056
   51MOL    H9416194   1.269   5.604   7.853 -1.2670 -3.3937 -1.6150
   51MOL    H9516195   1.291   5.357   7.792  1.1576  2.3221 -1.2663
   51MOL    H9616196   1.614   5.122   8.010  1.3998 -1.0812 -0.7864
   51MOL    H9716197   1.588   5.040   7.862 -0.8804  0.2490 -1.8124
   51MOL    C9816198   1.669   5.237   7.831 -0.2218  0.1895  0.3508
   51MOL    C9916199   1.789   5.268   7.925 -0.1912 -0.5573 -0.1562
   51MOL   C10016200   1.819   5.400   7.959 -0.0290  0.2884 -0.1332
   51MOL   C10116201   1.928   5.432   8.039 -0.3570  0.2131  0.0097
   51MOL   C10216202   2.015   5.332   8.085  0.8263 -0.0823 -0.3110
   51MOL  Cl10316203   2.165   5.365   8.179  0.4193  0.1098 -0.2641
   51MOL   C10416204   1.988   5.191   8.054 -0.6039 -0.1419  0.0183
   51MOL   C10516205   1.870   5.164   7.969  0.3509  0.0046 -0.4052
   51MOL   C10616206   1.719   5.188   7.693 -0.7465  0.7026 -0.0077
   51MOL   H10716207   1.621   5.335   7.821  1.2758  0.8099 -0.8717
   51MOL   H10816208   1.755   5.485   7.937 -0.3818  0.2068  0.5373
   51MOL   H10916209   1.957   5.532   8.066  1.3751 -0.3626  0.3704
   51MOL   H11016210   2.059   5.118   8.090  1.5830  1.2427 -1.3836
   51MOL   H11116211   1.848   5.063   7.938 -1.9339  0.2997  0.2057
   51MOL   H11216212   1.788   5.264   7.655  0.5106 -0.9313 -1.0739
   51MOL   H11316213   1.773   5.095   7.705 -0.5309  0.7308 -0.7119
   51MOL   C11416214   1.611   5.174   7.581 -0.5342 -0.1928 -0.4693
   51MOL   C11516215   1.525   5.297   7.554  0.3202  0.1574  0.0772
   51MOL   C11616216   1.588   5.419   7.539  0.4160 -0.1596  0.2060
   51MOL   C11716217   1.523   5.537   7.496 -0.3849  0.2863 -0.0333
   51MOL   C11816218   1.389   5.525   7.458  0.7533 -0.7191 -0.7996
   51MOL  Cl11916219   1.320   5.659   7.378  0.0215 -0.2447  0.3456
   51MOL   C12016220   1.319   5.401   7.475  0.0092 -0.3357  0.0715
   51MOL   C12116221   1.391   5.283   7.514  1.0363 -0.0807  1.1434
   51MOL   C12216222   1.659   5.106   7.447  0.4464  0.3815 -0.2434
   51MOL   H12316223   1.529   5.110   7.613  0.4602 -0.4955  1.6028
   51MOL   H12416224   1.695   5.417   7.548  0.3293  1.5046  1.9135
   51MOL   H12516225   1.582   5.626   7.482 -1.5715  0.8931 -1.2279
   51MOL   H12616226   1.217   5.394   7.443 -0.0044  0.6972 -0.1540
   51MOL   H12716227   1.334   5.192   7.525 -1.1240  0.9264 -1.4097
   51MOL   H12816228   1.573   5.100   7.379 -0.4220  2.5861  0.5891
   51MOL   H12916229   1.745   5.154   7.400  0.3741 -0.6996 -1.5081
   51MOL   C13016230   1.703   4.968   7.464  0.0535 -0.0155 -0.2255
   51MOL   C13116231   1.592   4.872   7.522 -0.0459 -0.9287 -0.3506
   51MOL   C13216232   1.477   4.841   7.453 -0.6486 -0.3558  0.2871
   51MOL   C13316233   1.379   4.752   7.513  0.5286 -0.0105 -0.0449
   51MOL   C13416234   1.395   4.711   7.646 -0.3346 -0.4434  0.4727
   51MOL  Cl13516235   1.274   4.609   7.722  0.2808  0.1536 -0.0672
   51MOL   C13616236   1.509   4.748   7.717  0.0034 -0.6708 -0.2279
   51MOL   C13716237   1.603   4.836   7.655  0.0853 -0.3183 -0.7512
   51MOL   C13816238   1.763   4.922   7.326 -0.2942 -0.4849  0.3890
   51MOL   H13916239   1.786   4.967   7.534 -0.2496 -1.1914  0.1293
   51MOL   H14016240   1.489   4.854   7.347  0.9262  1.0455  0.6147
   51MOL   H14116241   1.301   4.705   7.455  0.5710  0.9094 -0.8641
   51MOL   H14216242   1.526   4.728   7.821  2.5696  2.0763 -0.0452
   51MOL   H14316243   1.697   4.866   7.700  0.4037 -1.3578 -0.7091
   51MOL   H14416244   1.679   4.910   7.257 -0.3434  2.0763 -0.0188
   51MOL   H14516245   1.821   5.001   7.277 -2.1742  1.1326  0.7304
   51MOL   C14616246   1.845   4.788   7.337  0.1195  0.6798  0.9757
   51MOL   C14716247   1.853   4.724   7.196 -0.3545  0.2143  0.0401
   51MOL   C14816248   1.749   4.637   7.151  0.3544 -1.0647  0.8731
   51MOL   C14916249   1.747   4.578   7.022 -0.8915 -0.5004  0.3855
   51MOL   C15016250   1.854   4.606   6.933 -0.7425 -0.2561  0.0925
   51MOL  Cl15116251   1.851   4.540   6.766  0.0630 -0.4975  0.5650
   51MOL   C15216252   1.969   4.675   6.980  0.4604 -0.2163  0.6621
   51MOL   C15316253   1.961   4.744   7.105 -0.1508 -0.1727  0.0382
   51MOL   C15416254   1.972   4.805   7.414 -0.0368  0.6945  0.3244
   51MOL   H15516255   1.785   4.713   7.390 -0.6328 -0.6825 -1.7184
   51MOL   H15616256   1.662   4.625   7.214  0.6646  4.0319  2.4872
   51MOL   H15716257   1.677   4.510   6.977 -1.6648  0.9328 -0.6198
   51MOL   H15816258   2.054   4.699   6.917  0.8478  0.5185  1.4662
   51MOL   H15916259   2.032   4.822   7.130 -1.1824  1.4556 -2.0073
   51MOL   H16016260   2.017   4.894   7.371 -2.8142  2.8935  1.7591
   51MOL   H16116261   1.952   4.842   7.515  0.0597 -0.2613  0.7022
   51MOL   C16216262   2.080   4.692   7.425  0.2144 -0.0069 -0.6212
   51MOL   C16316263   2.224   4.753   7.439 -0.2235  0.0753 -0.6033
   51MOL   C16416264   2.281   4.784   7.565  0.3525 -0.0352 -0.2676
   51MOL   C16516265   2.408   4.846   7.575 -0.5463  0.3780  0.3270
   51MOL   C16616266   2.473   4.883   7.455 -0.2035 -0.8164 -0.2590
   51MOL  Cl16716267   2.627   4.952   7.470 -0.4738 -0.0973  0.0764
   51MOL   C16816268   2.423   4.837   7.333 -0.0605 -0.6080 -0.5418
   51MOL   C16916269   2.295   4.782   7.324 -0.7509 -0.2456  0.0054
   51MOL   C17016270   2.044   4.595   7.550  0.3018 -0.8247 -0.1088
   51MOL   H17116271   2.081   4.645   7.327 -2.3220 -1.0896 -0.1668
   51MOL   H17216272   2.232   4.753   7.656  2.3879 -0.0248  0.8572
   51MOL   H17316273   2.445   4.873   7.673 -0.3203  1.5606 -0.0725
   51MOL   H17416274   2.477   4.860   7.242 -1.9792 -0.3407 -1.6194
   51MOL   H17516275   2.253   4.758   7.228  1.3852  0.0101 -1.0196
   51MOL   H17616276   2.130   4.549   7.598 -0.0355 -2.1050 -0.7004
   51MOL   H17716277   1.993   4.649   7.629 -1.1031 -0.6445 -1.1169
   51MOL   C17816278   1.945   4.483   7.506  0.5417 -0.5364 -0.4766
   51MOL   C17916279   2.017   4.360   7.467  0.8139 -0.0517  0.3186
   51MOL   C18016280   2.095   4.286   7.561 -0.1132  0.1753 -0.3775
   51MOL   C18116281   2.187   4.185   7.521  0.1405 -0.0793  0.1364
   51MOL   C18216282   2.197   4.151   7.386  0.6173  0.1644  1.0768
   51MOL  Cl18316283   2.310   4.032   7.348 -0.1922 -0.2149 -0.2028
   51MOL   C18416284   2.115   4.215   7.290 -0.4440  0.3165 -0.3879
   51MOL   C18516285   2.025   4.315   7.331  0.2264  0.1090 -0.7654
   51MOL   C18616286   1.850   4.456   7.632 -0.2465 -0.5760  0.1529
   51MOL   H18716287   1.883   4.523   7.426  1.7737 -1.6584 -2.0159
   51MOL   H18816288   2.078   4.297   7.668 -2.3327  0.1878 -0.6970
   51MOL   H18916289   2.246   4.123   7.587  1.8235  0.2839 -0.9773
   51MOL   H19016290   2.134   4.188   7.187 -0.4195  0.5407 -0.4431
   51MOL   H19116291   1.970   4.368   7.254 -0.5647 -0.7571 -0.8021
   51MOL   H19216292   1.912   4.434   7.719 -1.6788 -1.1487  1.0419
   51MOL   H19316293   1.806   4.552   7.661  1.7675  0.7627 -1.1006
   51MOL   C19416294   1.738   4.353   7.608 -0.5444  0.2577 -0.3433
   51MOL   C19516295   1.666   4.317   7.733  0.2742  0.5715  0.6107
   51MOL   C19616296   1.569   4.405   7.794  0.0609 -0.1318  0.6657
   51MOL   C19716297   1.492   4.373   7.905  0.4407  0.0768  0.5265
   51MOL   C19816298   1.516   4.247   7.967 -0.2845 -1.0140 -0.0761
   51MOL  Cl19916299   1.419   4.207   8.102  0.6510 -0.2440  0.3823
   51MOL   C20016300   1.609   4.152   7.911  0.2439  0.6748  0.3740
   51MOL   C20116301   1.687   4.195   7.795 -0.4739  0.5131 -0.3555
   51MOL   C20216302   1.645   4.401   7.494  0.2263 -0.5062  0.1294
   51MOL   H20316303   1.775   4.262   7.562 -0.1954 -0.2514  0.9204
   51MOL   H20416304   1.555   4.500   7.744  0.1441 -0.1014  0.7000
   51MOL   H20516305   1.426   4.448   7.947  1.2075 -0.0947  2.0749
   51MOL   H20616306   1.616   4.058   7.964 -1.7390 -0.0711 -0.6394
   51MOL   H20716307   1.760   4.131   7.749 -1.8536 -0.7911 -0.7799
   51MOL   H20816308   1.625   4.508   7.508 -0.3651 -0.5451 -0.3918
   51MOL   H20916309   1.703   4.397   7.401 -1.9640 -0.4182 -1.2671
   51MOL   C21016310   1.502   4.332   7.486 -0.1951 -0.5629  0.0634
   51MOL   C21116311   1.422   4.402   7.373 -0.5476 -0.0703 -0.1594
   51MOL   C21216312   1.294   4.453   7.396  0.2956  0.0416 -0.2353
   51MOL   C21316313   1.222   4.514   7.291 -0.5059 -0.1661 -0.6082
   51MOL   C21416314   1.272   4.525   7.164 -0.1458  0.2298  0.3035
   51MOL  Cl21516315   1.186   4.610   7.042 -0.1551  0.0123  0.2488
   51MOL   C21616316   1.402   4.476   7.133 -0.1924 -0.0558  0.6403
   51MOL   C21716317   1.473   4.412   7.239 -0.7199 -0.1150 -0.3948
   51MOL   C21816318   1.503   4.187   7.478  0.4045  0.5759 -0.7353
   51MOL   H21916319   1.456   4.367   7.578 -1.5254 -0.7923 -0.5012
   51MOL   H22016320   1.252   4.438   7.495 -0.6298  1.9228 -0.3268
   51MOL   H22116321   1.133   4.574   7.303 -0.4174 -0.4820  1.9305
   51MOL   H22216322   1.443   4.478   7.034 -1.9162 -0.4006 -0.1016
   51MOL   H22316323   1.566   4.361   7.220 -0.7241  1.0605 -3.8151
   51MOL   H22416324   1.559   4.152   7.391  0.2951  1.1696 -1.0496
   51MOL   H22516325   1.566   4.158   7.562 -1.6785  0.4264  0.8267
   51MOL   C22616326   1.375   4.106   7.483  0.7470 -0.2775  0.6184
   51MOL   C22716327   1.408   3.958   7.454 -0.1764  0.1477 -0.1122
   51MOL   C22816328   1.455   3.869   7.555  0.3277 -0.2867  0.2702
   51MOL   C22916329   1.490   3.737   7.527  0.1152 -0.2432  0.3585
   51MOL   C23016330   1.482   3.691   7.396 -0.0313  0.5553 -0.1749
   51MOL  Cl23116331   1.541   3.531   7.368  0.5634  0.5057  0.0011
   51MOL   C23216332   1.428   3.776   7.291 -0.7969  0.5968 -0.0999
   51MOL   C23316333   1.387   3.906   7.329  0.4765  0.2458 -0.0675
   51MOL   C23416334   1.293   4.122   7.613  0.3548 -0.5208  0.1685
   51MOL   H23516335   1.321   4.145   7.396 -0.7643 -1.3796  1.0625
   51MOL   H23616336   1.478   3.904   7.654 -2.0729 -0.1326  0.7847
   51MOL   H23716337   1.534   3.668   7.597  0.0001 -2.7328 -1.8938
   51MOL   H23816338   1.410   3.749   7.187 -1.1268 -1.7386  0.5264
   51MOL   H23916339   1.340   3.961   7.249 -0.2145 -0.4997 -0.1858
   51MOL   H24016340   1.338   4.065   7.693  0.5042  1.8694  1.8509
   51MOL   H24116341   1.302   4.225   7.647 -2.9255 -0.5704  1.3472
   51MOL   C24216342   1.142   4.095   7.617 -0.5807 -0.6065 -0.0735
   51MOL   C24316343   1.099   4.128   7.759 -0.4343 -0.0479 -0.1076
   51MOL   C24416344   1.079   4.266   7.784  0.1913  0.0357 -0.2778
   51MOL   C24516345   1.053   4.305   7.915  0.8411 -0.7458 -0.6730
   51MOL   C24616346   1.029   4.209   8.023 -1.0683  0.3844 -0.1314
   51MOL  Cl24716347   0.996   4.256   8.184 -0.0669 -0.0770  0.0343
   51MOL   C24816348   1.043   4.072   7.989  0.2173  0.4999  0.3800
   51MOL   C24916349   1.075   4.033   7.857 -0.0691  0.4816  0.2732
   51MOL   C25016350   1.071   4.171   7.507 -0.0801  0.0081 -0.4980
   51MOL   H25116351   1.128   3.989   7.595  0.1437 -0.4901 -1.1030
   51MOL   H25216352   1.103   4.340   7.710 -1.5687  0.9854  0.0869
   51MOL   H25316353   1.049   4.410   7.941  0.0179 -1.0928  0.6825
   51MOL   H25416354   1.028   3.999   8.067  2.7694  1.4198  1.7696
   51MOL   H25516355   1.092   3.936   7.811  2.2740  0.3749  1.2756
   51MOL   H25616356   1.120   4.267   7.522  1.0086 -0.6384  0.1038
   51MOL   H25716357   1.109   4.127   7.414 -1.8981 -2.1710 -0.2447
   51MOL   C25816358   0.915   4.193   7.516 -0.2013 -0.1855  0.0494
   51MOL   C25916359   0.885   4.310   7.429 -0.3237 -0.0538  1.0764
   51MOL   C26016360   0.915   4.315   7.290  0.1984  0.2552  0.0978
   51MOL   C26116361   0.903   4.438   7.221 -0.4896 -0.1588 -0.6843
   51MOL   C26216362   0.851   4.553   7.286  0.1680  0.0214 -0.5414
   51MOL  Cl26316363   0.842   4.701   7.202  0.0449  0.2655 -0.3451
   51MOL   C26416364   0.815   4.548   7.423 -0.3737 -0.1835 -0.1834
   51MOL   C26516365   0.834   4.428   7.492  0.1350  0.0280  0.6572
   51MOL   C26616366   0.836   4.069   7.469 -0.4057  0.0499  0.0179
   51MOL   H26716367   0.900   4.221   7.620 -0.4441 -0.9948  0.2373
   51MOL   H26816368   0.950   4.226   7.239  2.3820  1.9284 -1.4080
   51MOL   H26916369   0.932   4.435   7.117 -0.9763  0.9198 -0.8505
   51MOL   H27016370   0.778   4.627   7.486 -1.3014 -1.5867  1.0580
   51MOL   H27116371   0.808   4.427   7.596 -1.8693  0.3230  0.1651
   51MOL   H27216372   0.764   4.102   7.393 -1.7001  2.8798  2.3802
   51MOL   H27316373   0.905   4.003   7.416  0.8236  2.5371 -1.5565
   51MOL   C27416374   0.766   3.982   7.576 -0.0118 -0.3465  0.2568
   51MOL   C27516375   0.674   4.059   7.667 -0.0420 -0.3845  1.0384
   51MOL   C27616376   0.681   4.051   7.805 -0.0589  0.0132  0.5716
   51MOL   C27716377   0.592   4.119   7.886 -0.5102 -0.3476 -0.1459
   51MOL   C27816378   0.494   4.208   7.829  0.0511  0.2619 -0.5323
   51MOL  Cl27916379   0.382   4.313   7.917 -0.2459  0.1815 -0.2132
   51MOL   C28016380   0.482   4.210   7.690 -0.2217 -0.0301  0.2126
   51MOL   C28116381   0.571   4.137   7.610  0.0287 -0.4864  0.0714
   51MOL   C28216382   0.701   3.844   7.533  0.6141  0.0751 -0.3367
   51MOL   H28316383   0.848   3.952   7.642  0.2676  0.7503  0.4263
   51MOL   H28416384   0.763   3.989   7.838  0.6606  1.2095  1.0771
   51MOL   H28516385   0.587   4.104   7.993 -1.2746 -0.4089 -0.1918
   51MOL   H28616386   0.399   4.261   7.642 -1.6725 -1.1448  1.4777
   51MOL   H28716387   0.549   4.146   7.505 -2.5258 -0.3188  0.6005
   51MOL   H28816388   0.671   3.812   7.632 -0.2013 -0.4110 -0.7365
   51MOL   H28916389   0.607   3.872   7.485  0.7871  1.1277 -0.0529
   51MOL   C29016390   0.788   3.744   7.449  0.2045  0.2756  0.1565
   51MOL   C29116391   0.916   3.705   7.520 -0.4749  0.1329 -0.4434
   51MOL   C29216392   1.036   3.687   7.449 -0.2870  0.0481 -0.5783
   51MOL   C29316393   1.149   3.643   7.519  0.0756 -0.2503  0.3162
   51MOL   C29416394   1.147   3.618   7.664 -0.1912 -0.1443 -0.2917
   51MOL  Cl29516395   1.276   3.540   7.739  0.0998  0.2604  0.0228
   51MOL   C29616396   1.029   3.640   7.725 -0.3011  0.0377 -0.4389
   51MOL   C29716397   0.917   3.678   7.655 -0.0208  0.0453  0.9559
   51MOL   C29816398   0.692   3.630   7.412 -0.1316 -0.0342  0.7618
   51MOL   H29916399   0.823   3.789   7.356  0.4634 -0.9417 -0.3429
   51MOL   H30016400   1.043   3.709   7.344 -1.1115 -0.5915 -0.7744
   51MOL   H30116401   1.229   3.601   7.460 -1.6374 -0.7609 -1.7045
   51MOL   H30216402   1.026   3.616   7.830  0.9959 -0.6423 -0.5475
   51MOL   H30316403   0.824   3.685   7.711 -0.6245  0.9675 -0.1283
   51MOL   H30416404   0.755   3.551   7.371 -0.9957 -0.4260  0.1873
   51MOL   H30516405   0.650   3.587   7.503 -0.4283  1.0742  1.1671
   51MOL   C30616406   0.592   3.654   7.303 -0.4628  0.1838  0.6522
   51MOL   C30716407   0.646   3.729   7.182 -0.3753 -0.5186  0.4113
   51MOL   C30816408   0.638   3.873   7.175  0.4288 -0.3830 -0.1243
   51MOL   C30916409   0.717   3.950   7.085  0.9683  0.9598 -0.1022
   51MOL   C31016410   0.786   3.875   6.988  1.0500  0.8537  0.6974
   51MOL  Cl31116411   0.871   3.953   6.860 -0.1080  0.1463 -0.4836
   51MOL   C31216412   0.783   3.737   6.982  0.5002  0.4045  0.0843
   51MOL   C31316413   0.723   3.661   7.085  0.6277  0.3196 -0.4230
   51MOL   C31416414   0.509   3.535   7.259 -0.2844 -0.1769 -0.0708
   51MOL   H31516415   0.522   3.728   7.342 -1.3101 -1.4199  2.2231
   51MOL   H31616416   0.581   3.929   7.247 -2.1490 -0.9326 -1.7020
   51MOL   H31716417   0.715   4.058   7.097  0.5753  0.7559  1.9116
   51MOL   H31816418   0.840   3.690   6.902 -0.0033 -0.5412  0.2733
   51MOL   H31916419   0.732   3.553   7.089 -1.6732  0.0752 -0.7271
   51MOL   H32016420   0.561   3.462   7.196 -0.2572 -2.2974  2.3042
   51MOL   H32116421   0.464   3.479   7.341  1.4594 -3.2323 -1.0822
   51MOL   H32216422   0.427   3.565   7.194 -0.1900 -1.2671 -0.7145
   52MOL     C116423   7.457   8.063   5.620  0.4682 -0.3348 -0.6881
   52MOL     C216424   7.336   8.105   5.542 -0.5786  0.3169 -0.4371
   52MOL     C316425   7.317   8.063   5.404  0.0981 -0.1095  0.3994
   52MOL     C416426   7.199   8.095   5.331  0.1888  0.3264 -0.0519
   52MOL     C516427   7.104   8.177   5.402 -0.0281 -0.4514 -0.3672
   52MOL    Cl616428   6.952   8.215   5.323  0.5886 -0.2147 -0.0157
   52MOL     C716429   7.120   8.216   5.539  0.2876 -0.3584  0.3813
   52MOL     C816430   7.232   8.171   5.612  0.0770 -0.3346 -0.2491
   52MOL     C916431   7.440   7.933   5.684  0.1440 -0.1530 -0.3159
   52MOL    H1016432   7.487   8.142   5.689 -0.8739 -0.0151 -0.4571
   52MOL    H1116433   7.400   8.016   5.353  0.1358 -0.3119  0.6486
   52MOL    H1216434   7.185   8.051   5.233 -0.6503  1.7242 -0.5783
   52MOL    H1316435   7.045   8.283   5.578  0.2163 -0.5879  0.6402
   52MOL    H1416436   7.238   8.214   5.711 -0.4460 -0.5609 -0.1212
   52MOL    H1516437   7.354   7.935   5.749  1.4619  0.1065  1.4558
   52MOL    H1616438   7.416   7.859   5.607 -0.6072 -2.4478  2.0576
   52MOL    H1716439   7.541   8.050   5.551 -0.8607  0.9468 -2.5974
   52MOL    C1816440   7.572   7.895   5.767 -0.1713  0.3085 -0.8708
   52MOL    C1916441   7.547   7.753   5.825  1.0643  0.0954 -0.2866
   52MOL    C2016442   7.472   7.652   5.761  0.5330 -0.2296 -0.5264
   52MOL    C2116443   7.458   7.523   5.813 -0.0074 -0.3870 -1.1207
   52MOL    C2216444   7.530   7.487   5.933  1.1757  0.2099 -0.1381
   52MOL   Cl2316445   7.518   7.320   5.998 -0.0400  0.0932 -0.0561
   52MOL    C2416446   7.604   7.586   5.996  0.3771  0.2471  0.1123
   52MOL    C2516447   7.617   7.711   5.941  0.6130  1.0642  0.3042
   52MOL    C2616448   7.712   7.896   5.701  0.0013  0.5402 -0.7387
   52MOL    H2716449   7.567   7.964   5.851  0.3394  0.7360 -1.1854
   52MOL    H2816450   7.419   7.666   5.668  0.9020 -0.1966 -0.7315
   52MOL    H2916451   7.396   7.449   5.764 -0.0283  0.3981 -2.2926
   52MOL    H3016452   7.668   7.557   6.078 -1.0031 -1.0128  0.7676
   52MOL    H3116453   7.672   7.778   6.006 -0.1489  1.8007  0.1986
   52MOL    H3216454   7.746   7.992   5.662  1.7107 -0.8934 -2.9210
   52MOL    H3316455   7.790   7.865   5.769  0.3201 -0.1174 -1.3938
   52MOL    C3416456   7.736   7.792   5.584  0.7873 -0.6536 -0.1577
   52MOL    C3516457   7.700   7.842   5.439  0.2696  0.8665 -0.0417
   52MOL    C3616458   7.609   7.772   5.361  0.7273  0.4452  0.3027
   52MOL    C3716459   7.554   7.833   5.240  0.1401 -0.6672  0.7058
   52MOL    C3816460   7.603   7.954   5.193 -0.5735 -0.2754  0.4945
   52MOL   Cl3916461   7.535   8.020   5.055 -0.0389 -0.0429 -0.0115
   52MOL    C4016462   7.711   8.020   5.262  0.2137  0.1933 -0.0258
   52MOL    C4116463   7.754   7.962   5.385 -0.2150  0.3618  0.5711
   52MOL    C4216464   7.883   7.737   5.579 -0.5288  0.4960  0.1356
   52MOL    H4316465   7.674   7.703   5.591 -0.4118  0.1327 -0.6514
   52MOL    H4416466   7.577   7.672   5.386 -0.2934  0.2028 -1.8483
   52MOL    H4516467   7.473   7.784   5.188  1.3039 -1.7123 -0.1606
   52MOL    H4616468   7.749   8.113   5.224  3.4642 -1.0189  0.1115
   52MOL    H4716469   7.833   8.012   5.440 -0.4486  5.7541 -3.5596
   52MOL    H4816470   7.934   7.826   5.541 -1.1705  1.2897  1.1120
   52MOL    H4916471   7.933   7.737   5.676 -0.4306  0.2746  0.0830
   52MOL    C5016472   7.903   7.604   5.498  1.1915  0.1475 -0.2761
   52MOL    C5116473   8.050   7.586   5.465  0.1501 -0.7775 -0.1137
   52MOL    C5216474   8.112   7.654   5.366 -0.4884  0.4748  0.4494
   52MOL    C5316475   8.241   7.629   5.323 -0.0662 -0.0568  0.5198
   52MOL    C5416476   8.319   7.533   5.390  0.1367  0.0746  0.4687
   52MOL   Cl5516477   0.037   7.497   5.342  0.0837  0.6310  0.5059
   52MOL    C5616478   8.266   7.459   5.499  0.2027 -0.2666  0.1421
   52MOL    C5716479   8.131   7.490   5.538 -0.3269  0.7428 -0.5689
   52MOL    C5816480   7.836   7.477   5.553 -0.1551 -0.7297  0.0430
   52MOL    H5916481   7.861   7.632   5.401  1.6048 -0.7700 -0.7282
   52MOL    H6016482   8.057   7.732   5.315 -0.8782 -0.0043  0.1374
   52MOL    H6116483   8.289   7.680   5.240 -0.1846 -1.1719 -0.2507
   52MOL    H6216484   8.326   7.393   5.560 -2.0335 -0.9124  1.6802
   52MOL    H6316485   8.087   7.435   5.620 -0.9832 -1.7705 -2.5344
   52MOL    H6416486   7.883   7.464   5.651  0.4649  2.0862  0.1907
   52MOL    H6516487   7.736   7.503   5.587  0.2104  1.6391 -0.5543
   52MOL    C6616488   7.821   7.353   5.462  0.2153  0.3297  0.2375
   52MOL    C6716489   7.805   7.223   5.550  0.1611  0.0254  0.1296
   52MOL    C6816490   7.893   7.116   5.525 -0.6415 -0.0171  0.2897
   52MOL    C6916491   7.896   7.009   5.618 -0.5876  0.5096 -0.2885
   52MOL    C7016492   7.821   7.008   5.734 -0.0261 -0.3056 -0.1298
   52MOL   Cl7116493   7.815   6.872   5.835 -0.0331 -0.2371  0.1209
   52MOL    C7216494   7.723   7.110   5.756 -0.8474 -0.0546  0.0800
   52MOL    C7316495   7.719   7.218   5.663  1.6188  1.0227  0.3849
   52MOL    C7416496   7.704   7.378   5.364 -0.5128 -0.1711  0.2428
   52MOL    H7516497   7.917   7.339   5.412  0.7384 -0.7737  1.4944
   52MOL    H7616498   7.954   7.112   5.436 -0.1798 -0.1359  0.6122
   52MOL    H7716499   7.969   6.932   5.598 -2.4294 -0.4816 -3.4695
   52MOL    H7816500   7.664   7.104   5.846 -0.5330 -3.8262  0.1182
   52MOL    H7916501   7.663   7.305   5.695 -1.8389 -0.5881 -1.0811
   52MOL    H8016502   7.618   7.331   5.412  0.3211  0.8623  2.8946
   52MOL    H8116503   7.678   7.484   5.355 -0.6474 -0.1005  1.3209
   52MOL    C8216504   7.728   7.308   5.234  0.3163 -0.3797  0.5875
   52MOL    C8316505   7.599   7.279   5.158 -0.5230  0.4105 -0.1137
   52MOL    C8416506   7.518   7.381   5.111  0.0554  0.1558 -0.8216
   52MOL    C8516507   7.405   7.357   5.040  0.8948  0.2208  0.3784
   52MOL    C8616508   7.373   7.226   5.003  0.3939 -0.5067  0.2952
   52MOL   Cl8716509   7.219   7.194   4.917 -0.1135  0.2642 -0.0685
   52MOL    C8816510   7.464   7.125   5.036  0.5864 -0.2792  0.4231
   52MOL    C8916511   7.572   7.144   5.121 -0.2765 -0.4544 -0.2978
   52MOL    C9016512   7.822   7.394   5.152  0.6707 -0.8288  0.4561
   52MOL    H9116513   7.781   7.214   5.248  0.0709 -0.3602  1.6886
   52MOL    H9216514   7.546   7.485   5.121 -0.4819  0.3298 -1.0914
   52MOL    H9316515   7.331   7.430   5.008  0.0732  0.1853  2.1186
   52MOL    H9416516   7.448   7.025   4.999  1.0209 -0.4832  0.7791
   52MOL    H9516517   7.643   7.066   5.144  0.1769  0.3489  1.1240
   52MOL    H9616518   7.765   7.455   5.082 -0.0039 -1.5800  0.3344
   52MOL    H9716519   7.864   7.470   5.217  0.3947  0.3034 -0.6786
   52MOL    C9816520   7.940   7.323   5.091 -0.6240  0.5900 -0.2147
   52MOL    C9916521   7.893   7.216   4.991  0.0074 -0.2816 -0.0976
   52MOL   C10016522   7.826   7.243   4.868  0.3659  0.1123  0.8220
   52MOL   C10116523   7.790   7.141   4.774  0.1036  0.5681  0.3024
   52MOL   C10216524   7.809   7.007   4.814  0.1317  0.2968  0.0854
   52MOL  Cl10316525   7.760   6.880   4.704 -0.1352 -0.2731  0.0175
   52MOL   C10416526   7.870   6.975   4.932  0.0994  0.0573  0.4216
   52MOL   C10516527   7.919   7.079   5.021  0.2436 -0.2933  0.0785
   52MOL   C10616528   8.047   7.420   5.027 -0.1440  0.1268 -0.3368
   52MOL   H10716529   7.985   7.274   5.178 -0.7673  0.9537  0.0684
   52MOL   H10816530   7.803   7.347   4.847 -0.1443 -0.5509 -2.0511
   52MOL   H10916531   7.746   7.164   4.678 -2.7585  2.2975  1.9737
   52MOL   H11016532   7.887   6.871   4.958 -1.6520 -0.3891 -0.1706
   52MOL   H11116533   7.977   7.047   5.106  1.5440  0.2594 -0.5800
   52MOL   H11216534   7.995   7.496   4.968  1.6296 -1.8657 -4.6479
   52MOL   H11316535   8.091   7.477   5.110 -1.5744 -1.0887  1.2986
   52MOL   C11416536   8.163   7.365   4.933 -0.1676 -0.1367 -0.4270
   52MOL   C11516537   8.233   7.473   4.851  0.6397  0.8883  0.2656
   52MOL   C11616538   8.218   7.478   4.710 -0.2564  0.1952  0.8286
   52MOL   C11716539   8.295   7.580   4.641  0.3576  0.6585 -0.1992
   52MOL   C11816540   8.378   7.674   4.711 -0.1974 -0.9794  0.4934
   52MOL  Cl11916541   0.027   7.798   4.624  0.2356  0.0912  0.1201
   52MOL   C12016542   8.377   7.672   4.852 -0.5782 -0.5937  0.2218
   52MOL   C12116543   8.317   7.561   4.918 -0.1033  0.1479  0.1450
   52MOL   C12216544   8.266   7.274   5.002 -0.6089 -0.7540  0.1196
   52MOL   H12316545   8.107   7.310   4.858  0.1503  1.4568 -1.8700
   52MOL   H12416546   8.143   7.420   4.660 -0.5052  1.7278 -0.6426
   52MOL   H12516547   8.279   7.590   4.535 -0.0555 -2.3419 -0.4688
   52MOL   H12616548   8.432   7.749   4.904  1.6264 -1.3965 -0.8260
   52MOL   H12716549   8.328   7.548   5.024 -0.4746 -1.8723 -0.0442
   52MOL   H12816550   8.330   7.337   5.064 -2.5307 -1.3355  2.7497
   52MOL   H12916551   8.220   7.209   5.076 -0.0676  0.4447  1.5258
   52MOL   C13016552   8.350   7.187   4.894 -0.6532 -0.4431 -0.7447
   52MOL   C13116553   0.057   7.194   4.909  0.8822  0.0079 -0.1825
   52MOL   C13216554   0.118   7.128   5.023 -0.1288 -0.1326 -0.4754
   52MOL   C13316555   0.255   7.142   5.047  0.1395  0.6769 -0.3211
   52MOL   C13416556   0.334   7.220   4.960 -0.6224 -0.5727  0.3697
   52MOL  Cl13516557   0.504   7.237   4.984  0.0294  0.3566  0.4805
   52MOL   C13616558   0.268   7.286   4.850 -0.0394 -0.0594  0.0145
   52MOL   C13716559   0.130   7.276   4.824 -0.5048 -0.6865  0.5454
   52MOL   C13816560   8.289   7.049   4.889  0.1826  0.3583 -0.4513
   52MOL   H13916561   8.319   7.234   4.801  2.7175 -1.6008 -2.5393
   52MOL   H14016562   0.062   7.067   5.092  0.3248  1.3060  1.1940
   52MOL   H14116563   0.308   7.104   5.133 -0.0645 -0.0123 -0.4948
   52MOL   H14216564   0.336   7.337   4.784  0.1266  1.4107  1.2796
   52MOL   H14316565   0.086   7.340   4.749  0.2331  0.0900  0.7720
   52MOL   H14416566   8.278   7.013   4.992 -1.0658 -0.0214 -0.7098
   52MOL   H14516567   8.187   7.068   4.856  0.3186 -0.7637 -1.5690
   52MOL   C14616568   8.360   6.941   4.798 -0.2381  0.0361 -0.1524
   52MOL   C14716569   8.288   6.807   4.805  0.1530 -0.0482  0.2273
   52MOL   C14816570   8.156   6.799   4.761  0.2287 -0.3818 -0.3185
   52MOL   C14916571   8.100   6.672   4.747 -0.1480  0.8392  0.2871
   52MOL   C15016572   8.180   6.557   4.768 -0.0263 -0.3590 -1.4026
   52MOL  Cl15116573   8.122   6.393   4.754  0.0307 -0.0836  0.2315
   52MOL   C15216574   8.315   6.569   4.811 -0.4249 -0.1250 -0.6435
   52MOL   C15316575   8.366   6.694   4.842  0.3939 -0.0612 -0.1522
   52MOL   C15416576   8.385   6.997   4.659 -0.2827  0.8220 -0.6897
   52MOL   H15516577   0.016   6.922   4.840  0.5815  0.2557 -1.9650
   52MOL   H15616578   8.095   6.883   4.732 -1.1397 -1.3976 -0.4163
   52MOL   H15716579   7.995   6.664   4.721 -0.1274 -1.7681  0.8264
   52MOL   H15816580   8.369   6.476   4.823  1.7378  1.1191 -0.3783
   52MOL   H15916581   0.027   6.703   4.869  0.7837  2.6453 -2.3151
   52MOL   H16016582   8.292   6.978   4.606 -0.4267  1.9863 -0.8684
   52MOL   H16116583   8.392   7.106   4.651 -1.3795  0.9275 -0.2468
   52MOL   C16216584   0.066   6.928   4.589  0.2466  1.2913  0.1618
   52MOL   C16316585   0.038   6.923   4.443 -0.0736 -0.0147  0.2113
   52MOL   C16416586   8.414   6.811   4.389 -0.2652 -0.7229 -0.5250
   52MOL   C16516587   8.389   6.796   4.251  0.3671  0.5754  1.0725
   52MOL   C16616588   0.001   6.887   4.156 -0.4886  0.5070  0.0458
   52MOL  Cl16716589   8.404   6.898   3.990 -0.5207 -0.1387 -0.1286
   52MOL   C16816590   0.071   7.001   4.214  0.4389  0.0496  0.1916
   52MOL   C16916591   0.087   7.025   4.353  0.0277 -0.6968  0.4697
   52MOL   C17016592   0.213   6.979   4.630 -0.2167  0.1867  0.9377
   52MOL   H17116593   0.060   6.822   4.616 -1.3646  1.4437  0.4254
   52MOL   H17216594   8.379   6.737   4.459  1.6736 -0.5695  0.6475
   52MOL   H17316595   8.330   6.722   4.199  1.1480  0.7249 -0.0361
   52MOL   H17416596   0.125   7.073   4.154  1.9817 -0.1708  1.2956
   52MOL   H17516597   0.142   7.113   4.384 -0.8601  0.5726 -1.5191
   52MOL   H17616598   0.219   7.079   4.586  1.1069 -0.9939 -1.7048
   52MOL   H17716599   0.225   6.986   4.738 -2.3546 -1.2728  1.2999
   52MOL   C17816600   0.330   6.901   4.560  0.1833 -0.6597 -0.7971
   52MOL   C17916601   0.436   7.004   4.504  0.0574  0.6275 -0.3403
   52MOL   C18016602   0.461   7.007   4.366  0.0599 -0.0049  0.1025
   52MOL   C18116603   0.545   7.107   4.307 -1.0069  0.2804  0.4534
   52MOL   C18216604   0.607   7.201   4.391 -0.3228 -0.3502 -0.6921
   52MOL  Cl18316605   0.698   7.320   4.323  0.0476 -0.1665  0.2524
   52MOL   C18416606   0.583   7.204   4.530  0.1650  0.6232  0.0231
   52MOL   C18516607   0.497   7.103   4.587 -0.0658 -0.4563  0.0414
   52MOL   C18616608   0.399   6.801   4.652 -0.7840  0.3555 -0.5207
   52MOL   H18716609   0.294   6.850   4.470 -0.7465 -1.6858  0.1439
   52MOL   H18816610   0.419   6.933   4.299  1.4965  1.5637 -2.6034
   52MOL   H18916611   0.573   7.110   4.202  1.1969 -1.3894  0.9659
   52MOL   H19016612   0.628   7.281   4.590  1.1985 -0.2939  0.4355
   52MOL   H19116613   0.485   7.097   4.694  0.4411 -1.6357  0.0388
   52MOL   H19216614   0.483   6.778   4.586  0.6933  0.3551  1.3220
   52MOL   H19316615   0.427   6.850   4.745  0.1034  0.2006 -0.7017
   52MOL   C19416616   0.325   6.668   4.687  0.4971 -0.0632 -0.3186
   52MOL   C19516617   0.265   6.598   4.563  0.4448  0.9376  0.2044
   52MOL   C19616618   0.339   6.558   4.444  0.0202 -0.6504 -0.5562
   52MOL   C19716619   0.270   6.522   4.330  0.3961 -0.3910  0.0323
   52MOL   C19816620   0.136   6.489   4.328 -0.0669  0.1651 -0.8370
   52MOL  Cl19916621   0.051   6.444   4.186  0.5278  0.2064  0.1020
   52MOL   C20016622   0.069   6.498   4.448  0.5135  0.1051 -0.6519
   52MOL   C20116623   0.126   6.564   4.560 -1.0285  0.0106  0.5211
   52MOL   C20216624   0.424   6.568   4.761 -0.2938  1.0160 -0.3654
   52MOL   H20316625   0.240   6.699   4.749 -0.8102 -0.5547 -1.8259
   52MOL   H20416626   0.446   6.568   4.432  0.0905  0.9382  1.0936
   52MOL   H20516627   0.330   6.496   4.244 -0.4436  2.7787 -1.5866
   52MOL   H20616628   8.409   6.470   4.460  0.7274  0.5244  2.4725
   52MOL   H20716629   0.055   6.590   4.637  0.2375  0.3289  1.5933
   52MOL   H20816630   0.377   6.470   4.767  1.6168  0.1593  0.9375
   52MOL   H20916631   0.515   6.561   4.702  0.9533  1.1016  1.5121
   52MOL   C21016632   0.470   6.611   4.905  0.0460 -0.3284  0.0410
   52MOL   C21116633   0.342   6.633   4.994 -0.1294 -0.7003 -0.2853
   52MOL   C21216634   0.292   6.762   5.031 -0.2927 -0.1579 -0.0335
   52MOL   C21316635   0.183   6.774   5.116 -0.4535 -0.3397  0.3278
   52MOL   C21416636   0.116   6.658   5.149 -0.6094 -0.2398 -0.0494
   52MOL  Cl21516637   8.423   6.670   5.254  0.3592 -0.3372  0.1901
   52MOL   C21616638   0.152   6.531   5.104  0.2812 -0.6254  0.3408
   52MOL   C21716639   0.265   6.516   5.028  0.6061  0.0387  1.0478
   52MOL   C21816640   0.568   6.506   4.959  0.6045  0.5899 -0.7944
   52MOL   H21916641   0.531   6.700   4.894  0.4894 -0.7258 -0.7791
   52MOL   H22016642   0.350   6.850   5.007  0.2176  0.0400  1.8245
   52MOL   H22116643   0.145   6.868   5.153  2.7781  0.5657  1.5685
   52MOL   H22216644   0.109   6.437   5.136  0.1186 -0.4908  0.5200
   52MOL   H22316645   0.304   6.424   4.988 -0.9721  1.1106 -3.2724
   52MOL   H22416646   0.529   6.406   4.942 -1.1221  1.4187 -1.9098
   52MOL   H22516647   0.651   6.505   4.889  0.3663 -1.4971 -1.0785
   52MOL   C22616648   0.622   6.510   5.106 -0.1328 -0.5261  0.4807
   52MOL   C22716649   0.694   6.379   5.145 -0.5903 -0.3319  0.0566
   52MOL   C22816650   0.621   6.275   5.201 -0.2410  0.1017 -0.0553
   52MOL   C22916651   0.687   6.152   5.240  0.4865 -0.3670 -0.6390
   52MOL   C23016652   0.821   6.133   5.206  0.0257  0.7438 -0.5210
   52MOL  Cl23116653   0.890   5.978   5.215 -0.1527  0.3236  0.0968
   52MOL   C23216654   0.888   6.239   5.145  0.0174  0.2889 -0.9272
   52MOL   C23316655   0.831   6.361   5.115  0.5440 -0.2226 -0.0222
   52MOL   C23416656   0.699   6.642   5.137  0.5260  0.0916  0.0516
   52MOL   H23516657   0.540   6.524   5.177 -0.3198 -0.7402  0.3067
   52MOL   H23616658   0.515   6.279   5.223 -0.5190 -0.9671 -1.1612
   52MOL   H23716659   0.630   6.077   5.293  0.9085 -0.7898 -0.7805
   52MOL   H23816660   0.989   6.217   5.112  0.1059 -1.8513  0.6959
   52MOL   H23916661   0.890   6.428   5.054  0.1501  0.7402  0.6567
   52MOL   H24016662   0.782   6.665   5.070  0.6360  1.1020  0.5368
   52MOL   H24116663   0.627   6.722   5.119  0.6928  0.1718 -0.2719
   52MOL   C24216664   0.756   6.669   5.280 -1.1596  0.0058  0.4292
   52MOL   C24316665   0.812   6.817   5.291 -0.3092  0.2450  0.2502
   52MOL   C24416666   0.744   6.935   5.244 -0.2407  0.1731  0.0800
   52MOL   C24516667   0.801   7.062   5.257 -0.7608  0.1169 -0.2037
   52MOL   C24616668   0.925   7.078   5.321  0.4223 -0.3623 -0.2098
   52MOL  Cl24716669   1.004   7.226   5.333 -0.1670 -0.0153 -0.2690
   52MOL   C24816670   0.995   6.962   5.362  0.3640  0.5689 -0.8747
   52MOL   C24916671   0.944   6.834   5.344  0.1225 -0.2299 -0.4361
   52MOL   C25016672   0.651   6.637   5.392  0.1842 -0.3135  0.3886
   52MOL   H25116673   0.836   6.595   5.287 -1.2741  0.0751  3.0276
   52MOL   H25216674   0.650   6.920   5.193 -1.4179  1.0913  1.9332
   52MOL   H25316675   0.749   7.151   5.225 -0.4818  1.1085  2.0222
   52MOL   H25416676   1.096   6.981   5.395  0.2918  0.8314 -0.8035
   52MOL   H25516677   0.995   6.744   5.379  1.2608 -1.1421 -4.2308
   52MOL   H25616678   0.570   6.707   5.371 -1.8354 -2.6271  0.2285
   52MOL   H25716679   0.613   6.535   5.395  1.1366 -0.6563  0.8372
   52MOL   C25816680   0.704   6.664   5.530  0.1927  0.1441 -0.7750
   52MOL   C25916681   0.592   6.671   5.638  0.3018 -0.4593  0.0320
   52MOL   C26016682   0.564   6.562   5.729  0.0347 -0.0162 -0.3721
   52MOL   C26116683   0.463   6.572   5.824  0.4579  1.0287  0.5776
   52MOL   C26216684   0.396   6.690   5.845 -0.4056 -0.6334 -0.3587
   52MOL  Cl26316685   0.263   6.700   5.955 -0.1981 -0.2751 -0.3583
   52MOL   C26416686   0.424   6.801   5.757 -1.0017 -0.4223  0.1868
   52MOL   C26516687   0.512   6.786   5.651 -0.1532 -0.4302  0.4410
   52MOL   C26616688   0.822   6.574   5.570 -0.5137 -0.2708  0.4274
   52MOL   H26716689   0.737   6.768   5.536 -2.4438  0.9714  0.3775
   52MOL   H26816690   0.634   6.481   5.718  0.5779  0.2967  0.7046
   52MOL   H26916691   0.446   6.482   5.882  0.6032  1.7853  1.8072
   52MOL   H27016692   0.352   6.882   5.755 -0.9623 -0.4127 -1.0361
   52MOL   H27116693   0.528   6.864   5.578  0.6811  0.0763  1.1477
   52MOL   H27216694   0.775   6.477   5.577 -0.0481 -0.3954  2.0255
   52MOL   H27316695   0.895   6.568   5.489 -0.9046 -0.0901  0.0585
   52MOL   C27416696   0.903   6.613   5.704  0.3736  0.6095  0.4959
   52MOL   C27516697   1.014   6.511   5.741  0.1037  0.4142 -0.1636
   52MOL   C27616698   1.008   6.442   5.865  0.4128 -0.0175  0.5938
   52MOL   C27716699   1.121   6.363   5.899 -0.1550 -0.2216 -1.2508
   52MOL   C27816700   1.223   6.344   5.809  0.4071  0.1417 -0.1409
   52MOL  Cl27916701   1.355   6.244   5.843  0.5797 -0.3506  0.1792
   52MOL   C28016702   1.215   6.402   5.681  0.1136  0.5684 -0.2614
   52MOL   C28116703   1.117   6.488   5.641 -0.3238  0.4390 -0.3269
   52MOL   C28216704   0.959   6.756   5.697 -0.4609 -0.7097 -0.6949
   52MOL   H28316705   0.823   6.615   5.779 -0.2121  2.1496 -0.1461
   52MOL   H28416706   0.927   6.450   5.936 -2.2903 -0.4294 -2.3051
   52MOL   H28516707   1.122   6.311   5.994  1.2443 -0.7625 -1.5663
   52MOL   H28616708   1.298   6.374   5.617 -0.2854 -0.2718 -0.4121
   52MOL   H28716709   1.124   6.549   5.553  3.0152  3.0322  1.6219
   52MOL   H28816710   1.004   6.772   5.599 -0.6579 -1.2815 -0.8760
   52MOL   H28916711   0.874   6.824   5.687  1.3526  1.8771  0.8977
   52MOL   C29016712   1.064   6.806   5.810  0.1491  0.0482 -0.6737
   52MOL   C29116713   1.122   6.950   5.778 -0.6984 -0.4010 -0.9076
   52MOL   C29216714   1.053   7.066   5.815 -0.1645 -0.1958 -0.2053
   52MOL   C29316715   1.101   7.192   5.775  0.1581  0.1267  0.0630
   52MOL   C29416716   1.219   7.205   5.700 -0.4110  0.1718 -0.0967
   52MOL  Cl29516717   1.255   7.362   5.634  0.4102 -0.0036  0.2718
   52MOL   C29616718   1.296   7.088   5.674  0.0634 -0.8152 -0.9686
   52MOL   C29716719   1.245   6.960   5.706  0.1897 -0.2342  0.1399
   52MOL   C29816720   1.006   6.793   5.955 -0.0321 -0.5219  0.0378
   52MOL   H29916721   1.145   6.734   5.813 -0.5957 -0.7837 -0.2152
   52MOL   H30016722   0.960   7.045   5.866  0.2606 -2.1945 -0.2024
   52MOL   H30116723   1.043   7.282   5.794  0.4013  0.5772 -1.3179
   52MOL   H30216724   1.385   7.097   5.614  0.5305  1.4720  0.0096
   52MOL   H30316725   1.306   6.875   5.675  0.1665 -0.1049 -0.2644
   52MOL   H30416726   0.926   6.867   5.952 -0.4205 -0.9642 -0.7253
   52MOL   H30516727   0.960   6.698   5.981 -0.4745  0.2658  2.3375
   52MOL   C30616728   1.103   6.817   6.071 -0.3994  0.2538 -0.2015
   52MOL   C30716729   1.032   6.794   6.202  0.2026  0.0667  0.4285
   52MOL   C30816730   1.010   6.661   6.253  0.3007 -0.2892 -0.5564
   52MOL   C30916731   0.966   6.635   6.384 -0.3398  0.3413 -0.0848
   52MOL   C31016732   0.918   6.745   6.462 -0.2468 -0.1793  0.5470
   52MOL  Cl31116733   0.870   6.710   6.623 -0.1150 -0.0716  0.0191
   52MOL   C31216734   0.922   6.875   6.408 -0.0299  0.2126  0.1173
   52MOL   C31316735   0.987   6.895   6.284  0.6253  0.1262 -0.4921
   52MOL   C31416736   1.233   6.739   6.063 -0.0661 -0.3151 -0.4776
   52MOL   H31516737   1.131   6.922   6.066 -1.0024  0.3342 -2.3226
   52MOL   H31616738   1.049   6.575   6.201  0.7169  0.3022 -1.2140
   52MOL   H31716739   0.969   6.534   6.423  3.0852  0.7737  0.9880
   52MOL   H31816740   0.874   6.956   6.462 -0.8565  0.2444 -0.6589
   52MOL   H31916741   0.998   6.992   6.237  2.9517  0.3807  0.5139
   52MOL   H32016742   1.286   6.750   6.158  0.4572 -2.9064 -0.4114
   52MOL   H32116743   1.219   6.631   6.054  1.0883 -0.6618  1.4199
   52MOL   H32216744   1.305   6.775   5.989 -0.5487  2.5493  0.4131
   53MOL     C116745   5.038   8.255   7.365 -0.3954 -1.0853 -0.5969
   53MOL     C216746   5.031   8.129   7.449  1.2489  1.0471 -0.1332
   53MOL     C316747   5.142   8.092   7.524 -0.0128  0.2269 -0.0394
   53MOL     C416748   5.139   7.977   7.604  0.3425  0.0705 -0.0506
   53MOL     C516749   5.033   7.887   7.597 -0.5551  0.2185 -0.1133
   53MOL    Cl616750   5.046   7.737   7.684  0.1354  0.0159  0.0262
   53MOL     C716751   4.919   7.912   7.523 -0.7475 -0.0922 -1.0337
   53MOL     C816752   4.923   8.033   7.451 -0.2950 -0.1319  0.5144
   53MOL     C916753   4.935   8.357   7.405 -0.6050 -0.0268  0.5547
   53MOL    H1016754   5.032   8.226   7.260 -2.0136  0.7468 -1.0402
   53MOL    H1116755   5.238   8.141   7.531  0.8964 -1.7420  1.9533
   53MOL    H1216756   5.216   7.958   7.678 -1.2683  0.1012  1.6561
   53MOL    H1316757   4.836   7.845   7.535 -1.2322  0.1965 -2.6612
   53MOL    H1416758   4.834   8.065   7.399  0.2066 -0.3191 -0.4594
   53MOL    H1516759   4.844   8.297   7.393  0.4848 -1.4732 -0.6263
   53MOL    H1616760   4.946   8.382   7.510 -1.6266  2.2761  0.1370
   53MOL    H1716761   5.139   8.289   7.386 -0.2275 -2.1200  0.2884
   53MOL    C1816762   4.923   0.042   7.317 -1.0214  0.8282 -0.2363
   53MOL    C1916763   4.806   0.121   7.372 -0.3110  0.2412  0.2798
   53MOL    C2016764   4.828   0.213   7.474 -0.1667  0.1744 -0.5690
   53MOL    C2116765   4.712   0.268   7.540  0.2173  0.4395  0.2893
   53MOL    C2216766   4.577   0.235   7.502  0.0543 -0.2106  0.2986
   53MOL   Cl2316767   4.434   0.299   7.576  0.3458 -0.0293  0.0547
   53MOL    C2416768   4.563   0.156   7.386  0.2770 -0.2176 -0.2770
   53MOL    C2516769   4.676   0.100   7.324  0.2658 -0.1280  0.4201
   53MOL    C2616770   5.059   0.124   7.295 -0.3382  1.0503 -0.4486
   53MOL    H2716771   4.895   8.442   7.221  1.8072  1.6474 -1.4983
   53MOL    H2816772   4.927   0.240   7.507 -0.4795 -0.8391  1.2936
   53MOL    H2916773   4.729   0.344   7.614  0.2236  0.0479  0.6873
   53MOL    H3016774   4.462   0.129   7.359 -0.0044  0.5954 -0.0320
   53MOL    H3116775   4.659   0.022   7.251  1.3330 -0.2949  0.3499
   53MOL    H3216776   5.090   0.151   7.396  1.4425 -1.2555 -0.3467
   53MOL    H3316777   5.138   0.057   7.261  0.2409 -0.1232  2.9869
   53MOL    C3416778   5.048   0.253   7.210 -0.2287  0.7439 -0.5818
   53MOL    C3516779   5.170   0.341   7.220 -0.4830  0.1767  0.8849
   53MOL    C3616780   5.169   0.450   7.301  0.0464  0.2403 -0.4077
   53MOL    C3716781   5.283   0.534   7.314  0.4409  0.4281  0.3392
   53MOL    C3816782   5.397   0.504   7.245  0.4075  0.0349 -0.3025
   53MOL   Cl3916783   5.537   0.612   7.241 -0.3587  0.0513 -0.0184
   53MOL    C4016784   5.404   0.388   7.164  0.2780  0.2744  0.1431
   53MOL    C4116785   5.293   0.304   7.159 -0.8020  0.0140  0.0986
   53MOL    C4216786   5.019   0.215   7.058 -0.6431 -0.5278 -0.1349
   53MOL    H4316787   4.974   0.318   7.255  0.4301  1.8607 -1.0902
   53MOL    H4416788   5.075   0.479   7.346 -1.5486 -0.2355 -3.2715
   53MOL    H4516789   5.273   0.621   7.378 -1.4180  1.3850 -1.1803
   53MOL    H4616790   5.492   0.366   7.107 -0.1077 -0.7045 -0.0834
   53MOL    H4716791   5.288   0.220   7.091 -2.4368 -0.0509  0.2777
   53MOL    H4816792   5.094   0.252   6.987 -0.3659 -1.8731 -0.5635
   53MOL    H4916793   5.030   0.107   7.059  3.5020 -0.2136  2.2434
   53MOL    C5016794   4.873   0.245   7.007  0.7043  0.0697  0.8867
   53MOL    C5116795   4.837   0.398   7.026  1.0840  0.5159  0.4214
   53MOL    C5216796   4.907   0.498   6.960  0.0667 -0.2107  0.7627
   53MOL    C5316797   4.880   0.637   6.971 -0.2023 -0.3752 -0.7339
   53MOL    C5416798   4.766   0.671   7.045 -0.1992  0.5026  0.0461
   53MOL   Cl5516799   4.719   0.835   7.069  0.1958 -0.1926 -0.1449
   53MOL    C5616800   4.687   0.578   7.113  0.1160  0.5982  0.5521
   53MOL    C5716801   4.716   0.438   7.093 -0.1473  0.2318 -0.3525
   53MOL    C5816802   4.848   0.204   6.854  0.4768 -0.4372  0.4455
   53MOL    H5916803   4.795   0.194   7.063  0.8858 -0.3353  0.7760
   53MOL    H6016804   4.993   0.473   6.899  1.3590  2.8850  1.1826
   53MOL    H6116805   4.945   0.718   6.939  0.7734 -0.8050  0.1188
   53MOL    H6216806   4.604   0.615   7.171  0.7831  1.7311  0.8060
   53MOL    H6316807   4.642   0.366   7.127 -1.4028  1.6766  0.0161
   53MOL    H6416808   4.743   0.230   6.840 -0.1266 -0.7380  3.8638
   53MOL    H6516809   4.908   0.265   6.787 -1.3514  2.1303  1.0635
   53MOL    C6616810   4.872   0.054   6.815  0.8995 -0.5579 -0.3810
   53MOL    C6716811   4.793   8.403   6.914 -0.1917  0.1485 -0.0262
   53MOL    C6816812   4.856   8.285   6.960 -0.1826 -0.2399 -0.0553
   53MOL    C6916813   4.788   8.190   7.041  0.6023  0.6845  0.5586
   53MOL    C7016814   4.655   8.217   7.084 -0.1030 -0.6763  0.3841
   53MOL   Cl7116815   4.579   8.105   7.193  0.1260 -0.0968 -0.1996
   53MOL    C7216816   4.595   8.342   7.050 -0.2332  0.0111 -0.7719
   53MOL    C7316817   4.658   8.429   6.958  0.5534  0.1985 -0.2690
   53MOL    C7416818   4.815   0.033   6.671  0.4378 -0.9359  0.3103
   53MOL    H7516819   4.976   0.023   6.820  1.2092  0.5286  0.3164
   53MOL    H7616820   4.960   8.271   6.932  0.2880 -1.3582  2.1721
   53MOL    H7716821   4.834   8.095   7.063  1.0774 -0.3478 -4.3235
   53MOL    H7816822   4.497   8.365   7.090  0.2980  1.5135 -0.2776
   53MOL    H7916823   4.609   0.073   6.918 -0.5822  1.0058  2.6876
   53MOL    H8016824   4.788   8.371   6.655  0.2072 -0.9809  0.9971
   53MOL    H8116825   4.712   0.069   6.663  0.5708 -0.4997  0.5516
   53MOL    C8216826   4.914   0.061   6.558  0.1035 -0.1406 -0.1243
   53MOL    C8316827   5.040   8.434   6.568 -0.8914  0.0849 -0.1678
   53MOL    C8416828   5.046   8.298   6.611  0.0725 -0.4719  0.2078
   53MOL    C8516829   5.175   8.240   6.619  0.2352 -0.4777 -0.2698
   53MOL    C8616830   5.288   8.303   6.581  0.4064  0.2249 -0.4446
   53MOL   Cl8716831   5.440   8.230   6.581  0.3270 -0.2483 -0.0219
   53MOL    C8816832   5.279   8.436   6.530  0.3175 -0.4317 -0.3093
   53MOL    C8916833   5.156   0.061   6.522 -0.0533 -0.1831 -0.5182
   53MOL    C9016834   4.870   0.077   6.407 -0.3044  0.3951 -0.0802
   53MOL    H9116835   4.951   0.163   6.573  3.4223 -0.9333 -2.5167
   53MOL    H9216836   4.949   8.254   6.629  0.3811 -2.4113 -2.5690
   53MOL    H9316837   5.191   8.141   6.659 -0.3065 -0.5779 -0.2993
   53MOL    H9416838   5.362   0.056   6.502  0.8547 -1.3235 -0.7538
   53MOL    H9516839   5.156   0.161   6.482 -4.7204 -0.4941 -1.5911
   53MOL    H9616840   4.954   0.116   6.350 -0.7927 -1.7634 -2.3570
   53MOL    H9716841   4.846   8.427   6.356  0.9828  0.4781 -0.8568
   53MOL    C9816842   4.759   0.183   6.390  0.3156  0.8810 -0.0452
   53MOL    C9916843   4.794   0.320   6.441  0.1845 -0.6069  0.2081
   53MOL   C10016844   4.707   0.378   6.537 -0.1377  0.2247  0.5319
   53MOL   C10116845   4.734   0.510   6.582  0.2462  0.1784 -0.0653
   53MOL   C10216846   4.858   0.568   6.547 -0.0136  0.3505 -0.7693
   53MOL  Cl10316847   4.902   0.718   6.623  0.1296 -0.1273 -0.3477
   53MOL   C10416848   4.950   0.507   6.463  0.5966 -0.1444  0.2276
   53MOL   C10516849   4.912   0.386   6.401  0.3059 -0.5879 -0.5490
   53MOL   C10616850   4.695   0.192   6.249 -0.5645 -0.0146  0.8582
   53MOL   H10716851   4.674   0.144   6.446 -0.9784  3.6197 -0.0685
   53MOL   H10816852   4.614   0.327   6.559  0.5921 -0.6775  1.6025
   53MOL   H10916853   4.671   0.564   6.651 -0.3771 -0.1828 -0.3541
   53MOL   H11016854   5.042   0.556   6.435  0.2892 -0.6635 -1.7610
   53MOL   H11116855   4.959   0.351   6.310  1.1309  1.1561 -0.8216
   53MOL   H11216856   4.660   0.294   6.232 -1.2518  0.1569  3.1281
   53MOL   H11316857   4.774   0.165   6.180 -0.4714  1.9713  0.1657
   53MOL   C11416858   4.566   0.104   6.238 -0.1015  0.2131 -0.5182
   53MOL   C11516859   4.587   8.394   6.267  0.1333  0.0818  0.2218
   53MOL   C11616860   4.550   8.341   6.397 -0.4266  0.6359 -0.1557
   53MOL   C11716861   4.577   8.208   6.429  0.4628 -0.0324  0.4934
   53MOL   C11816862   4.623   8.119   6.329 -0.3615 -0.2546  0.3829
   53MOL  Cl11916863   4.655   7.964   6.370  0.0061  0.2878  0.0581
   53MOL   C12016864   4.662   8.169   6.205  0.7922 -0.2428  0.1224
   53MOL   C12116865   4.644   8.306   6.175  0.4948 -0.5233  0.5094
   53MOL   C12216866   4.431   0.161   6.308  0.7031 -0.3797  0.0948
   53MOL   H12316867   4.541   0.103   6.132 -1.1957  1.2968 -0.2816
   53MOL   H12416868   4.508   8.412   6.467 -1.5529 -0.0734 -0.1200
   53MOL   H12516869   4.559   8.176   6.530 -0.3133  0.0244  0.3763
   53MOL   H12616870   4.710   8.101   6.137  1.4020  0.5949 -0.2878
   53MOL   H12716871   4.653   8.339   6.073  0.2322 -1.0748  0.3106
   53MOL   H12816872   4.359   0.082   6.284  2.1345 -1.5392 -0.4652
   53MOL   H12916873   4.446   0.154   6.415 -0.1408  0.4152  0.2716
   53MOL   C13016874   4.370   0.300   6.274  0.7215  0.3361  0.7324
   53MOL   C13116875   4.386   0.346   6.125  0.1766 -0.1917 -0.2118
   53MOL   C13216876   4.313   0.290   6.023  0.4037  0.4638 -0.1746
   53MOL   C13316877   4.340   0.330   5.890  0.3894  0.2690  0.1182
   53MOL   C13416878   4.445   0.420   5.863 -0.3256 -0.3001  0.0535
   53MOL  Cl13516879   4.480   0.465   5.700 -0.0142 -0.1093 -0.1702
   53MOL   C13616880   4.522   0.479   5.967  0.5310 -1.2491  0.0485
   53MOL   C13716881   4.487   0.444   6.101 -0.5406 -0.4719 -0.3858
   53MOL   C13816882   4.217   0.299   6.320 -0.1114  0.1465 -1.2493
   53MOL   H13916883   4.428   0.360   6.344  0.2072  1.8195 -0.0937
   53MOL   H14016884   4.236   0.215   6.034 -0.6833  1.6604  0.5120
   53MOL   H14116885   4.284   0.292   5.805  2.3193 -1.5814 -0.3561
   53MOL   H14216886   4.591   0.558   5.940  1.1079 -1.1160  1.8433
   53MOL   H14316887   4.542   0.495   6.178 -0.5698  0.3133 -0.8710
   53MOL   H14416888   4.181   0.401   6.313  1.2819  0.9524  2.4528
   53MOL   H14516889   4.147   0.238   6.262 -1.4794 -0.4215  0.9278
   53MOL   C14616890   4.206   0.269   6.468 -0.2245  0.4405 -1.3866
   53MOL   C14716891   4.280   0.364   6.564  0.2179 -0.2466 -0.1307
   53MOL   C14816892   4.261   0.505   6.555 -0.7625  0.4832  0.4041
   53MOL   C14916893   4.317   0.590   6.653  0.1016 -0.4925 -0.0441
   53MOL   C15016894   4.396   0.540   6.756 -0.4735  0.5054 -0.6652
   53MOL  Cl15116895   4.457   0.639   6.877 -0.1662 -0.0752 -0.1559
   53MOL   C15216896   4.423   0.402   6.758 -0.0301  0.6477  0.0861
   53MOL   C15316897   4.370   0.316   6.662  0.0704  0.0218  0.1456
   53MOL   C15416898   4.051   0.281   6.499  0.7959  0.5711  0.0375
   53MOL   H15516899   4.232   0.165   6.488  0.4312  0.6033 -1.3918
   53MOL   H15616900   4.193   0.546   6.482  0.0717 -1.9155 -1.8211
   53MOL   H15716901   4.296   0.696   6.656  0.9700 -0.2831 -0.8807
   53MOL   H15816902   4.491   0.360   6.831 -0.8482  1.1770  1.1616
   53MOL   H15916903   4.385   0.209   6.670  1.4313  0.1799 -0.1712
   53MOL   H16016904   4.012   0.376   6.460  2.6982  1.7897  1.0201
   53MOL   H16116905   3.996   0.205   6.444 -0.3611  1.5167 -0.1510
   53MOL   C16216906   4.008   0.269   6.651 -0.3126 -0.2530 -0.1175
   53MOL   C16316907   3.870   0.325   6.656  0.0940 -0.7306  0.3392
   53MOL   C16416908   3.847   0.448   6.706 -0.1515  0.4800  0.0802
   53MOL   C16516909   3.726   0.516   6.700  1.0182  0.0603  0.0176
   53MOL   C16616910   3.615   0.450   6.647  0.7337 -0.5554  0.0401
   53MOL  Cl16716911   3.455   0.517   6.651 -0.3994 -0.0878 -0.1112
   53MOL   C16816912   3.632   0.319   6.607 -0.0103 -0.4399  0.0093
   53MOL   C16916913   3.757   0.258   6.600  0.0858 -0.2190  0.1577
   53MOL   C17016914   4.018   0.125   6.704  0.3754 -0.0800  0.4682
   53MOL   H17116915   4.069   0.332   6.716 -3.2816  1.8713  0.7254
   53MOL   H17216916   3.924   0.512   6.749 -1.7032  2.3064  0.2052
   53MOL   H17316917   3.713   0.613   6.745 -0.2373  0.8970 -2.0941
   53MOL   H17416918   3.549   0.253   6.587  0.2326 -0.4268 -1.0639
   53MOL   H17516919   3.767   0.158   6.560  2.2468 -0.3347  0.9204
   53MOL   H17616920   3.960   0.059   6.640 -1.7146  3.2514 -1.2382
   53MOL   H17716921   4.123   0.093   6.703  0.0903 -0.9718 -0.8033
   53MOL   C17816922   3.994   0.109   6.852 -0.0342  0.3824 -0.0259
   53MOL   C17916923   4.076   0.196   6.945  0.5931 -0.0349  0.6668
   53MOL   C18016924   4.028   0.322   6.984  0.4875 -0.3370  1.0040
   53MOL   C18116925   4.117   0.407   7.052  0.3404  0.7331 -0.2495
   53MOL   C18216926   4.242   0.365   7.091 -0.3052  0.1936 -0.6261
   53MOL  Cl18316927   4.351   0.467   7.171  0.0726  0.2117 -0.1558
   53MOL   C18416928   4.298   0.248   7.047  0.1172 -0.7070 -0.2852
   53MOL   C18516929   4.215   0.166   6.963 -0.1953 -0.1795 -0.8492
   53MOL   C18616930   3.848   0.092   6.898  0.4407  0.5199 -0.4051
   53MOL   H18716931   4.029   0.006   6.854 -0.2651  0.2597 -1.7959
   53MOL   H18816932   3.926   0.350   6.965  0.5824  0.0493  1.0543
   53MOL   H18916933   4.090   0.504   7.090 -0.7849  0.2588  0.1710
   53MOL   H19016934   4.401   0.233   7.077 -0.8319  0.3160  3.7172
   53MOL   H19116935   4.255   0.069   6.941  0.8730  0.0013  0.2374
   53MOL   H19216936   3.798   0.187   6.880  1.1298  0.9895  0.1057
   53MOL   H19316937   3.798   0.012   6.844  1.5633 -1.7033  1.7660
   53MOL   C19416938   3.823   0.061   7.047 -0.0719 -0.4967  1.2057
   53MOL   C19516939   3.678   0.052   7.070 -0.3597  0.9373 -0.0719
   53MOL   C19616940   3.606   0.147   7.140  0.0045 -0.3471 -0.9592
   53MOL   C19716941   3.479   0.118   7.202  0.0359 -0.0205  0.0486
   53MOL   C19816942   3.410   0.009   7.155  0.0912  0.0550  0.3929
   53MOL  Cl19916943   3.241   8.438   7.179  0.0899 -0.3544 -0.0567
   53MOL   C20016944   3.474   8.360   7.070  0.0031 -0.0355 -0.3788
   53MOL   C20116945   3.608   8.383   7.033  0.0380  0.4904 -0.8048
   53MOL   C20216946   3.894   8.388   7.105 -0.3755  0.5593 -0.2923
   53MOL   H20316947   3.861   0.149   7.099  0.5293 -0.3243  0.4737
   53MOL   H20416948   3.650   0.242   7.164 -1.6480  0.2506 -0.2519
   53MOL   H20516949   3.434   0.197   7.261 -1.6854 -1.3080  0.4725
   53MOL   H20616950   3.417   8.275   7.035  2.0082 -2.3855  1.8879
   53MOL   H20716951   3.663   8.308   6.978  2.3492  1.6266 -0.1190
   53MOL   H20816952   3.888   8.300   7.041  1.0292  0.6245 -0.5268
   53MOL   H20916953   4.000   8.411   7.096 -0.0350 -1.1151 -0.6915
   53MOL   C21016954   3.851   8.351   7.251 -0.7001 -0.4998 -0.9606
   53MOL   C21116955   3.900   8.209   7.302 -0.4368  0.5200 -0.1848
   53MOL   C21216956   4.039   8.174   7.305  0.4906 -0.2962  0.0079
   53MOL   C21316957   4.081   8.052   7.356  0.4665 -0.8606  0.0532
   53MOL   C21416958   3.989   7.962   7.412 -0.4941 -0.1818 -0.3450
   53MOL  Cl21516959   4.044   7.825   7.506 -0.7365  0.1687 -0.2865
   53MOL   C21616960   3.851   7.998   7.413  0.0076  0.2923 -1.0141
   53MOL   C21716961   3.805   8.120   7.358  0.0936 -0.0783  0.0557
   53MOL   C21816962   3.898   0.015   7.352 -0.6688  0.0770  0.8289
   53MOL   H21916963   3.742   8.350   7.259 -0.7892  0.0696 -1.9953
   53MOL   H22016964   4.115   8.239   7.266  0.8213 -2.0748 -2.4301
   53MOL   H22116965   4.186   8.026   7.349  0.4759 -0.9211  0.4195
   53MOL   H22216966   3.787   7.941   7.480  1.4839  1.2685  1.3097
   53MOL   H22316967   3.700   8.146   7.364  0.2666  0.8525 -0.7597
   53MOL   H22416968   4.005   0.033   7.349 -1.1897  3.3150 -1.8337
   53MOL   H22516969   3.872   0.116   7.320 -0.1682 -0.4998 -1.4895
   53MOL   C22616970   3.861   8.420   7.502  0.7963  0.0027  0.7432
   53MOL   C22716971   3.924   0.071   7.606  0.4673 -0.1518 -0.7170
   53MOL   C22816972   4.016   0.028   7.707  0.0038 -0.9330  0.0257
   53MOL   C22916973   4.073   0.121   7.793  0.1564 -0.0282 -0.0118
   53MOL   C23016974   4.035   0.259   7.788  0.2434  0.0199  0.9937
   53MOL  Cl23116975   4.111   0.359   7.902 -0.4638 -0.0599  0.2810
   53MOL   C23216976   3.936   0.303   7.695  0.0379  0.4173  0.5875
   53MOL   C23316977   3.885   0.204   7.608 -0.0591  0.3678 -0.0665
   53MOL   C23416978   3.710   8.409   7.520 -0.3265 -1.2686  0.0535
   53MOL   H23516979   3.913   8.328   7.528  2.4028 -0.1907 -2.8097
   53MOL   H23616980   4.040   8.366   7.712  1.1416 -0.8692 -3.0096
   53MOL   H23716981   4.150   0.082   7.858  1.2908  2.5589  0.2828
   53MOL   H23816982   3.897   0.404   7.700  1.1100  0.9964 -1.8024
   53MOL   H23916983   3.818   0.234   7.529 -0.8686  1.3010  0.9616
   53MOL   H24016984   3.675   0.053   7.465  1.0007  0.0149  1.2285
   53MOL   H24116985   3.664   8.331   7.459 -1.4940 -0.5723  0.0310
   53MOL   C24216986   3.650   8.383   7.658 -0.1118 -0.8436  0.4928
   53MOL   C24316987   3.497   8.390   7.648  0.1580  0.3307 -0.6749
   53MOL   C24416988   3.428   8.298   7.572 -0.2503  0.2762 -0.5256
   53MOL   C24516989   3.297   8.318   7.534  0.0705  0.3444  0.3918
   53MOL   C24616990   3.226   8.431   7.579 -0.5476 -0.2234 -0.7790
   53MOL  Cl24716991   3.070   0.025   7.514  0.4921  0.3243  0.2618
   53MOL   C24816992   3.282   0.080   7.670 -0.4965  0.3386  0.3989
   53MOL   C24916993   3.419   0.050   7.710 -0.3548 -0.1947 -0.6993
   53MOL   C25016994   3.714   8.257   7.713 -0.2918 -0.5374 -0.5405
   53MOL   H25116995   3.683   0.025   7.719 -0.0445 -0.1863 -0.4492
   53MOL   H25216996   3.481   8.218   7.523  0.7292 -0.2458  1.3688
   53MOL   H25316997   3.247   8.250   7.466 -0.6821  0.6210  0.6606
   53MOL   H25416998   3.226   0.165   7.705  0.6453  0.6189  1.6167
   53MOL   H25516999   3.466   0.123   7.774 -1.1618 -0.0862 -0.2134
   53MOL   H25617000   3.690   8.178   7.642  0.6617 -0.7121 -0.6763
   53MOL   H25717001   3.821   8.275   7.707 -0.7969  2.6766 -1.1217
   53MOL   C25817002   3.671   8.215   7.850 -0.0459  0.3205 -0.4521
   53MOL   C25917003   3.732   8.079   7.899 -0.0296 -0.4762 -0.2315
   53MOL   C26017004   3.870   8.063   7.915 -0.1722 -0.5365  0.2430
   53MOL   C26117005   3.917   7.942   7.959  0.2089 -0.1901  0.2174
   53MOL   C26217006   3.827   7.836   7.989 -0.4229  0.0245  0.3270
   53MOL  Cl26317007   3.895   7.689   8.039 -0.0871  0.1526 -0.3863
   53MOL   C26417008   3.684   7.848   7.974 -0.5238 -0.9366  0.4281
   53MOL   C26517009   3.645   7.972   7.922  0.7974  0.0675 -0.3973
   53MOL   C26617010   3.705   8.330   7.952 -0.3991 -0.1084  0.1514
   53MOL   H26717011   3.563   8.201   7.850 -0.1765  1.1587  2.2352
   53MOL   H26817012   3.944   8.140   7.901 -0.5073 -0.2302  0.1335
   53MOL   H26917013   4.023   7.926   7.971  0.6281  0.4460 -2.3085
   53MOL   H27017014   3.622   7.761   7.985 -2.2842  0.3047  0.6093
   53MOL   H27117015   3.540   7.995   7.911  0.8193  0.1314 -0.4707
   53MOL   H27217016   3.803   8.373   7.931  0.0492 -0.8186  0.7585
   53MOL   H27317017   3.632   8.409   7.939  1.3273  1.7451  1.5447
   53MOL   C27417018   3.690   8.295   8.102 -0.5590  0.2178 -0.1601
   53MOL   C27517019   3.814   8.228   8.164 -0.3467 -0.7795 -0.6161
   53MOL   C27617020   3.798   8.104   8.235 -0.4421  0.0411 -0.6451
   53MOL   C27717021   3.906   8.032   8.279  0.0798  0.5418  0.4323
   53MOL   C27817022   4.036   8.096   8.282  0.0209  0.0171 -0.7726
   53MOL  Cl27917023   4.159   8.004   8.356  0.1318 -0.2208  0.4825
   53MOL   C28017024   4.053   8.227   8.225  0.5357  0.0752  0.2937
   53MOL   C28117025   3.936   8.288   8.166  0.7036  0.2778 -0.0891
   53MOL   C28217026   3.647   8.414   8.188  0.6359  0.3145  0.1638
   53MOL   H28317027   3.611   8.221   8.109 -0.9898  0.3875 -2.9495
   53MOL   H28417028   3.703   8.053   8.243 -0.5143 -0.0840 -2.1139
   53MOL   H28517029   3.889   7.938   8.329  0.3815 -0.2233 -0.8684
   53MOL   H28617030   4.146   8.282   8.226 -0.0680  1.1481 -0.4384
   53MOL   H28717031   3.951   8.390   8.132  0.4953  0.0093 -0.9881
   53MOL   H28817032   3.711   8.415   8.276  0.7905 -1.7325  0.0968
   53MOL   H28917033   3.680   0.065   8.142 -0.8212  0.6701 -0.1619
   53MOL   C29017034   3.497   8.417   8.228  0.2236  0.7973  0.6149
   53MOL   C29117035   3.465   8.295   8.322  0.2454  0.2873  0.2445
   53MOL   C29217036   3.389   8.177   8.280 -0.6587  0.1400 -0.2077
   53MOL   C29317037   3.360   8.076   8.374 -0.3294  0.0292 -0.3140
   53MOL   C29417038   3.413   8.089   0.062  0.4693  0.1071  0.0956
   53MOL  Cl29517039   3.374   7.964   0.173 -0.4737  0.2541  0.2342
   53MOL   C29617040   3.488   8.199   0.104  0.1334  0.2060  0.0199
   53MOL   C29717041   3.518   8.299   0.011  0.0798  0.2202 -0.3563
   53MOL   C29817042   3.454   0.108   8.274  0.1543 -0.0531 -0.1322
   53MOL   H29917043   3.452   8.384   8.135  0.4227  1.2339  0.3625
   53MOL   H30017044   3.356   8.156   8.180 -2.4081 -0.8750  0.5550
   53MOL   H30117045   3.302   7.992   8.337 -2.6521  0.8686  1.3109
   53MOL   H30217046   3.511   8.199   0.209 -2.2815  1.6792  0.5859
   53MOL   H30317047   3.567   8.387   0.049  0.4426 -0.6736  1.3144
   53MOL   H30417048   3.531   0.142   8.343  2.0218 -1.5558 -1.3911
   53MOL   H30517049   3.471   0.177   8.192  0.6539 -0.6743 -0.5620
   53MOL   C30617050   3.310   0.110   8.330  0.4555 -0.6804  0.7639
   53MOL   C30717051   3.289   0.224   8.428  0.1770 -0.7432  0.0496
   53MOL   C30817052   3.196   0.205   0.087  0.3183 -0.1141 -0.1058
   53MOL   C30917053   3.163   0.308   0.180 -0.7682 -0.2416  0.5615
   53MOL   C31017054   3.225   0.433   0.163 -0.8486 -0.1105 -0.5682
   53MOL  Cl31117055   3.190   0.564   0.272 -0.0992  0.3532 -0.0345
   53MOL   C31217056   3.317   0.451   0.067  0.1779  0.4129  0.1881
   53MOL   C31317057   3.344   0.350   8.416 -0.5057 -0.3714  0.4475
   53MOL   C31417058   3.204   0.105   8.204  0.5917 -0.4258 -1.0900
   53MOL   H31517059   3.283   0.021   8.387 -1.8949 -0.8228 -0.4720
   53MOL   H31617060   3.145   0.111   0.104  0.6635 -0.4372 -0.8531
   53MOL   H31717061   3.083   0.291   0.250 -0.8055 -1.4111  0.2454
   53MOL   H31817062   3.363   0.547   0.053 -2.4565  1.9105  1.5404
   53MOL   H31917063   3.419   0.365   8.340 -1.1332  1.0144  0.0868
   53MOL   H32017064   3.228   0.187   8.136  1.6131  0.7532  0.6455
   53MOL   H32117065   3.208   0.005   8.162 -0.5060  0.2480 -2.9007
   53MOL   H32217066   3.104   0.125   8.244  1.0362 -1.8822  0.8157
   54MOL     C117067   3.810   6.613   7.765  0.4458 -0.2792 -0.3310
   54MOL     C217068   3.912   6.725   7.763 -0.0404  0.1085 -0.3694
   54MOL     C317069   4.010   6.725   7.658 -0.3548 -0.0850  0.1642
   54MOL     C417070   4.094   6.837   7.649  0.3317  0.7568  0.8919
   54MOL     C517071   4.087   6.941   7.742  0.6696 -0.0957 -0.7306
   54MOL    Cl617072   4.205   7.067   7.734  0.3394 -0.2372 -0.0224
   54MOL     C717073   3.991   6.935   7.847  0.7698 -0.4540  0.2714
   54MOL     C817074   3.902   6.828   7.860  0.1112 -0.0044  0.0851
   54MOL     C917075   3.675   6.648   7.691 -0.0975 -0.0369  0.4395
   54MOL    H1017076   3.792   6.586   7.869 -2.3042 -0.8918 -0.9181
   54MOL    H1117077   4.018   6.644   7.587 -0.8436 -0.5386  0.6272
   54MOL    H1217078   4.178   6.838   7.581  0.4497  0.1557  1.0258
   54MOL    H1317079   3.986   7.003   7.930 -1.6247  0.4880 -0.5815
   54MOL    H1417080   3.826   6.828   7.936 -0.1137  0.0812 -0.1388
   54MOL    H1517081   3.624   6.719   7.756  0.1911  0.6110 -0.0325
   54MOL    H1617082   3.708   6.684   7.593 -0.8552 -2.4658 -0.7507
   54MOL    H1717083   3.858   6.531   7.712  1.0267  0.7623 -1.4586
   54MOL    C1817084   3.593   6.522   7.650  0.4879 -0.2246 -0.1630
   54MOL    C1917085   3.537   6.435   7.767 -0.2026 -0.1514  0.5195
   54MOL    C2017086   3.551   6.293   7.762  0.4143 -0.2088 -0.5725
   54MOL    C2117087   3.493   6.212   7.862  0.2352  0.4995 -0.1733
   54MOL    C2217088   3.418   6.276   7.969  0.0611 -0.6508  0.4740
   54MOL   Cl2317089   3.347   6.178   8.089  0.3552  0.2790 -0.2392
   54MOL    C2417090   3.407   6.418   7.969  0.3160  0.1375 -0.0806
   54MOL    C2517091   3.468   6.497   7.874  0.4973  0.0919 -0.2489
   54MOL    C2617092   3.478   6.564   7.553  0.0019  0.1665  0.0769
   54MOL    H2717093   3.658   6.456   7.593 -0.2156 -1.2741  0.2333
   54MOL    H2817094   3.605   6.236   7.688  0.5104 -3.4803  1.9145
   54MOL    H2917095   3.507   6.105   7.865  1.7592  0.6681 -0.8169
   54MOL    H3017096   3.357   6.474   8.047  2.8826  0.4381  1.4010
   54MOL    H3117097   3.465   6.604   7.886  1.0926 -0.1141  1.8825
   54MOL    H3217098   3.412   6.636   7.603  0.8088  0.9920 -0.0345
   54MOL    H3317099   3.520   6.619   7.469  0.4486 -0.1123  0.1217
   54MOL    C3417100   3.384   6.457   7.494  0.4458  0.3110 -0.2148
   54MOL    C3517101   3.267   6.535   7.429  0.0511  0.4351 -0.0235
   54MOL    C3617102   3.141   6.548   7.487 -0.4731  0.9690 -0.1495
   54MOL    C3717103   3.029   6.602   7.419 -0.5125 -0.3559  0.3174
   54MOL    C3817104   3.047   6.651   7.288  0.0771 -0.2314 -0.4560
   54MOL   Cl3917105   2.917   6.730   7.209 -0.1825  0.1406 -0.5028
   54MOL    C4017106   3.176   6.652   7.227  0.0473 -0.0606  0.8082
   54MOL    C4117107   3.283   6.585   7.296 -0.1953 -0.3910  0.1223
   54MOL    C4217108   3.442   6.349   7.404  0.0711 -0.2990  0.9428
   54MOL    H4317109   3.332   6.409   7.577  0.7141  1.3396  0.5671
   54MOL    H4417110   3.131   6.507   7.587  1.4904  0.7620 -0.0195
   54MOL    H4517111   2.933   6.606   7.468 -0.2581  2.2507  0.7031
   54MOL    H4617112   3.192   6.703   7.133 -0.5722 -0.4534  0.4890
   54MOL    H4717113   3.385   6.595   7.262 -0.3345  1.4871  0.1869
   54MOL    H4817114   3.436   6.368   7.297  3.4436 -3.3171  0.1382
   54MOL    H4917115   3.549   6.345   7.423 -0.1027  1.6781  2.4558
   54MOL    C5017116   3.395   6.209   7.445 -0.2872 -0.5685 -0.7942
   54MOL    C5117117   3.249   6.195   7.456  0.3798  0.1557 -1.0355
   54MOL    C5217118   3.160   6.228   7.348  0.8657 -0.2032  0.2088
   54MOL    C5317119   3.024   6.195   7.354  0.0348  0.6237 -0.1392
   54MOL    C5417120   2.966   6.141   7.472  0.2501 -0.6390  0.1736
   54MOL   Cl5517121   2.799   6.097   7.483  0.0707 -0.0292 -0.1163
   54MOL    C5617122   3.051   6.118   7.582  0.6118  0.5701 -0.6958
   54MOL    C5717123   3.193   6.142   7.574 -0.6216  0.3276  0.1173
   54MOL    C5817124   3.440   6.105   7.333  0.6835 -0.4008  0.4806
   54MOL    H5917125   3.430   6.186   7.546  0.4820  0.6675 -0.7731
   54MOL    H6017126   3.192   6.266   7.252 -3.8947  1.2201 -0.9829
   54MOL    H6117127   2.961   6.202   7.267  0.6265  0.4551 -0.5859
   54MOL    H6217128   3.018   6.080   7.678  0.2386  2.3960 -0.0841
   54MOL    H6317129   3.252   6.114   7.659 -1.6201 -1.4598  0.2414
   54MOL    H6417130   3.399   6.008   7.359 -1.2064  0.2950  0.1904
   54MOL    H6517131   3.401   6.137   7.236 -0.2028 -0.2862  0.8628
   54MOL    C6617132   3.595   6.082   7.320 -0.3221  0.2849 -0.5247
   54MOL    C6717133   3.648   6.049   7.457 -0.3235 -0.4941  0.6628
   54MOL    C6817134   3.762   6.122   7.501  0.5662 -0.5767 -0.4913
   54MOL    C6917135   3.821   6.093   7.630 -0.3705 -0.9391  0.4669
   54MOL    C7017136   3.767   5.988   7.702 -0.0094 -0.4301 -0.7893
   54MOL   Cl7117137   3.824   5.975   7.861  0.4574 -0.3587 -0.2922
   54MOL    C7217138   3.660   5.912   7.660 -0.3917  0.5942 -0.2448
   54MOL    C7317139   3.597   5.943   7.538  0.0071 -0.2077 -0.3700
   54MOL    C7417140   3.635   5.971   7.219  0.4301 -0.5064 -0.3460
   54MOL    H7517141   3.642   6.177   7.294  0.9965  0.1840  1.3694
   54MOL    H7617142   3.787   6.209   7.443 -1.1313  0.6826  0.6221
   54MOL    H7717143   3.904   6.155   7.661 -0.4826 -1.1173  1.1132
   54MOL    H7817144   3.629   5.828   7.722 -1.7043  1.2646  0.0345
   54MOL    H7917145   3.508   5.896   7.499 -0.4728  0.0304  0.4429
   54MOL    H8017146   3.743   5.977   7.203  0.5786  1.2157  1.1687
   54MOL    H8117147   3.629   5.873   7.267 -2.3535 -0.2388 -0.0805
   54MOL    C8217148   3.577   5.981   7.074  0.0007 -0.4147  0.5019
   54MOL    C8317149   3.606   6.113   6.998 -0.1731  0.1642  0.6095
   54MOL    C8417150   3.501   6.179   6.928  0.2931 -0.2891 -0.2487
   54MOL    C8517151   3.533   6.302   6.867 -0.3801  0.0848 -0.2272
   54MOL    C8617152   3.663   6.354   6.868 -0.2738 -0.1268 -1.0893
   54MOL   Cl8717153   3.687   6.511   6.799  0.2319 -0.0349 -0.4904
   54MOL    C8817154   3.766   6.277   6.925 -0.2975 -0.3005  0.3822
   54MOL    C8917155   3.739   6.153   6.990 -0.1150  0.0092  0.1174
   54MOL    C9017156   3.624   5.867   6.983 -0.3334 -0.2469 -0.2882
   54MOL    H9117157   3.468   5.973   7.080 -0.0168 -1.4618 -0.9811
   54MOL    H9217158   3.398   6.146   6.929 -0.2979  1.4853  0.7880
   54MOL    H9317159   3.456   6.362   6.821  0.2278  0.2975 -0.9718
   54MOL    H9417160   3.860   6.329   6.930 -1.0005  0.9358  1.1291
   54MOL    H9517161   3.820   6.096   7.034  0.0722 -0.3469 -0.6861
   54MOL    H9617162   3.731   5.864   6.964 -0.5783  0.4447 -1.9017
   54MOL    H9717163   3.614   5.775   7.040  1.7778  0.2648  0.9424
   54MOL    C9817164   3.555   5.833   6.848 -0.2736 -0.2477  0.4168
   54MOL    C9917165   3.644   5.844   6.723 -0.5802  0.1958 -0.4647
   54MOL   C10017166   3.727   5.741   6.675 -0.4641 -0.0597 -0.1329
   54MOL   C10117167   3.798   5.763   6.554  0.5198 -0.1531 -0.0000
   54MOL   C10217168   3.779   5.880   6.477 -0.6469 -0.1011  0.7426
   54MOL  Cl10317169   3.849   5.890   6.317  0.2572 -0.4567  0.3770
   54MOL   C10417170   3.698   5.978   6.520  0.3495 -0.3630 -0.0691
   54MOL   C10517171   3.632   5.968   6.645 -0.5205 -0.4336 -0.3051
   54MOL   C10617172   3.483   5.696   6.851 -0.3761  0.0743  0.0923
   54MOL   H10717173   3.473   5.904   6.849 -0.1167 -0.0706  1.7616
   54MOL   H10817174   3.744   5.653   6.735  0.3587 -1.7252 -2.6940
   54MOL   H10917175   3.858   5.678   6.526  0.8267  0.4193 -1.1089
   54MOL   H11017176   3.684   6.061   6.452 -0.2400 -0.6724 -0.3284
   54MOL   H11117177   3.551   6.034   6.670 -1.6031 -2.2267  1.0350
   54MOL   H11217178   3.562   5.622   6.865  1.6500  1.6951 -2.2023
   54MOL   H11317179   3.420   5.695   6.940 -0.1183 -0.8522  0.2689
   54MOL   C11417180   3.409   5.667   6.716  0.5392  0.0996 -0.0406
   54MOL   C11517181   3.379   5.517   6.703  0.3776 -0.5851  0.2501
   54MOL   C11617182   3.332   5.442   6.810  0.2902  0.8918 -0.0403
   54MOL   C11717183   3.305   5.302   6.797 -0.6503 -0.6526  0.0315
   54MOL   C11817184   3.311   5.241   6.668 -0.5710 -0.6120  0.2659
   54MOL  Cl11917185   3.275   5.072   6.654 -0.2794  0.1126  0.4808
   54MOL   C12017186   3.358   5.317   6.564 -0.1180 -0.6583 -0.3144
   54MOL   C12117187   3.386   5.458   6.576  0.0364 -0.5955 -0.2585
   54MOL   C12217188   3.287   5.755   6.685  0.2484 -0.6830 -0.5159
   54MOL   H12317189   3.478   5.680   6.633  0.8583 -0.8354  0.0700
   54MOL   H12417190   3.328   5.486   6.908  0.1656 -0.7546  0.7077
   54MOL   H12517191   3.288   5.243   6.885 -0.5364 -0.7877 -0.0379
   54MOL   H12617192   3.349   5.260   6.472  0.3721 -1.6719  0.2566
   54MOL   H12717193   3.416   5.514   6.488 -1.3409 -1.5997 -1.3935
   54MOL   H12817194   3.315   5.859   6.701  0.0358 -0.7376  0.2071
   54MOL   H12917195   3.282   5.749   6.576 -0.3120  0.7926 -0.5866
   54MOL   C13017196   3.153   5.718   6.744 -0.5852  0.3113 -0.6906
   54MOL   C13117197   3.149   5.750   6.894  0.2853 -0.4976 -0.2585
   54MOL   C13217198   3.109   5.650   6.989 -0.9582 -0.3481  0.4317
   54MOL   C13317199   3.105   5.670   7.125 -0.1613  0.2859 -0.3378
   54MOL   C13417200   3.168   5.783   7.179  0.5605 -0.1028  0.5210
   54MOL  Cl13517201   3.211   5.799   7.343 -0.4333 -0.4404  0.1930
   54MOL   C13617202   3.202   5.888   7.083 -0.2706 -0.3318 -0.1709
   54MOL   C13717203   3.195   5.873   6.946  0.4588 -0.0604  0.5332
   54MOL   C13817204   3.033   5.799   6.686  0.5999  0.1883  0.2473
   54MOL   H13917205   3.132   5.612   6.732  0.2659 -0.2535  2.3715
   54MOL   H14017206   3.091   5.552   6.947  0.8623 -0.1999 -0.7750
   54MOL   H14117207   3.073   5.594   7.195  0.8503  1.0110  0.9368
   54MOL   H14217208   3.235   5.984   7.119  0.3917 -0.6251  0.0148
   54MOL   H14317209   3.233   5.951   6.883  2.2045 -0.8921  0.5358
   54MOL   H14417210   2.962   5.820   6.766  0.7481 -1.4144  0.8040
   54MOL   H14517211   3.074   5.897   6.661  1.3401 -0.1791 -0.0046
   54MOL   C14617212   2.938   5.738   6.580 -0.1399 -0.2958  0.7579
   54MOL   C14717213   2.815   5.821   6.550  1.1006  0.4264  0.0147
   54MOL   C14817214   2.688   5.769   6.595 -0.2838 -0.3812  0.5605
   54MOL   C14917215   2.575   5.844   6.567 -0.0043  0.4015  0.0225
   54MOL   C15017216   2.584   5.976   6.516 -0.2139 -1.0400  0.5084
   54MOL  Cl15117217   2.441   6.074   6.496  0.0096 -0.0453 -0.1732
   54MOL   C15217218   2.712   6.030   6.485 -0.3433 -0.2103 -0.1166
   54MOL   C15317219   2.829   5.947   6.487 -0.3821  0.7861  0.1775
   54MOL   C15417220   3.028   5.712   6.451 -0.0119 -0.3908  0.3956
   54MOL   H15517221   2.906   5.642   6.619  0.7649 -1.3406 -1.0485
   54MOL   H15617222   2.681   5.673   6.644 -0.0563 -0.2913  0.7719
   54MOL   H15717223   2.477   5.808   6.591  1.1426 -1.1530  2.6002
   54MOL   H15817224   2.711   6.134   6.455  2.7175  0.6675  2.5568
   54MOL   H15917225   2.923   5.984   6.446  0.2327 -0.2609  0.6347
   54MOL   H16017226   3.061   5.810   6.416  0.0271 -0.7041 -0.4528
   54MOL   H16117227   3.119   5.659   6.478  0.4415 -1.0289 -2.1986
   54MOL   C16217228   2.957   5.644   6.325 -0.0230  0.8874 -0.3530
   54MOL   C16317229   3.065   5.641   6.216 -0.7337 -0.3464 -0.0001
   54MOL   C16417230   3.187   5.572   6.239  0.9049  0.2938 -0.2402
   54MOL   C16517231   3.278   5.556   6.129  0.7511 -0.4109  0.1320
   54MOL   C16617232   3.250   5.618   6.006  0.4124  0.2165 -0.6760
   54MOL  Cl16717233   3.363   5.603   5.881  0.0453 -0.0237 -0.2314
   54MOL   C16817234   3.133   5.685   5.980 -0.5972  0.1642  0.1968
   54MOL   C16917235   3.039   5.695   6.087 -0.6333  0.2471  0.7778
   54MOL   C17017236   2.884   5.509   6.357  0.3919  0.2603  0.2853
   54MOL   H17117237   2.873   5.703   6.289 -0.5419 -0.6709 -1.7586
   54MOL   H17217238   3.216   5.537   6.337  0.9578 -2.2107 -1.1094
   54MOL   H17317239   3.365   5.494   6.143  0.2402 -1.2103 -0.1826
   54MOL   H17417240   3.109   5.727   5.883  1.2861  2.7781  0.8278
   54MOL   H17517241   2.945   5.742   6.066 -0.8573 -0.2165  0.7455
   54MOL   H17617242   2.968   5.440   6.365 -0.3896 -0.7786 -0.3881
   54MOL   H17717243   2.830   5.511   6.452  0.9226  1.0495  0.5769
   54MOL   C17817244   2.795   5.448   6.249 -0.3216  0.4582  0.6363
   54MOL   C17917245   2.674   5.530   6.231 -0.0311  0.2287 -0.1088
   54MOL   C18017246   2.569   5.514   6.326  0.3395  1.3032 -0.2147
   54MOL   C18117247   2.461   5.604   6.330 -0.2869  0.0179 -0.1681
   54MOL   C18217248   2.444   5.701   6.224 -0.6216  1.1049  0.1774
   54MOL  Cl18317249   2.294   5.795   6.224 -0.4453  0.1414 -0.0985
   54MOL   C18417250   2.537   5.702   6.117  0.5126 -0.4149  0.1876
   54MOL   C18517251   2.653   5.622   6.126 -0.2244  0.4015  0.1369
   54MOL   C18617252   2.855   5.401   6.113 -0.1169 -0.3943  0.1350
   54MOL   H18717253   2.754   5.355   6.290  1.6624 -0.7249 -0.0293
   54MOL   H18817254   2.580   5.446   6.409  0.0982  0.5245 -0.8183
   54MOL   H18917255   2.390   5.594   6.411 -0.1153 -1.1179 -0.1460
   54MOL   H19017256   2.528   5.769   6.033  1.8767  1.4563  1.5088
   54MOL   H19117257   2.719   5.635   6.042 -0.8999  1.7862 -0.1929
   54MOL   H19217258   2.774   5.358   6.054 -1.3196 -0.7733  2.0172
   54MOL   H19317259   2.878   5.490   6.054  0.9838  0.2911  1.5537
   54MOL   C19417260   2.983   5.309   6.105  0.3952 -0.0177 -0.0759
   54MOL   C19517261   2.962   5.176   6.170  0.0312  0.1530 -0.1129
   54MOL   C19617262   2.838   5.105   6.151  0.3713 -0.2056  0.1078
   54MOL   C19717263   2.830   4.970   6.193  0.0778 -0.3302  0.5440
   54MOL   C19817264   2.937   4.907   6.254  0.4098  0.0488 -0.2368
   54MOL  Cl19917265   2.919   4.738   6.293 -0.2915 -0.5641 -0.1366
   54MOL   C20017266   3.053   4.981   6.287 -0.0093 -0.3993  0.1990
   54MOL   C20117267   3.067   5.109   6.239  0.0273 -0.0134 -0.2394
   54MOL   C20217268   3.050   5.292   5.967 -0.1424 -0.2247  0.1918
   54MOL   H20317269   3.063   5.353   6.165 -0.3789  1.4252 -0.0802
   54MOL   H20417270   2.751   5.137   6.095  0.2417 -1.6220 -0.5322
   54MOL   H20517271   2.740   4.914   6.170  0.0948 -0.2133  0.1745
   54MOL   H20617272   3.134   4.931   6.340  1.6886  0.8596 -1.1373
   54MOL   H20717273   3.164   5.154   6.255  0.4463 -0.9858 -0.0173
   54MOL   H20817274   3.094   5.386   5.933 -1.0876  0.0303 -0.3173
   54MOL   H20917275   3.141   5.231   5.973  0.6635  0.8657 -0.6995
   54MOL   C21017276   2.950   5.240   5.850 -0.6479  0.1905  0.0712
   54MOL   C21117277   2.861   5.351   5.794  0.9530 -0.1894 -0.0480
   54MOL   C21217278   2.717   5.331   5.788 -0.5135  1.0408  0.8120
   54MOL   C21317279   2.642   5.416   5.709 -0.0187  0.0073 -0.4565
   54MOL   C21417280   2.700   5.524   5.648  0.2082 -0.3412 -0.1816
   54MOL  Cl21517281   2.609   5.607   5.528 -0.3366  0.2963  0.1259
   54MOL   C21617282   2.837   5.558   5.674 -0.0909  0.1805 -0.5704
   54MOL   C21717283   2.918   5.473   5.747  0.3671  0.3672  0.0694
   54MOL   C21817284   3.031   5.172   5.742 -0.0018  0.8456 -0.1625
   54MOL   H21917285   2.898   5.151   5.888 -0.8584 -1.0896 -3.0706
   54MOL   H22017286   2.677   5.239   5.829  1.0595 -0.0369 -0.0327
   54MOL   H22117287   2.538   5.393   5.691 -0.3124 -1.2143  2.4697
   54MOL   H22217288   2.882   5.642   5.623 -0.7347  0.9065  0.0365
   54MOL   H22317289   3.025   5.467   5.738  0.5445  0.5602  2.0103
   54MOL   H22417290   3.112   5.244   5.724  0.8699  0.0280  0.4397
   54MOL   H22517291   3.078   5.082   5.780 -1.3044  0.3732  0.3564
   54MOL   C22617292   2.958   5.126   5.615 -0.7106  0.4784 -0.3305
   54MOL   C22717293   3.069   5.074   5.523  0.0370  0.5159  0.1103
   54MOL   C22817294   3.093   4.937   5.494 -0.2273  0.1645 -0.5260
   54MOL   C22917295   3.194   4.899   5.408  0.0050 -0.2971 -0.1624
   54MOL   C23017296   3.264   4.994   5.334  0.3650 -0.3307  0.5344
   54MOL  Cl23117297   3.365   4.936   5.205  0.0282 -0.1968  0.3377
   54MOL   C23217298   3.238   5.129   5.354  0.2330  0.1162 -0.3237
   54MOL   C23317299   3.138   5.165   5.439  0.2518 -0.1920  0.1715
   54MOL   C23417300   2.835   5.031   5.632  0.5569  0.4670  0.2427
   54MOL   H23517301   2.914   5.218   5.577  0.2687  1.7465  1.5226
   54MOL   H23617302   3.043   4.857   5.547 -0.5779  0.9036  0.2531
   54MOL   H23717303   3.220   4.795   5.394  0.0981 -0.5241  1.5575
   54MOL   H23817304   3.296   5.202   5.298  2.4236 -0.3494  1.2827
   54MOL   H23917305   3.112   5.270   5.447  0.8577 -0.2073  2.5032
   54MOL   H24017306   2.861   4.927   5.655  3.4026  0.8382 -1.1152
   54MOL   H24117307   2.777   5.062   5.719 -0.8668 -1.6586  0.0778
   54MOL   C24217308   2.743   5.032   5.503  0.6022  0.5262 -0.3430
   54MOL   C24317309   2.634   4.921   5.513  0.2624 -0.2122 -1.2402
   54MOL   C24417310   2.645   4.798   5.437  0.3525 -0.1954 -0.9757
   54MOL   C24517311   2.541   4.702   5.457  0.1003  0.3925 -1.0552
   54MOL   C24617312   2.434   4.731   5.544 -0.5115 -0.2581 -0.8541
   54MOL  Cl24717313   2.295   4.629   5.561  0.0357  0.1332 -0.0590
   54MOL   C24817314   2.427   4.852   5.611 -0.0246  0.0399  0.4156
   54MOL   C24917315   2.532   4.942   5.603  0.0096  0.7081  0.0142
   54MOL   C25017316   2.684   5.167   5.469  0.1160  0.9050  0.3483
   54MOL   H25117317   2.800   4.998   5.416  2.6375  0.5367  0.9595
   54MOL   H25217318   2.730   4.778   5.374  1.9843 -1.1604  1.4300
   54MOL   H25317319   2.532   4.611   5.400 -0.2411  0.1431 -0.6103
   54MOL   H25417320   2.336   4.873   5.665  0.1652  1.3058  0.2430
   54MOL   H25517321   2.536   5.032   5.662  0.4493 -0.7839  2.3186
   54MOL   H25617322   2.613   5.194   5.546 -2.6780  0.4142 -1.9832
   54MOL   H25717323   2.757   5.246   5.451  0.6837 -0.1182 -2.2041
   54MOL   C25817324   2.597   5.176   5.345 -0.2964 -0.3154  0.3365
   54MOL   C25917325   2.442   5.185   5.373 -0.5153  0.2905 -0.1366
   54MOL   C26017326   2.359   5.077   5.335  0.4005  0.1025  0.0351
   54MOL   C26117327   2.221   5.087   5.356 -0.2955  0.4443 -0.1944
   54MOL   C26217328   2.170   5.202   5.412 -0.3724  0.0135  0.1543
   54MOL  Cl26317329   2.006   5.209   5.461 -0.2293  0.4667 -0.4402
   54MOL   C26417330   2.254   5.316   5.439 -0.1018 -0.2175  0.0819
   54MOL   C26517331   2.388   5.306   5.416  1.2515 -0.4594  0.0572
   54MOL   C26617332   2.639   5.286   5.251 -0.3745 -0.1438 -0.1190
   54MOL   H26717333   2.615   5.084   5.290 -3.8525 -0.6120 -0.4468
   54MOL   H26817334   2.394   4.984   5.292  0.0471  0.0135 -0.0602
   54MOL   H26917335   2.161   5.006   5.316  1.8615  0.3231 -3.4236
   54MOL   H27017336   2.213   5.408   5.479  0.4728 -0.3834  1.0645
   54MOL   H27117337   2.446   5.389   5.455 -0.3836  0.6945  0.0616
   54MOL   H27217338   2.558   5.312   5.183  0.1803  1.3658 -0.2044
   54MOL   H27317339   2.657   5.372   5.315  0.4606  0.6322 -1.3967
   54MOL   C27417340   2.768   5.271   5.172 -0.3905 -0.1107  0.8483
   54MOL   C27517341   2.798   5.138   5.113  0.5537 -0.6785 -0.0829
   54MOL   C27617342   2.902   5.056   5.160 -0.2103 -0.0897  0.7640
   54MOL   C27717343   2.903   4.919   5.123 -0.7662 -0.4241  0.3597
   54MOL   C27817344   2.815   4.871   5.024  0.2225  0.2926 -0.2445
   54MOL  Cl27917345   2.816   4.693   4.992  0.0703 -0.4155  0.4413
   54MOL   C28017346   2.718   4.953   4.971  0.2934 -0.3651  0.0991
   54MOL   C28117347   2.708   5.081   5.021  0.6602  0.0173  0.2592
   54MOL   C28217348   2.788   5.386   5.070 -0.1505 -0.4068  0.8481
   54MOL   H28317349   2.855   5.292   5.235 -1.1327  2.3393  1.1144
   54MOL   H28417350   2.976   5.095   5.229  2.2107 -2.3117 -0.4497
   54MOL   H28517351   2.968   4.852   5.177 -1.1674 -1.1513 -0.0469
   54MOL   H28617352   2.636   4.908   4.917  2.0030 -1.9754 -1.2212
   54MOL   H28717353   2.640   5.156   4.983  1.4655  1.8819  2.3810
   54MOL   H28817354   2.875   5.369   5.007 -1.2153 -0.4461 -0.6450
   54MOL   H28917355   2.699   5.371   5.008  0.4501 -1.0711  0.1405
   54MOL   C29017356   2.810   5.534   5.126  0.3878  0.1017 -0.4131
   54MOL   C29117357   2.929   5.544   5.222 -0.2160 -0.0345  1.1796
   54MOL   C29217358   2.926   5.646   5.319 -0.0525 -0.2880 -0.4033
   54MOL   C29317359   3.038   5.666   5.407 -0.2969 -0.2183 -0.8574
   54MOL   C29417360   3.147   5.586   5.396 -0.2010  0.5604 -0.2369
   54MOL  Cl29517361   3.284   5.613   5.496  0.0576 -0.3542 -0.1985
   54MOL   C29617362   3.146   5.480   5.299  0.4079 -0.3822  0.3215
   54MOL   C29717363   3.047   5.465   5.203  0.4187  0.2934  0.3968
   54MOL   C29817364   2.806   5.639   5.009 -0.2249 -0.5604  0.8970
   54MOL   H29917365   2.727   5.572   5.187  2.2007  1.4824  1.2332
   54MOL   H30017366   2.842   5.712   5.338  3.0398  3.2135  1.5568
   54MOL   H30117367   3.035   5.742   5.484 -3.8565 -0.8577 -0.2650
   54MOL   H30217368   3.232   5.415   5.299  0.3323 -0.4830  0.4160
   54MOL   H30317369   3.050   5.384   5.131  0.9806  1.6285 -1.1164
   54MOL   H30417370   2.825   5.740   5.045 -2.1613  0.4574 -0.8204
   54MOL   H30517371   2.882   5.617   4.934 -1.4106  0.6578 -0.6977
   54MOL   C30617372   2.668   5.634   4.928  0.4601 -0.4146 -0.2633
   54MOL   C30717373   2.550   5.650   5.010  0.1283  0.2147 -0.0721
   54MOL   C30817374   2.534   5.746   5.112  0.1950  0.0367  0.3313
   54MOL   C30917375   2.413   5.755   5.180  0.5186  0.1141  0.0319
   54MOL   C31017376   2.318   5.652   5.171  0.1322 -0.3005  0.0711
   54MOL  Cl31117377   2.176   5.650   5.267 -0.1493 -0.2725  0.7210
   54MOL   C31217378   2.336   5.549   5.080  0.7764 -0.4136  0.1973
   54MOL   C31317379   2.446   5.548   4.995 -0.2473  0.1653 -0.0654
   54MOL   C31417380   2.667   5.754   4.833  0.0428 -0.2702  0.0817
   54MOL   H31517381   2.657   5.552   4.857 -1.0481 -0.2888 -0.1810
   54MOL   H31617382   2.610   5.817   5.140 -0.3842  0.4870  0.7710
   54MOL   H31717383   2.386   5.834   5.248 -2.3728 -1.7113  1.0954
   54MOL   H31817384   2.263   5.471   5.068  1.9218 -1.4109 -0.3733
   54MOL   H31917385   2.473   5.467   4.928 -0.2739  0.8534 -0.9271
   54MOL   H32017386   2.572   5.757   4.780 -1.4262  2.3951  2.7638
   54MOL   H32117387   2.685   5.853   4.875  0.4070 -0.2179 -0.1943
   54MOL   H32217388   2.750   5.737   4.764  0.6848 -0.3794  0.8607
   55MOL     C117389   5.121   6.762   4.641  0.3788 -0.4902  0.5686
   55MOL     C217390   5.125   6.701   4.781 -0.2556 -0.0032 -0.1868
   55MOL     C317391   5.248   6.689   4.847  0.0419  0.8596  0.2298
   55MOL     C417392   5.254   6.627   4.976 -0.5078  0.1787 -0.2848
   55MOL     C517393   5.132   6.578   5.034  0.0800 -0.4543  0.4567
   55MOL    Cl617394   5.129   6.495   5.181  0.0128 -0.1102 -0.1805
   55MOL     C717395   5.012   6.597   4.966 -0.2888 -0.7658 -0.4655
   55MOL     C817396   5.005   6.663   4.848 -0.3082  0.3525  0.4197
   55MOL     C917397   5.088   6.668   4.533  0.7633 -0.1507 -0.3245
   55MOL    H1017398   5.217   6.811   4.625  0.1414 -0.2318 -0.0614
   55MOL    H1117399   5.340   6.709   4.795 -0.9931  1.3124 -1.4801
   55MOL    H1217400   5.346   6.603   5.026  0.4375  1.3722 -1.4020
   55MOL    H1317401   4.916   6.566   5.004 -0.8837  2.1550  0.5273
   55MOL    H1417402   4.907   6.679   4.804  0.4754 -1.0517 -1.9499
   55MOL    H1517403   5.165   6.591   4.531  0.1119 -0.7961 -0.6651
   55MOL    H1617404   4.997   6.614   4.558  1.3786  0.0292  2.4528
   55MOL    H1717405   5.043   6.837   4.644  0.3465 -0.5682  1.7941
   55MOL    C1817406   5.071   6.733   4.396 -0.1383 -0.0911  0.1510
   55MOL    C1917407   5.197   6.802   4.335  0.5511  0.0551 -0.1116
   55MOL    C2017408   5.331   6.752   4.347  0.4108 -0.0962 -0.1227
   55MOL    C2117409   5.443   6.822   4.306  0.2595  0.4596 -1.3649
   55MOL    C2217410   5.429   6.938   4.225 -0.7205  0.1482  0.1591
   55MOL   Cl2317411   5.573   7.021   4.160  0.2163 -0.6957  0.0456
   55MOL    C2417412   5.301   6.991   4.205  0.0416  0.2248 -0.0422
   55MOL    C2517413   5.183   6.917   4.251 -0.1095 -0.4255 -0.2764
   55MOL    C2617414   5.002   6.638   4.295  0.7842 -0.4198 -0.4379
   55MOL    H2717415   5.005   6.818   4.410  0.2851  0.3045 -0.2568
   55MOL    H2817416   5.347   6.660   4.402  0.9396  0.3551  0.4930
   55MOL    H2917417   5.540   6.780   4.325 -0.3480  0.3206  1.7182
   55MOL    H3017418   5.294   7.087   4.156  1.5480  0.4092  0.0615
   55MOL    H3117419   5.086   6.961   4.238 -1.2488 -2.4906  0.9708
   55MOL    H3217420   4.898   6.629   4.326  1.2280  0.2349  1.3003
   55MOL    H3317421   4.981   6.696   4.204  1.6401  2.0070  0.8527
   55MOL    C3417422   5.073   6.507   4.253 -0.0633  0.0514 -0.1706
   55MOL    C3517423   5.092   6.400   4.353 -0.0116  0.3242  0.1169
   55MOL    C3617424   4.988   6.361   4.443  0.0686 -0.2488  0.1709
   55MOL    C3717425   5.011   6.272   4.549 -0.0957  0.3454 -0.1278
   55MOL    C3817426   5.142   6.214   4.564  0.4414 -0.3228 -0.1790
   55MOL   Cl3917427   5.178   6.102   4.683 -0.4110  0.6689  0.1245
   55MOL    C4017428   5.244   6.249   4.466  0.0248  0.6699 -0.3965
   55MOL    C4117429   5.215   6.339   4.357 -0.7691 -0.1511 -0.4576
   55MOL    C4217430   5.014   6.454   4.117  0.0400  0.1513 -0.1235
   55MOL    H4317431   5.174   6.534   4.222  0.3947 -0.0633  1.1937
   55MOL    H4417432   4.897   6.417   4.461  0.3251 -0.5451  2.5253
   55MOL    H4517433   4.932   6.247   4.619  1.1511  0.2304  1.2541
   55MOL    H4617434   5.340   6.200   4.475 -0.9950 -1.3591 -0.3914
   55MOL    H4717435   5.289   6.368   4.284  0.8638 -0.7634  0.9326
   55MOL    H4817436   5.002   6.531   4.040 -0.4754 -2.8848 -3.2179
   55MOL    H4917437   5.079   6.379   4.071 -0.4850 -0.6111  0.3718
   55MOL    C5017438   4.869   6.403   4.124  0.6243 -0.4426  0.2199
   55MOL    C5117439   4.763   6.493   4.061 -0.1583 -0.4234 -0.5834
   55MOL    C5217440   4.738   6.489   3.924  0.2324 -0.7915  0.1355
   55MOL    C5317441   4.635   6.564   3.869 -0.3614  0.3099 -0.2419
   55MOL    C5417442   4.548   6.640   3.949  0.4054  0.9622  0.3568
   55MOL   Cl5517443   4.414   6.715   3.871 -0.3479 -0.0138  0.0132
   55MOL    C5617444   4.566   6.637   4.084  0.2957  0.0781 -0.4274
   55MOL    C5717445   4.678   6.571   4.142 -0.5088  0.4094  0.6958
   55MOL    C5817446   4.853   6.260   4.069  0.0097  0.2337  0.4898
   55MOL    H5917447   4.849   6.403   4.231 -1.5807 -0.9223 -0.1733
   55MOL    H6017448   4.801   6.452   3.845 -0.9500  2.4562 -2.4373
   55MOL    H6117449   4.619   6.572   3.762  1.8739 -1.9799 -0.8114
   55MOL    H6217450   4.501   6.687   4.155 -1.1109 -0.5567 -1.2571
   55MOL    H6317451   4.685   6.570   4.250  1.7154 -1.2751  0.5609
   55MOL    H6417452   4.838   6.260   3.962  0.2500 -2.1018  0.4310
   55MOL    H6517453   4.949   6.212   4.090  0.4792  1.1305  0.4073
   55MOL    C6617454   4.731   6.176   4.128 -0.2466  0.4584  0.8666
   55MOL    C6717455   4.656   6.099   4.022 -0.0407 -0.2385 -0.0454
   55MOL    C6817456   4.722   5.991   3.953  0.3417  0.0314  0.0102
   55MOL    C6917457   4.667   5.928   3.842 -0.6876 -0.0684 -0.0785
   55MOL    C7017458   4.540   5.965   3.804  0.3587  0.1267 -0.4341
   55MOL   Cl7117459   4.461   5.886   3.672 -0.1515  0.4510 -0.7395
   55MOL    C7217460   4.473   6.075   3.871 -0.0552 -0.5007  0.5057
   55MOL    C7317461   4.534   6.144   3.977 -0.6526  0.6554  0.2580
   55MOL    C7417462   4.783   6.095   4.254  0.0722 -0.5584 -0.0657
   55MOL    H7517463   4.657   6.247   4.165  0.0170  1.4523 -0.4560
   55MOL    H7617464   4.827   5.971   3.972  0.8602  2.4265 -0.1349
   55MOL    H7717465   4.730   5.857   3.789 -0.4943 -1.0709  1.4706
   55MOL    H7817466   4.372   6.104   3.846  0.0260 -1.8464 -1.5334
   55MOL    H7917467   4.482   6.225   4.026  1.4771  2.1419  0.1477
   55MOL    H8017468   4.887   6.064   4.246 -0.0813 -0.7096 -1.6653
   55MOL    H8117469   4.785   6.169   4.334 -1.4011  1.1498 -1.5328
   55MOL    C8217470   4.704   5.967   4.306  0.2571 -0.4468  0.3374
   55MOL    C8317471   4.784   5.911   4.423 -0.6939 -0.4275  0.0458
   55MOL    C8417472   4.806   5.984   4.544 -0.3720 -0.1502 -0.0238
   55MOL    C8517473   4.873   5.930   4.653  0.0835  0.0691 -0.4038
   55MOL    C8617474   4.922   5.794   4.644  0.0832  0.0534  0.3626
   55MOL   Cl8717475   5.003   5.728   4.775 -0.1634 -0.0063 -0.0804
   55MOL    C8817476   4.906   5.719   4.522  0.7946 -0.2428 -0.2897
   55MOL    C8917477   4.836   5.786   4.412 -0.1175 -0.2249  0.0128
   55MOL    C9017478   4.558   5.986   4.341  0.0330 -0.4205 -0.2867
   55MOL    H9117479   4.721   5.903   4.219 -1.0551 -1.7341  1.0106
   55MOL    H9217480   4.764   6.081   4.566 -0.3158 -0.1952  0.2886
   55MOL    H9317481   4.873   5.991   4.742  0.0669 -1.8390  0.9343
   55MOL    H9417482   4.936   5.615   4.514 -0.9008 -0.6832 -1.1618
   55MOL    H9517483   4.818   5.737   4.318  1.3935  0.5234 -0.6825
   55MOL    H9617484   4.555   6.066   4.416  1.4092 -1.4432  0.8892
   55MOL    H9717485   4.508   6.020   4.250  1.5691 -0.4044 -1.1345
   55MOL    C9817486   4.487   5.863   4.395  0.6688  0.5131  0.3864
   55MOL    C9917487   4.350   5.908   4.447  0.4371  0.0741  0.0934
   55MOL   C10017488   4.332   5.912   4.590  0.0448  0.1313 -0.1813
   55MOL   C10117489   4.210   5.939   4.649  0.2621 -0.7830  0.1089
   55MOL   C10217490   4.099   5.962   4.563 -0.0487 -0.4629 -0.0157
   55MOL  Cl10317491   3.941   5.987   4.631 -0.1307 -0.3634  0.0057
   55MOL   C10417492   4.113   5.961   4.424  0.6115  0.1730 -0.1160
   55MOL   C10517493   4.237   5.938   4.365 -0.5783 -0.2246 -0.8466
   55MOL   C10617494   4.486   5.748   4.297 -0.2619 -0.0812 -0.0082
   55MOL   H10717495   4.539   5.821   4.481  0.2696  0.0045  0.3774
   55MOL   H10817496   4.408   5.878   4.658 -0.2865 -0.8522 -0.2884
   55MOL   H10917497   4.205   5.953   4.756  3.6139 -1.6378  0.4225
   55MOL   H11017498   4.024   5.980   4.367  0.4987  0.2289  0.0793
   55MOL   H11117499   4.240   5.939   4.257 -0.3287 -0.3885 -0.8404
   55MOL   H11217500   4.438   5.787   4.207  1.3189 -0.4065 -1.0035
   55MOL   H11317501   4.590   5.727   4.272 -1.4330 -2.3339 -3.4839
   55MOL   C11417502   4.423   5.613   4.341  0.3809 -0.1823 -0.0431
   55MOL   C11517503   4.271   5.610   4.313  0.4394 -0.3551  0.1658
   55MOL   C11617504   4.183   5.620   4.423 -0.3733 -0.5880  0.0690
   55MOL   C11717505   4.048   5.625   4.390 -0.2436 -0.2530 -0.4269
   55MOL   C11817506   3.994   5.603   4.263 -0.0524  0.0015  0.5048
   55MOL  Cl11917507   3.820   5.617   4.241 -0.6638 -0.1948 -0.1184
   55MOL   C12017508   4.082   5.589   4.156 -1.1729  0.5566  0.2975
   55MOL   C12117509   4.223   5.589   4.181  0.2614 -0.6979 -0.2399
   55MOL   C12217510   4.502   5.493   4.281  0.2314 -0.2435  0.3677
   55MOL   H12317511   4.437   5.596   4.448 -0.4346  0.1932  0.1258
   55MOL   H12417512   4.224   5.651   4.518 -2.0866  0.0089  0.6375
   55MOL   H12517513   3.979   5.639   4.472  2.8560  2.7998  1.7677
   55MOL   H12617514   4.043   5.585   4.056  0.3250 -0.2110 -0.2710
   55MOL   H12717515   4.294   5.589   4.099  0.3250 -1.9493 -0.1983
   55MOL   H12817516   4.494   5.484   4.172  0.4646 -2.4440  0.4918
   55MOL   H12917517   4.608   5.515   4.295  0.9308 -3.1840  0.0880
   55MOL   C13017518   4.497   5.354   4.344  0.1354 -0.4547  0.4450
   55MOL   C13117519   4.396   5.267   4.259  0.0459  0.0154 -0.7476
   55MOL   C13217520   4.263   5.273   4.290  0.8290 -0.5427  0.2307
   55MOL   C13317521   4.175   5.199   4.208  0.4766  0.2354 -0.4772
   55MOL   C13417522   4.216   5.126   4.095 -0.2674 -0.8679  0.2789
   55MOL  Cl13517523   4.113   5.022   4.004 -0.4047  0.0890 -0.5166
   55MOL   C13617524   4.357   5.122   4.063 -0.2869 -0.0215 -0.1554
   55MOL   C13717525   4.447   5.195   4.148 -0.5428 -0.2004  0.3986
   55MOL   C13817526   4.625   5.277   4.388 -0.5323 -0.0512 -0.2800
   55MOL   H13917527   4.447   5.366   4.440  0.5305 -0.3653  0.6409
   55MOL   H14017528   4.219   5.332   4.370  0.3120 -1.2807  0.4931
   55MOL   H14117529   4.070   5.194   4.233  0.5516  1.1386  0.0399
   55MOL   H14217530   4.391   5.074   3.973 -1.5312 -0.1573 -0.5650
   55MOL   H14317531   4.551   5.191   4.120 -0.9777 -0.2880 -1.2306
   55MOL   H14417532   4.691   5.256   4.304 -2.5908 -0.9077 -1.7137
   55MOL   H14517533   4.679   5.329   4.467  0.7457  0.2333 -1.3247
   55MOL   C14617534   4.594   5.134   4.458 -0.1421 -0.4191 -0.1675
   55MOL   C14717535   4.708   5.038   4.432 -0.6403 -0.0548  0.0048
   55MOL   C14817536   4.696   4.916   4.364  1.1775  0.5331  0.4113
   55MOL   C14917537   4.814   4.835   4.360  0.8720  0.0404  0.0538
   55MOL   C15017538   4.940   4.887   4.393  0.6637  0.2265  0.4658
   55MOL  Cl15117539   5.078   4.786   4.365 -0.1123  0.1141 -0.6128
   55MOL   C15217540   4.955   5.013   4.450  0.7907  0.1216  0.4971
   55MOL   C15317541   4.836   5.082   4.472 -0.1675  0.0823 -0.2699
   55MOL   C15417542   4.555   5.136   4.611  0.2073 -0.1780  0.1679
   55MOL   H15517543   4.508   5.087   4.409 -0.1889  0.3530 -0.8439
   55MOL   H15617544   4.598   4.892   4.326  0.0897  2.3286  1.9927
   55MOL   H15717545   4.801   4.734   4.323 -0.1139 -0.5762  2.0138
   55MOL   H15817546   5.055   5.046   4.475  0.8124 -0.4757  1.2288
   55MOL   H15917547   4.838   5.177   4.524 -1.3896  0.8834 -1.6488
   55MOL   H16017548   4.608   5.063   4.673 -1.0542  0.0141  1.5076
   55MOL   H16117549   4.581   5.229   4.661  1.1045  0.5643 -1.6586
   55MOL   C16217550   4.408   5.106   4.635  0.3067  0.1575  0.4087
   55MOL   C16317551   4.355   4.989   4.555  0.1333  0.7112 -0.0069
   55MOL   C16417552   4.429   4.864   4.555  0.1822  0.0014  0.2203
   55MOL   C16517553   4.400   4.754   4.466 -0.3125 -0.8745 -0.4050
   55MOL   C16617554   4.281   4.766   4.391 -0.1838  0.9559 -0.6229
   55MOL  Cl16717555   4.244   4.637   4.281  0.0744  0.1035  0.0733
   55MOL   C16817556   4.208   4.881   4.399 -1.0417 -0.1475  0.2358
   55MOL   C16917557   4.236   4.995   4.481 -0.2273 -0.0153 -0.2390
   55MOL   C17017558   4.389   5.072   4.783 -0.7163 -0.2077 -0.3456
   55MOL   H17117559   4.364   5.200   4.606  0.9945  0.3302 -0.0918
   55MOL   H17217560   4.522   4.863   4.611 -0.0578 -0.3984  0.6101
   55MOL   H17317561   4.460   4.665   4.454  0.3215 -0.4957 -0.0655
   55MOL   H17417562   4.122   4.893   4.335 -1.2135 -1.6069  0.1968
   55MOL   H17517563   4.166   5.078   4.483 -1.5525 -1.1195  0.0103
   55MOL   H17617564   4.285   5.040   4.792 -0.6966  0.0124  0.7765
   55MOL   H17717565   4.447   4.985   4.813 -1.6524 -1.4134 -1.9292
   55MOL   C17817566   4.409   5.179   4.890 -0.1893 -0.4543  0.2037
   55MOL   C17917567   4.322   5.296   4.862  0.1498  0.1400  0.7392
   55MOL   C18017568   4.382   5.416   4.804  0.1707 -0.2984  0.0875
   55MOL   C18117569   4.298   5.531   4.790  0.0638 -0.2232 -0.5496
   55MOL   C18217570   4.162   5.533   4.819  0.4761  0.7640 -0.3647
   55MOL  Cl18317571   4.069   5.668   4.797 -0.0807 -0.1087  0.3454
   55MOL   C18417572   4.102   5.407   4.844  0.4144 -0.4866 -0.2264
   55MOL   C18517573   4.181   5.289   4.874 -0.1523  0.0227  0.3688
   55MOL   C18617574   4.391   5.136   5.034  1.4008  0.4501  0.7678
   55MOL   H18717575   4.512   5.208   4.871  0.1664 -2.2738 -0.7124
   55MOL   H18817576   4.486   5.421   4.777  0.2641  1.9626  0.7804
   55MOL   H18917577   4.351   5.622   4.767  0.6599 -0.3926  0.1396
   55MOL   H19017578   3.995   5.397   4.853  0.5436 -1.9692 -0.3050
   55MOL   H19117579   4.133   5.194   4.890  2.7024 -1.7497 -1.1584
   55MOL   H19217580   4.294   5.092   5.055  1.4944  0.6853  1.7360
   55MOL   H19317581   4.456   5.048   5.028 -1.3606 -1.5301 -1.7219
   55MOL   C19417582   4.425   5.235   5.147 -0.5578 -0.7317 -0.2017
   55MOL   C19517583   4.563   5.307   5.131  0.3065 -0.0754  0.0259
   55MOL   C19617584   4.678   5.235   5.160  0.4008 -0.2200  0.3073
   55MOL   C19717585   4.805   5.302   5.171  0.8467 -0.0793 -0.5589
   55MOL   C19817586   4.819   5.436   5.125  0.1794 -0.4534  0.0621
   55MOL  Cl19917587   4.977   5.509   5.121 -0.2622 -0.1233  0.1210
   55MOL   C20017588   4.703   5.512   5.081  0.1582  0.1955  0.6221
   55MOL   C20117589   4.579   5.443   5.091  0.5896 -0.0966  0.0379
   55MOL   C20217590   4.314   5.333   5.191 -0.1355  0.4889  0.0734
   55MOL   H20317591   4.447   5.172   5.234 -3.8933 -2.2496 -0.3796
   55MOL   H20417592   4.680   5.129   5.182  0.3484 -0.4492 -0.7490
   55MOL   H20517593   4.892   5.253   5.211  1.0753  0.7493 -0.0379
   55MOL   H20617594   4.706   5.612   5.041  1.2207 -1.0548 -2.6012
   55MOL   H20717595   4.488   5.500   5.076  0.3641 -0.7346 -1.0206
   55MOL   H20817596   4.363   5.369   5.282 -0.5620  3.0016 -0.6595
   55MOL   H20917597   4.304   5.414   5.118  2.6806 -1.2775 -2.3761
   55MOL   C21017598   4.174   5.288   5.246  0.6320  0.4962  0.7557
   55MOL   C21117599   4.165   5.144   5.285 -0.3786  0.2808  0.4611
   55MOL   C21217600   4.087   5.058   5.209  0.1729 -0.0366 -0.6518
   55MOL   C21317601   4.073   4.926   5.250 -0.5044  0.2622 -0.1779
   55MOL   C21417602   4.145   4.869   5.360  0.2709  0.6981 -0.5043
   55MOL  Cl21517603   4.108   4.706   5.407 -0.1540 -0.1694  0.4937
   55MOL   C21617604   4.232   4.949   5.432 -0.2721 -0.6486  0.1918
   55MOL   C21717605   4.240   5.094   5.399 -0.2895  0.3909  0.3811
   55MOL   C21817606   4.123   5.372   5.369 -0.3160  0.3010 -0.0397
   55MOL   H21917607   4.099   5.299   5.168 -1.1849  2.3705  2.6939
   55MOL   H22017608   4.024   5.099   5.132  0.9616 -1.0284 -1.8338
   55MOL   H22117609   4.005   4.867   5.190  1.1047 -1.2871 -0.5262
   55MOL   H22217610   4.291   4.896   5.506 -1.1772  0.6279  1.8674
   55MOL   H22317611   4.297   5.163   5.459  0.0903  0.2675  0.1687
   55MOL   H22417612   4.045   5.308   5.411  0.2069 -1.0053 -1.0234
   55MOL   H22517613   4.198   5.374   5.448  0.4322 -1.3555 -0.6717
   55MOL   C22617614   4.070   5.514   5.351  0.0225  0.0350  0.1902
   55MOL   C22717615   4.172   5.602   5.288  0.5299 -0.0465  0.5646
   55MOL   C22817616   4.285   5.628   5.369  0.1656 -0.0117  0.0158
   55MOL   C22917617   4.401   5.687   5.317 -0.3819 -0.3077  0.1278
   55MOL   C23017618   4.395   5.741   5.186 -0.2299  0.4960  0.2713
   55MOL  Cl23117619   4.533   5.809   5.120 -0.3687  0.2248 -0.0638
   55MOL   C23217620   4.275   5.723   5.104 -0.3872  0.0241 -0.0236
   55MOL   C23317621   4.161   5.654   5.159 -0.0795 -0.3960  0.0876
   55MOL   C23417622   3.930   5.519   5.292 -0.4380 -0.1133  0.0593
   55MOL   H23517623   4.063   5.558   5.450  1.7241 -1.4832  1.0139
   55MOL   H23617624   4.295   5.592   5.470  0.6139  0.4952  0.1506
   55MOL   H23717625   4.493   5.680   5.375 -1.0184  0.4063  1.2525
   55MOL   H23817626   4.268   5.757   5.002 -0.8722  0.6179  0.2026
   55MOL   H23917627   4.074   5.652   5.095  1.4041  1.7182 -2.1124
   55MOL   H24017628   3.912   5.618   5.252 -1.8379 -0.9705 -1.4692
   55MOL   H24117629   3.925   5.445   5.212  0.5323 -0.2349  0.0933
   55MOL   C24217630   3.821   5.505   5.402 -0.3359 -0.3953 -0.4425
   55MOL   C24317631   3.817   5.611   5.513  0.0443  0.4890  0.2256
   55MOL   C24417632   3.787   5.574   5.650  0.3105  0.1975  0.0308
   55MOL   C24517633   3.784   5.672   5.751  0.7218  0.2915 -0.0876
   55MOL   C24617634   3.790   5.809   5.719 -0.5512 -0.3254 -0.3020
   55MOL  Cl24717635   3.767   5.924   5.852  0.4216  0.4533  0.2099
   55MOL   C24817636   3.814   5.854   5.586  0.8458  0.7244 -0.8213
   55MOL   C24917637   3.832   5.754   5.489  0.0198  0.1879  0.0974
   55MOL   C25017638   3.679   5.503   5.343 -0.7421 -0.3504  0.2447
   55MOL   H25117639   3.842   5.411   5.453 -2.1390  0.0692  1.2439
   55MOL   H25217640   3.776   5.473   5.687  1.1820  0.4985  1.1455
   55MOL   H25317641   3.764   5.646   5.854  0.1565  0.8921 -0.0411
   55MOL   H25417642   3.809   5.960   5.567 -1.7144  1.2493  2.4423
   55MOL   H25517643   3.852   5.783   5.387 -0.7107  0.3524 -0.0014
   55MOL   H25617644   3.596   5.534   5.407 -0.1571 -0.4835  1.0616
   55MOL   H25717645   3.676   5.580   5.265 -2.9649  0.1661  0.8007
   55MOL   C25817646   3.647   5.355   5.295 -0.1982 -0.2431 -0.4122
   55MOL   C25917647   3.649   5.248   5.409  0.3291  0.3108 -0.5306
   55MOL   C26017648   3.556   5.260   5.513  0.1618 -0.2814 -1.0031
   55MOL   C26117649   3.555   5.164   5.615 -0.2136 -0.7761 -0.2161
   55MOL   C26217650   3.658   5.069   5.624  0.0526 -0.3773 -0.0037
   55MOL  Cl26317651   3.666   4.976   5.766  0.0926  0.0488  0.0854
   55MOL   C26417652   3.753   5.062   5.523  0.2816  0.2461 -0.0551
   55MOL   C26517653   3.745   5.144   5.407  0.4954  0.0517 -0.2095
   55MOL   C26617654   3.529   5.341   5.208 -0.6860 -0.1843  0.0515
   55MOL   H26717655   3.735   5.322   5.239  0.8567  0.4672  0.7965
   55MOL   H26817656   3.481   5.338   5.510 -0.0561 -0.5261 -1.9929
   55MOL   H26917657   3.493   5.181   5.702 -0.3641 -2.8320  0.1032
   55MOL   H27017658   3.827   4.983   5.529 -0.3083 -0.2951  0.1943
   55MOL   H27117659   3.818   5.141   5.328 -1.0233  0.4431 -1.6576
   55MOL   H27217660   3.490   5.240   5.216 -3.3264  0.5930 -2.0792
   55MOL   H27317661   3.446   5.403   5.242  0.1100  1.1294 -0.3217
   55MOL   C27417662   3.536   5.377   5.055 -0.0341  0.1594  0.5553
   55MOL   C27517663   3.628   5.292   4.973 -0.1306 -0.5087 -0.3726
   55MOL   C27617664   3.641   5.157   4.995 -0.0063  0.0932 -0.3619
   55MOL   C27717665   3.738   5.084   4.929 -0.2123  0.1934 -0.4849
   55MOL   C27817666   3.818   5.139   4.824 -0.4291  0.9754  0.3425
   55MOL  Cl27917667   3.930   5.040   4.735  0.0600  0.0730 -0.2358
   55MOL   C28017668   3.799   5.277   4.787 -0.7344  0.3077  0.2700
   55MOL   C28117669   3.704   5.355   4.863  0.3592  0.4517  0.7694
   55MOL   C28217670   3.385   5.367   5.000 -1.0051 -1.1768  0.3323
   55MOL   H28317671   3.578   5.477   5.045  0.4589 -0.1394 -0.4270
   55MOL   H28417672   3.571   5.116   5.066 -0.1665  2.1900  0.7311
   55MOL   H28517673   3.749   4.980   4.954  2.6136  0.5330 -0.1420
   55MOL   H28617674   3.858   5.318   4.707  0.8366 -1.2667  0.5827
   55MOL   H28717675   3.687   5.457   4.836 -0.7351  0.1607  0.3572
   55MOL   H28817676   3.339   5.275   5.037 -1.9713 -0.5831  0.6387
   55MOL   H28917677   3.318   5.440   5.045 -0.4827  1.5013 -3.0675
   55MOL   C29017678   3.360   5.369   4.845  0.1540 -0.6705  0.5199
   55MOL   C29117679   3.253   5.265   4.809  0.6770  0.3114 -1.0583
   55MOL   C29217680   3.124   5.301   4.761 -0.0377  0.1892 -0.1556
   55MOL   C29317681   3.038   5.206   4.711 -0.2473  0.1218  0.3289
   55MOL   C29417682   3.071   5.070   4.733 -0.2222 -0.0633 -0.3254
   55MOL  Cl29517683   2.962   4.954   4.669 -0.1305  0.6526 -0.2056
   55MOL   C29617684   3.198   5.034   4.792  0.7190 -0.5335 -0.5329
   55MOL   C29717685   3.292   5.130   4.834  0.3617  0.5320 -0.5132
   55MOL   C29817686   3.341   5.511   4.791  0.5333 -0.0254 -0.2624
   55MOL   H29917687   3.452   5.335   4.797 -0.7727  0.0492 -1.7790
   55MOL   H30017688   3.097   5.405   4.748 -0.5330  0.0851  0.0319
   55MOL   H30117689   2.944   5.233   4.665  0.2484  1.3591  0.0258
   55MOL   H30217690   3.225   4.930   4.802  2.7061  0.0855  0.8075
   55MOL   H30317691   3.383   5.108   4.888 -0.5662  0.2886  0.9575
   55MOL   H30417692   3.252   5.552   4.839  0.4833 -2.1122  1.5360
   55MOL   H30517693   3.417   5.580   4.827 -0.1941  0.4087  0.4549
   55MOL   C30617694   3.336   5.508   4.633 -0.3785 -0.4019 -0.1720
   55MOL   C30717695   3.224   5.588   4.574 -0.4856 -0.4114 -0.5781
   55MOL   C30817696   3.149   5.534   4.464 -0.3035  0.3396  0.0963
   55MOL   C30917697   3.036   5.600   4.405  0.2064  0.2915  0.2673
   55MOL   C31017698   2.987   5.719   4.465 -0.2230  0.3910 -0.6194
   55MOL  Cl31117699   2.857   5.810   4.399  0.2477 -0.1059  0.2533
   55MOL   C31217700   3.058   5.768   4.582  0.3964 -0.5513 -0.1024
   55MOL   C31317701   3.173   5.708   4.632 -0.7840  0.0902  0.4088
   55MOL   C31417702   3.473   5.555   4.578  0.1505 -0.3517 -0.1889
   55MOL   H31517703   3.317   5.403   4.608  1.5994 -1.7422  3.5668
   55MOL   H31617704   3.179   5.442   4.416 -1.1172 -1.0251  2.1100
   55MOL   H31717705   3.000   5.570   4.308  0.0267  0.7850  0.1798
   55MOL   H31817706   3.019   5.853   4.636  2.8773  0.6281 -0.0980
   55MOL   H31917707   3.226   5.750   4.717 -0.5305 -2.2556  1.4659
   55MOL   H32017708   3.497   5.657   4.605 -3.5962  0.1493  1.6654
   55MOL   H32117709   3.554   5.492   4.615  1.4413  1.6154  0.3689
   55MOL   H32217710   3.465   5.553   4.470  2.4320  0.8925 -0.4009
   56MOL     C117711   0.880   5.102   5.903  0.1322 -0.1691  0.2171
   56MOL     C217712   0.870   4.991   5.798 -0.3159 -1.6027 -0.3025
   56MOL     C317713   0.971   4.972   5.703 -0.0528  0.7928  0.4218
   56MOL     C417714   0.956   4.872   5.601 -0.4869 -0.2180 -0.1594
   56MOL     C517715   0.836   4.793   5.596  0.6950 -0.8179  0.1893
   56MOL    Cl617716   0.814   4.674   5.475 -0.0422 -0.3072  0.1594
   56MOL     C717717   0.739   4.815   5.692  0.3473  0.3352 -0.1390
   56MOL     C817718   0.752   4.918   5.786  0.3514 -0.8918  0.1505
   56MOL     C917719   0.868   5.245   5.839 -0.1553  0.1322 -1.0949
   56MOL    H1017720   0.977   5.083   5.949 -1.2974  0.8955  3.7828
   56MOL    H1117721   1.063   5.028   5.710  0.2408  0.3658  0.0391
   56MOL    H1217722   1.042   4.850   5.539 -1.9423 -0.6387 -2.0940
   56MOL    H1317723   0.642   4.768   5.695  0.3914  0.3058  1.4070
   56MOL    H1417724   0.669   4.935   5.854  1.1157 -1.7879  1.3364
   56MOL    H1517725   0.873   5.322   5.916 -0.6296 -0.2347 -0.6910
   56MOL    H1617726   0.946   5.252   5.763  0.4474 -1.5582 -0.6578
   56MOL    H1717727   0.803   5.074   5.975 -0.7384  1.2137 -0.1618
   56MOL    C1817728   0.739   5.272   5.764  1.2771 -0.2269 -0.0504
   56MOL    C1917729   0.615   5.298   5.858 -0.5766  0.1874 -0.0642
   56MOL    C2017730   0.614   5.400   5.955 -1.0966  0.2677  0.3109
   56MOL    C2117731   0.499   5.420   6.032  0.0475 -0.9417  0.3238
   56MOL    C2217732   0.382   5.342   6.011  0.9910  0.0335  0.1557
   56MOL   Cl2317733   0.238   5.389   6.088 -0.1909 -0.2421 -0.2112
   56MOL    C2417734   0.382   5.235   5.923  0.8468  0.3939  0.3028
   56MOL    C2517735   0.501   5.216   5.845  0.4124  0.4071 -0.0054
   56MOL    C2617736   0.746   5.380   5.663  0.3560 -0.4252 -0.5520
   56MOL    H2717737   0.719   5.183   5.704 -1.2041  1.9259 -2.5906
   56MOL    H2817738   0.709   5.444   5.982 -0.4669 -0.7199 -0.2655
   56MOL    H2917739   0.500   5.493   6.112  2.5039 -0.0705 -0.4651
   56MOL    H3017740   0.302   5.163   5.917  0.8318  0.1839  2.6297
   56MOL    H3117741   0.506   5.130   5.781  0.1484  0.6154 -0.3058
   56MOL    H3217742   0.818   5.363   5.583 -1.3407 -0.0271 -2.1976
   56MOL    H3317743   0.647   5.386   5.619  0.4395 -1.2200 -0.8608
   56MOL    C3417744   0.774   5.525   5.704 -0.5498 -0.2380 -0.3769
   56MOL    C3517745   0.909   5.543   5.773 -0.5024  0.3757  0.1139
   56MOL    C3617746   1.028   5.489   5.713 -0.6079  0.3659 -0.1085
   56MOL    C3717747   1.146   5.490   5.793  0.2393  0.5421  1.0336
   56MOL    C3817748   1.147   5.546   5.924  0.1182 -0.2940  0.7982
   56MOL   Cl3917749   1.293   5.552   6.012  0.3160 -0.5740 -0.2665
   56MOL    C4017750   1.029   5.593   5.974  0.1608  0.6141 -0.1679
   56MOL    C4117751   0.909   5.601   5.899  0.0546  0.2755  0.5130
   56MOL    C4217752   0.759   5.628   5.590  0.3277  0.9747 -0.1892
   56MOL    H4317753   0.702   5.558   5.779  0.4816  1.5803 -0.1513
   56MOL    H4417754   1.034   5.441   5.616  0.4639  0.5811 -0.1561
   56MOL    H4517755   1.234   5.444   5.751 -0.7939  0.7281 -1.4320
   56MOL    H4617756   1.021   5.643   6.070  0.2590 -0.4795  0.4234
   56MOL    H4717757   0.824   5.648   5.946  0.4688  2.1128 -0.5305
   56MOL    H4817758   0.803   5.720   5.627  1.9046  0.1183  0.1311
   56MOL    H4917759   0.820   5.604   5.503 -1.4174 -2.2642 -0.6005
   56MOL    C5017760   0.609   5.654   5.555  0.2844 -0.1834 -0.0560
   56MOL    C5117761   0.523   5.698   5.668  0.1146 -0.1386  0.0501
   56MOL    C5217762   0.552   5.820   5.728 -0.9149  0.4557  0.6598
   56MOL    C5317763   0.470   5.865   5.832 -0.2436  0.1620 -0.2938
   56MOL    C5417764   0.365   5.784   5.879 -0.0091  0.2518  0.3898
   56MOL   Cl5517765   0.263   5.837   6.007 -0.0365  0.1923  0.3244
   56MOL    C5617766   0.358   5.652   5.837  0.6199 -0.5425 -0.5143
   56MOL    C5717767   0.431   5.615   5.729  0.3129 -0.1122 -0.2884
   56MOL    C5817768   0.611   5.750   5.431  0.0657  0.5916  0.5878
   56MOL    H5917769   0.569   5.561   5.515 -1.2490  0.4465  0.0018
   56MOL    H6017770   0.625   5.886   5.683 -1.5101  1.0970  0.6125
   56MOL    H6117771   0.491   5.964   5.870 -0.6201  0.4167 -0.7479
   56MOL    H6217772   0.282   5.586   5.875  0.1260  0.4746  0.2979
   56MOL    H6317773   0.409   5.521   5.680  2.1109 -0.5999 -0.2196
   56MOL    H6417774   0.628   5.850   5.473 -1.3792  1.6335 -1.2113
   56MOL    H6517775   0.683   5.725   5.353 -0.6134 -1.1488  0.5022
   56MOL    C6617776   0.478   5.751   5.351  0.2147 -0.4219 -0.1518
   56MOL    C6717777   0.474   5.861   5.241  0.0575 -0.0306  0.1587
   56MOL    C6817778   0.376   5.967   5.242 -0.1695  0.1483 -0.1608
   56MOL    C6917779   0.366   6.055   5.131  0.5853 -0.4012 -0.1578
   56MOL    C7017780   0.456   6.043   5.027  0.0159 -0.4506 -0.1587
   56MOL   Cl7117781   0.443   6.152   4.896 -0.1801 -0.2586 -0.0443
   56MOL    C7217782   0.555   5.949   5.027 -0.4116 -0.0106 -0.0716
   56MOL    C7317783   0.567   5.853   5.135  0.3778 -0.3138  0.1182
   56MOL    C7417784   0.418   5.618   5.300 -0.2299  0.1042  0.0986
   56MOL    H7517785   0.415   5.791   5.430  0.7514 -0.0768  0.1011
   56MOL    H7617786   0.305   5.968   5.323 -1.6562 -0.7583 -1.4127
   56MOL    H7717787   0.288   6.130   5.132 -0.1490 -1.0991 -2.4035
   56MOL    H7817788   0.636   5.957   4.957  1.6669  0.7303  2.3227
   56MOL    H7917789   0.644   5.777   5.139  1.2999  0.4838 -1.8377
   56MOL    H8017790   0.418   5.616   5.191 -0.0981  2.0694  0.0313
   56MOL    H8117791   0.492   5.539   5.313  0.6434  0.3868 -2.8788
   56MOL    C8217792   0.284   5.574   5.360 -0.5318  0.1115 -1.1351
   56MOL    C8317793   0.166   5.673   5.344  0.0905  0.1494  0.6587
   56MOL    C8417794   0.136   5.725   5.212  0.2075 -0.3336 -0.2923
   56MOL    C8517795   0.041   5.833   5.202 -0.3813 -0.0209 -0.1511
   56MOL    C8617796   8.406   5.864   5.318 -0.0223 -0.1977 -0.4648
   56MOL   Cl8717797   8.278   5.969   5.299 -0.0308 -0.0331  0.1830
   56MOL    C8817798   8.436   5.807   5.445  0.2888 -0.0415  0.7400
   56MOL    C8917799   0.096   5.716   5.461 -0.2492  1.1422  0.7913
   56MOL    C9017800   0.246   5.434   5.309 -0.6233  0.1217 -0.1006
   56MOL    H9117801   0.307   5.564   5.466  2.6449  2.5978 -1.4999
   56MOL    H9217802   0.174   5.689   5.118 -0.3378 -0.2061 -0.5656
   56MOL    H9317803   0.017   5.874   5.105 -0.3490  2.5020  0.8753
   56MOL    H9417804   8.371   5.832   5.528 -1.3280 -1.9903  0.1124
   56MOL    H9517805   0.111   5.679   5.561  5.2409  2.2407  0.5346
   56MOL    H9617806   0.211   5.428   5.206  1.8900 -2.0796 -0.8678
   56MOL    H9717807   0.335   5.371   5.310 -1.5430 -1.1978  0.3688
   56MOL    C9817808   0.139   5.365   5.394  0.3955  0.5171 -0.0207
   56MOL    C9917809   0.074   5.265   5.301 -0.1580  0.6600 -0.3422
   56MOL   C10017810   0.130   5.144   5.268  0.1759  0.2039 -0.1177
   56MOL   C10117811   0.075   5.053   5.174  0.0279  0.4504  0.1741
   56MOL   C10217812   8.404   5.109   5.104 -0.3456  0.1850 -0.0587
   56MOL  Cl10317813   8.331   5.028   4.971 -0.2378  0.0755 -0.3708
   56MOL   C10417814   8.354   5.234   5.130  0.4971  0.8359 -0.3734
   56MOL   C10517815   8.402   5.312   5.237 -0.5556  0.1669  0.1594
   56MOL   C10617816   0.185   5.302   5.528  0.0067 -0.4292  0.6970
   56MOL   H10717817   0.066   5.440   5.423 -0.5054 -0.4791  0.2878
   56MOL   H10817818   0.216   5.109   5.324  1.5175  0.1857 -2.1459
   56MOL   H10917819   0.118   4.955   5.165  1.4694  0.7067  3.5555
   56MOL   H11017820   8.281   5.279   5.065 -0.3925  0.4428  0.3390
   56MOL   H11117821   8.370   5.414   5.250  0.7373  0.6598 -0.4210
   56MOL   H11217822   0.232   5.209   5.497  0.0874  0.3620 -1.6186
   56MOL   H11317823   0.262   5.370   5.564 -0.3704  1.2260 -1.5102
   56MOL   C11417824   0.080   5.270   5.640  0.0723 -0.1818 -0.4092
   56MOL   C11517825   8.441   5.387   5.687  0.3579 -0.0321  0.2231
   56MOL   C11617826   0.040   5.463   5.796  0.1012 -0.8853  0.0844
   56MOL   C11717827   8.416   5.583   5.841 -0.0962 -0.2365  0.9430
   56MOL   C11817828   8.299   5.616   5.778  0.3411  0.2776  0.8493
   56MOL  Cl11917829   8.207   5.754   5.829 -0.2256 -0.3080  0.6040
   56MOL   C12017830   8.255   5.543   5.669  1.1128 -0.2579 -0.0434
   56MOL   C12117831   8.326   5.430   5.621 -0.4144  1.0587  0.0985
   56MOL   C12217832   8.439   5.149   5.619 -0.0369 -0.1995  0.2601
   56MOL   H12317833   0.137   5.239   5.728 -0.0395 -2.1244 -1.0093
   56MOL   H12417834   0.139   5.433   5.828 -0.6006 -1.9585  1.2992
   56MOL   H12517835   0.020   5.652   5.910  2.2291 -2.1892  1.3766
   56MOL   H12617836   8.167   5.586   5.624  0.7469  1.0480  1.8398
   56MOL   H12717837   8.286   5.372   5.539 -0.1187  2.3336 -0.9707
   56MOL   H12817838   8.371   5.139   5.704  0.1863 -1.4497  0.2980
   56MOL   H12917839   8.378   5.179   5.534 -0.2900  1.7624  1.0948
   56MOL   C13017840   0.071   5.013   5.602 -0.9322  0.0001  0.0944
   56MOL   C13117841   0.126   4.957   5.737  0.6380  0.5765  0.1518
   56MOL   C13217842   0.033   4.922   5.837 -0.3254  0.5524 -0.4515
   56MOL   C13317843   0.079   4.880   5.962  0.3700 -0.4064 -0.1967
   56MOL   C13417844   0.216   4.852   5.980 -0.2810  0.2050  0.5422
   56MOL  Cl13517845   0.255   4.781   6.134  0.0226  0.1948 -0.4057
   56MOL   C13617846   0.310   4.877   5.879  0.1899 -0.1838  0.2592
   56MOL   C13717847   0.265   4.937   5.760  0.0177  0.0435 -0.0421
   56MOL   C13817848   8.436   4.903   5.519 -0.5110  0.1427 -0.2834
   56MOL   H13917849   0.171   5.032   5.563 -1.6046  2.0043 -0.7046
   56MOL   H14017850   8.371   4.938   5.814 -0.5533 -0.6787 -0.3270
   56MOL   H14117851   0.005   4.854   6.035  1.9668  0.6701  1.8446
   56MOL   H14217852   0.416   4.869   5.899  0.2035  0.2607  0.3494
   56MOL   H14317853   0.342   4.963   5.688 -0.8550  2.4986 -0.1401
   56MOL   H14417854   8.347   4.883   5.579 -1.9552  3.7546 -1.1024
   56MOL   H14517855   8.398   4.933   5.422 -0.6381  0.2085 -0.2126
   56MOL   C14617856   0.051   4.760   5.509 -0.1651 -0.2544 -0.5588
   56MOL   C14717857   8.382   4.668   5.452 -0.0601  0.6128  0.1680
   56MOL   C14817858   8.347   4.665   5.315 -0.0503 -0.3684 -1.1068
   56MOL   C14917859   8.243   4.574   5.270 -0.2883  0.1865  0.4233
   56MOL   C15017860   8.171   4.502   5.364  0.4349  0.1514 -1.2257
   56MOL  Cl15117861   8.047   4.392   5.315  0.1207 -0.6863 -0.0299
   56MOL   C15217862   8.211   4.506   5.499 -0.9311 -0.1709  0.4036
   56MOL   C15317863   8.313   4.589   5.542 -0.0287 -0.1335  0.0461
   56MOL   C15417864   0.186   4.753   5.427  0.0367  0.2022  0.3249
   56MOL   H15517865   0.075   4.730   5.611  0.9224 -0.2366 -0.8049
   56MOL   H15617866   8.389   4.741   5.252 -0.1985  1.8976  1.4415
   56MOL   H15717867   8.211   4.567   5.167 -0.5483 -1.0375  0.5773
   56MOL   H15817868   8.153   4.466   5.581 -0.8185 -0.6560  0.2428
   56MOL   H15917869   8.328   4.579   5.649  0.6285  1.7040  0.1469
   56MOL   H16017870   0.155   4.764   5.323  1.5432 -3.0037 -0.5271
   56MOL   H16117871   0.251   4.840   5.438 -0.9772  1.1598 -1.0426
   56MOL   C16217872   0.266   4.624   5.449 -0.0238  0.4385  0.5002
   56MOL   C16317873   0.353   4.591   5.330 -0.3993 -0.3921 -0.2192
   56MOL   C16417874   0.330   4.479   5.251  0.6012 -0.3029 -0.5234
   56MOL   C16517875   0.421   4.440   5.152  0.2030 -0.1221 -0.1336
   56MOL   C16617876   0.542   4.507   5.136  0.3606  0.4910 -0.1419
   56MOL  Cl16717877   0.653   4.470   5.008 -0.3387 -0.0448  0.3031
   56MOL   C16817878   0.567   4.621   5.215 -0.7264  0.0522  0.2002
   56MOL   C16917879   0.473   4.668   5.311 -0.2071  0.0120  0.2202
   56MOL   C17017880   0.338   4.616   5.581 -0.0770 -0.1974  0.5976
   56MOL   H17117881   0.191   4.545   5.442  3.3366 -3.0405  1.7006
   56MOL   H17217882   0.243   4.417   5.269  2.0623 -2.1963  0.2738
   56MOL   H17317883   0.400   4.352   5.093 -0.5638 -0.3847  0.5276
   56MOL   H17417884   0.659   4.676   5.199 -1.4198  1.6637  1.5097
   56MOL   H17517885   0.479   4.750   5.382 -3.2760 -0.2797  0.8549
   56MOL   H17617886   0.403   4.704   5.587 -0.2527  0.0627 -1.2505
   56MOL   H17717887   0.269   4.634   5.664 -1.0458 -0.4726 -0.1531
   56MOL   C17817888   0.430   4.491   5.610 -0.3850 -0.0357 -0.3524
   56MOL   C17917889   0.515   4.519   5.736  0.5648  0.3214 -0.2406
   56MOL   C18017890   0.649   4.476   5.730 -0.7729 -0.3621 -0.0648
   56MOL   C18117891   0.735   4.479   5.852 -0.4184  0.1015  0.7294
   56MOL   C18217892   0.679   4.519   5.976 -0.1481  0.8887  0.3031
   56MOL  Cl18317893   0.777   4.516   6.122  0.0357  0.2408  0.1231
   56MOL   C18417894   0.547   4.572   5.973  0.2958 -0.0110  0.0007
   56MOL   C18517895   0.465   4.572   5.860  0.4996  0.5308 -0.5643
   56MOL   C18617896   0.364   4.348   5.606 -0.0545  0.8142 -0.7765
   56MOL   H18717897   0.508   4.485   5.533  1.2333 -0.1430  1.2632
   56MOL   H18817898   0.698   4.461   5.635  1.1319 -0.9413  0.9857
   56MOL   H18917899   0.836   4.441   5.854 -0.2007  0.4116 -2.1552
   56MOL   H19017900   0.500   4.609   6.063 -1.6486  3.8482 -2.5027
   56MOL   H19117901   0.362   4.602   5.877  0.5605  0.6345 -0.3763
   56MOL   H19217902   0.271   4.364   5.551 -0.0171 -1.1554 -1.4482
   56MOL   H19317903   0.430   4.284   5.548 -0.9150 -1.2589  0.4781
   56MOL   C19417904   0.322   4.277   5.741 -0.3492  0.2766 -0.3135
   56MOL   C19517905   0.233   4.351   5.846  0.3492  0.0854  0.2836
   56MOL   C19617906   0.254   4.329   5.982 -0.3599  0.0240 -0.7148
   56MOL   C19717907   0.151   4.375   6.067  0.3430 -0.7610 -0.4336
   56MOL   C19817908   0.053   4.464   6.023  0.2275 -0.3358 -0.3083
   56MOL  Cl19917909   8.389   4.535   6.139 -0.0513  0.1943 -0.5285
   56MOL   C20017910   0.042   4.502   5.886 -0.0079 -0.3782  0.0474
   56MOL   C20117911   0.133   4.438   5.798  0.7415 -0.3069  0.9853
   56MOL   C20217912   0.276   4.127   5.722  0.0424  0.4737  0.2977
   56MOL   H20317913   0.418   4.256   5.789 -0.5820  0.1150  0.0874
   56MOL   H20417914   0.343   4.274   6.010 -0.5674 -1.5137 -2.9523
   56MOL   H20517915   0.162   4.350   6.172  0.0185 -1.4891 -0.5659
   56MOL   H20617916   8.419   4.582   5.855 -0.3983 -0.4457  0.6901
   56MOL   H20717917   0.118   4.461   5.693 -1.6579  2.5445  1.9008
   56MOL   H20817918   0.341   4.080   5.648 -0.4050  2.4120 -1.3605
   56MOL   H20917919   0.298   4.089   5.822  3.2232  1.5124  0.0595
   56MOL   C21017920   0.128   4.109   5.693 -0.4426 -0.1809  0.0054
   56MOL   C21117921   0.108   4.137   5.545 -0.1449  0.2011  0.1186
   56MOL   C21217922   0.033   4.250   5.499  0.8858  0.2361  0.5316
   56MOL   C21317923   0.019   4.286   5.363 -0.1892 -0.5344 -0.0764
   56MOL   C21417924   0.086   4.205   5.266 -0.4006 -0.4903 -0.1863
   56MOL  Cl21517925   0.071   4.252   5.105 -0.1151  0.1244  0.0760
   56MOL   C21617926   0.157   4.090   5.301  0.5214  0.0538  0.1595
   56MOL   C21717927   0.164   4.057   5.444 -0.2593  0.4702 -0.0737
   56MOL   C21817928   0.067   3.971   5.735 -0.8960 -0.6106 -0.3287
   56MOL   H21917929   0.071   4.185   5.746  0.3558  0.2728  0.2303
   56MOL   H22017930   8.429   4.313   5.573 -2.7622 -0.1509 -1.3218
   56MOL   H22117931   8.405   4.372   5.333 -1.2478 -0.6457  1.5475
   56MOL   H22217932   0.192   4.024   5.223 -1.7646  0.7404 -1.5343
   56MOL   H22317933   0.225   3.975   5.479  1.1584  0.4947 -2.3375
   56MOL   H22417934   0.120   3.892   5.681 -0.8378 -2.9055  2.9569
   56MOL   H22517935   0.104   3.974   5.837 -0.2401 -0.1641 -0.5701
   56MOL   C22617936   8.360   3.965   5.725 -0.1756 -0.2397 -0.4896
   56MOL   C22717937   8.324   3.815   5.736 -0.0863  0.5515  0.4090
   56MOL   C22817938   8.239   3.755   5.643 -0.0530  0.2581  0.3757
   56MOL   C22917939   8.203   3.618   5.653 -0.7771 -0.3113  0.3408
   56MOL   C23017940   8.243   3.550   5.771 -0.8391  0.1016  0.1915
   56MOL  Cl23117941   8.190   3.384   5.788  0.1088 -0.2152  0.0282
   56MOL   C23217942   8.329   3.608   5.864 -0.1169  0.1301 -0.0539
   56MOL   C23317943   8.372   3.742   5.843  0.3169  0.5950  0.0326
   56MOL   C23417944   8.299   4.050   5.848  0.2120  0.9098  1.4875
   56MOL   H23517945   8.334   4.001   5.625  1.2194 -0.7834 -1.0527
   56MOL   H23617946   8.196   3.805   5.557  0.9732 -0.9061 -0.8358
   56MOL   H23717947   8.148   3.579   5.569  0.0779  0.7933 -0.7367
   56MOL   H23817948   8.370   3.570   5.956  0.5364  1.9685  0.4475
   56MOL   H23917949   8.438   3.789   5.914  0.8432  1.1817 -0.8276
   56MOL   H24017950   8.348   4.021   5.941  2.9086  1.2087  0.2272
   56MOL   H24117951   8.322   4.156   5.844 -0.7430  1.0602 -0.3355
   56MOL   C24217952   8.143   4.040   5.850 -0.3039 -0.0228  0.0597
   56MOL   C24317953   8.095   4.058   5.993  0.1163 -0.3674  0.4956
   56MOL   C24417954   8.106   4.179   6.065  0.2172 -0.6028 -0.5005
   56MOL   C24517955   8.060   4.180   6.198  0.3210  0.0675 -0.3407
   56MOL   C24617956   8.008   4.064   6.258 -0.2994  0.0605 -0.6045
   56MOL  Cl24717957   7.951   4.050   6.420  0.0525 -0.1079  0.3211
   56MOL   C24817958   7.989   3.948   6.186  0.4529 -0.1472  0.2006
   56MOL   C24917959   8.027   3.941   6.053  0.5922 -0.1609 -0.3920
   56MOL   C25017960   8.079   4.132   5.747  0.1915  0.1251 -0.3248
   56MOL   H25117961   8.132   3.935   5.824 -1.2725 -0.0581  0.6060
   56MOL   H25217962   8.140   4.263   6.006 -1.1821  0.4845  0.2272
   56MOL   H25317963   8.080   4.271   6.253  0.9676 -0.0409 -0.3850
   56MOL   H25417964   7.927   3.867   6.221 -1.5515  0.6870 -1.2784
   56MOL   H25517965   8.007   3.866   5.978  0.2566  2.2987 -2.8523
   56MOL   H25617966   8.097   4.234   5.778  0.7544  0.3496 -1.3497
   56MOL   H25717967   8.129   4.121   5.651 -0.0958  0.6730 -0.5373
   56MOL   C25817968   7.928   4.108   5.697 -0.1660  0.0203  0.6107
   56MOL   C25917969   7.910   3.963   5.650  0.3749 -0.5371 -1.0624
   56MOL   C26017970   7.867   3.858   5.739  0.3200 -0.2452 -0.1396
   56MOL   C26117971   7.859   3.727   5.698  0.1380 -0.3105  0.1491
   56MOL   C26217972   7.897   3.696   5.562 -0.4360  0.2293  0.3856
   56MOL  Cl26317973   7.902   3.529   5.517 -0.1345 -0.2861 -0.3597
   56MOL   C26417974   7.931   3.800   5.472  0.2786 -0.1044 -0.2044
   56MOL   C26517975   7.939   3.935   5.515 -0.1098  0.4444  0.3599
   56MOL   C26617976   7.816   4.169   5.792 -1.2731 -0.1964  0.3848
   56MOL   H26717977   7.922   4.165   5.605  0.8422 -2.2914 -0.9258
   56MOL   H26817978   7.838   3.883   5.840 -0.2462 -4.2092  0.7564
   56MOL   H26917979   7.830   3.659   5.776 -0.7050  1.8513  1.7768
   56MOL   H27017980   7.975   3.770   5.379 -1.9096  0.0830 -1.3213
   56MOL   H27117981   7.981   4.013   5.454  0.4846  2.3560  3.1503
   56MOL   H27217982   7.737   4.094   5.797 -0.4217 -1.2198 -1.3135
   56MOL   H27317983   7.853   4.190   5.892 -0.1330  0.2887 -0.1322
   56MOL   C27417984   7.752   4.295   5.731  0.0267 -0.7226  0.1509
   56MOL   C27517985   7.690   4.275   5.587  0.4721  0.0234  0.0859
   56MOL   C27617986   7.738   4.344   5.473 -0.3825  0.7554 -0.9153
   56MOL   C27717987   7.687   4.327   5.347 -0.0817  0.3807 -0.5088
   56MOL   C27817988   7.588   4.234   5.324  0.6408 -0.5948  0.2314
   56MOL  Cl27917989   7.521   4.214   5.166 -0.3314 -0.0494  0.3014
   56MOL   C28017990   7.532   4.165   5.429  0.3331 -0.3237  0.4520
   56MOL   C28117991   7.586   4.186   5.562 -0.2598  0.6826  0.2085
   56MOL   C28217992   7.639   4.352   5.822  0.1332  0.7597  0.2762
   56MOL   H28317993   7.830   4.370   5.718 -0.1293 -0.5911 -0.0287
   56MOL   H28417994   7.809   4.423   5.494 -0.2086 -0.4121  3.5115
   56MOL   H28517995   7.739   4.380   5.269  3.0297 -0.8616  0.6487
   56MOL   H28617996   7.451   4.095   5.417 -0.8805  1.0559  0.4289
   56MOL   H28717997   7.537   4.133   5.643  0.6869 -0.0070  0.3384
   56MOL   H28817998   7.601   4.445   5.777  3.0690  1.7357 -0.2717
   56MOL   H28917999   7.554   4.284   5.827  1.1012 -0.6136 -1.5009
   56MOL   C29018000   7.679   4.404   5.955  0.0829  0.3377  0.3875
   56MOL   C29118001   7.802   4.489   5.949 -0.3331 -0.1194  0.3379
   56MOL   C29218002   7.790   4.621   5.887 -0.6753 -0.3176 -0.0010
   56MOL   C29318003   7.906   4.703   5.877  0.8099 -0.0749 -0.2095
   56MOL   C29418004   8.034   4.670   5.931  0.0133 -0.1004 -0.0628
   56MOL  Cl29518005   8.173   4.774   5.926 -0.3390  0.3400  0.1460
   56MOL   C29618006   8.043   4.542   5.991  0.0201 -0.4252 -0.3374
   56MOL   C29718007   7.933   4.453   5.995  0.9257  0.4135 -0.2543
   56MOL   C29818008   7.562   4.471   6.031 -0.5404  0.3678 -0.0895
   56MOL   H29918009   7.713   4.317   6.011  0.8602 -0.7096 -1.6684
   56MOL   H30018010   7.697   4.650   5.840 -0.9253 -1.0502  0.0245
   56MOL   H30118011   7.912   4.797   5.823 -2.4501  0.5325  0.3595
   56MOL   H30218012   8.140   4.510   6.026  0.0820 -0.1192 -0.2284
   56MOL   H30318013   7.938   4.347   6.014  2.1275 -0.1952 -3.6379
   56MOL   H30418014   7.538   4.573   5.999 -0.0912  0.2101 -0.9386
   56MOL   H30518015   7.481   4.398   6.032 -0.4818  0.2680  3.6123
   56MOL   C30618016   7.596   4.496   6.184 -0.2500  0.0495 -0.0162
   56MOL   C30718017   7.485   4.579   6.248  0.3238  0.0932 -0.0717
   56MOL   C30818018   7.349   4.542   6.226  0.3518 -0.1432  0.1808
   56MOL   C30918019   7.247   4.628   6.270 -0.3850 -0.0594 -0.2943
   56MOL   C31018020   7.269   4.739   6.347 -0.0875 -0.1656 -0.4843
   56MOL  Cl31118021   7.148   4.825   6.427 -0.3451 -0.2503  0.1727
   56MOL   C31218022   7.402   4.775   6.380  0.1614 -0.0575  0.0073
   56MOL   C31318023   7.509   4.696   6.323  0.0766 -0.3083  0.1738
   56MOL   C31418024   7.613   4.372   6.275  0.5596 -0.3427  0.8639
   56MOL   H31518025   7.690   4.552   6.181 -0.6290  0.8580  2.5037
   56MOL   H31618026   7.323   4.459   6.163 -0.8503  0.2305  0.1778
   56MOL   H31718027   7.147   4.608   6.234  0.5143  0.0561 -2.9634
   56MOL   H31818028   7.407   4.865   6.440  1.0397 -0.6713  0.8741
   56MOL   H31918029   7.611   4.729   6.340  0.0962  0.5561 -1.5062
   56MOL   H32018030   7.676   4.297   6.227  1.4385  0.8078  0.1954
   56MOL   H32118031   7.651   4.392   6.375  0.8578  0.4847  0.5863
   56MOL   H32218032   7.514   4.325   6.272 -0.0120  0.9212 -0.3509
   57MOL     C118033   3.782   1.457   0.928 -0.7394  0.6154 -0.0301
   57MOL     C218034   3.641   1.443   0.985  0.2755 -0.9540 -0.8609
   57MOL     C318035   3.523   1.436   0.908 -0.7859 -0.0306 -0.3333
   57MOL     C418036   3.401   1.454   0.971  0.3465 -0.2417 -0.8527
   57MOL     C518037   3.380   1.465   1.110 -0.3404 -0.4103 -0.8100
   57MOL    Cl618038   3.219   1.466   1.166  0.1993 -0.1415  0.0254
   57MOL     C718039   3.500   1.463   1.192 -0.1411 -0.5846  0.3306
   57MOL     C818040   3.626   1.455   1.128 -0.3971  0.7227 -0.1769
   57MOL     C918041   3.795   1.404   0.785 -0.3488 -0.4790  0.0922
   57MOL    H1018042   3.846   1.401   0.995  0.3238  2.2251  0.3317
   57MOL    H1118043   3.518   1.421   0.802  0.0675 -2.6528 -0.0221
   57MOL    H1218044   3.310   1.452   0.912  0.1903 -2.2911 -0.6042
   57MOL    H1318045   3.479   1.461   1.297  1.9375  2.0155  0.8555
   57MOL    H1418046   3.707   1.450   1.199 -0.4035 -1.8503 -0.3157
   57MOL    H1518047   3.747   1.307   0.783 -2.7311  0.6701 -2.6939
   57MOL    H1618048   3.744   1.471   0.715 -0.6444 -0.9799 -0.1744
   57MOL    H1718049   3.796   1.565   0.941  0.7159  0.4329 -0.0967
   57MOL    C1818050   3.943   1.377   0.739 -1.2060  0.9446  0.0061
   57MOL    C1918051   4.024   1.293   0.836 -0.3419  0.6746 -0.2124
   57MOL    C2018052   4.003   1.160   0.880  0.1491 -0.4934  0.0218
   57MOL    C2118053   4.095   1.097   0.964  0.5201 -1.2614 -0.4613
   57MOL    C2218054   4.208   1.159   1.018  0.5476  0.2021  0.6014
   57MOL   Cl2318055   4.302   1.082   1.134 -0.0964 -0.0620 -0.0735
   57MOL    C2418056   4.221   1.296   0.992  0.2156  0.8220  0.7035
   57MOL    C2518057   4.135   1.359   0.900  0.4561  0.3860  0.0097
   57MOL    C2618058   3.955   1.320   0.597  0.5779  0.3171  0.4215
   57MOL    H2718059   3.991   1.475   0.737 -2.6510  1.7186  1.5801
   57MOL    H2818060   3.922   1.099   0.843 -0.0684  0.3335 -0.9082
   57MOL    H2918061   4.070   0.997   0.994 -1.0952 -0.2868  1.5057
   57MOL    H3018062   4.313   1.332   1.037  0.2935 -0.5791  1.7306
   57MOL    H3118063   4.151   1.462   0.871 -0.9038  0.4612 -0.4935
   57MOL    H3218064   3.886   1.236   0.586  2.0048 -0.8393  0.1691
   57MOL    H3318065   3.908   1.393   0.531 -0.5603 -0.7108  0.0809
   57MOL    C3418066   4.091   1.267   0.544  0.1270  0.3671 -0.2472
   57MOL    C3518067   4.066   1.190   0.412  0.0101 -0.0352  0.2925
   57MOL    C3618068   3.997   1.254   0.306  0.0125  0.8227  0.1547
   57MOL    C3718069   3.988   1.188   0.184 -0.4344  0.2699  0.6135
   57MOL    C3818070   4.048   1.061   0.169  0.0968  1.2143 -0.0491
   57MOL   Cl3918071   4.045   0.985   0.018  0.2406  0.1668  0.6245
   57MOL    C4018072   4.101   0.989   0.277  0.0484  0.5100  0.1935
   57MOL    C4118073   4.103   1.055   0.402  0.7718  0.6405  0.4075
   57MOL    C4218074   4.210   1.373   0.539 -0.1437 -0.2363 -0.1757
   57MOL    H4318075   4.124   1.196   0.619  0.2587  2.8386  2.1403
   57MOL    H4418076   3.961   1.355   0.321  0.4519  1.0260 -0.1578
   57MOL    H4518077   3.942   1.237   0.099  0.2923 -0.9283 -0.4866
   57MOL    H4618078   4.165   0.903   0.270  0.8006  1.0501  0.3553
   57MOL    H4718079   4.146   1.004   0.487  1.5381 -3.9039 -2.5321
   57MOL    H4818080   4.181   1.446   0.464 -1.4662 -1.0691 -0.4915
   57MOL    H4918081   4.210   1.424   0.636 -0.0981 -1.2573  0.3668
   57MOL    C5018082   4.349   1.313   0.503 -0.5483 -0.5514  0.2000
   57MOL    C5118083   4.454   1.417   0.476 -0.2036 -0.1616  1.2575
   57MOL    C5218084   4.554   1.454   0.569  0.3805 -0.4591 -0.4346
   57MOL    C5318085   4.657   1.542   0.544  0.3417 -0.5221 -0.0657
   57MOL    C5418086   4.660   1.595   0.410 -0.1565 -0.0842 -0.5147
   57MOL   Cl5518087   4.760   1.727   0.378 -0.3356  0.6569 -0.0029
   57MOL    C5618088   4.565   1.557   0.318 -0.1976  0.2042 -0.2410
   57MOL    C5718089   4.466   1.463   0.343  0.3341  0.1944 -0.4430
   57MOL    C5818090   4.398   1.209   0.610  0.2423 -0.4584  0.9365
   57MOL    H5918091   4.330   1.265   0.408 -2.4580 -0.5306  0.5586
   57MOL    H6018092   4.546   1.413   0.669  0.0555 -1.0969 -0.7188
   57MOL    H6118093   4.722   1.580   0.621  1.6356 -0.7752 -1.0147
   57MOL    H6218094   4.570   1.602   0.221  1.7001  0.3009 -0.1082
   57MOL    H6318095   4.388   1.431   0.276 -0.9872  0.9503  0.6940
   57MOL    H6418096   4.437   1.256   0.700  0.0052  1.9078 -0.1592
   57MOL    H6518097   4.312   1.155   0.646 -2.4160  1.2144 -2.5583
   57MOL    C6618098   4.506   1.107   0.564  0.1285 -0.1285 -0.5992
   57MOL    C6718099   4.515   1.006   0.681  0.1760  0.9628  0.1812
   57MOL    C6818100   4.413   0.912   0.705  0.2162  0.3681  0.7291
   57MOL    C6918101   4.420   0.826   0.814 -0.4128  0.0016 -0.0950
   57MOL    C7018102   4.526   0.836   0.901 -0.4537 -0.1908  0.6387
   57MOL   Cl7118103   4.520   0.736   1.032 -0.0912 -0.0450  0.5661
   57MOL    C7218104   4.624   0.931   0.887  0.1316  0.4287  0.0537
   57MOL    C7318105   4.623   1.012   0.774 -0.0704  0.0979 -0.0812
   57MOL    C7418106   4.490   1.039   0.424 -0.6030  0.2154  0.1121
   57MOL    H7518107   4.604   1.154   0.553 -0.0142  0.2202 -0.4196
   57MOL    H7618108   4.329   0.909   0.638  0.8418  0.8313 -0.0861
   57MOL    H7718109   4.344   0.750   0.822 -1.4485  1.0643  0.3159
   57MOL    H7818110   4.710   0.941   0.952  1.1684 -2.7000 -0.7700
   57MOL    H7918111   4.692   1.095   0.765 -0.9636  1.0445  1.4733
   57MOL    H8018112   4.386   1.008   0.414 -0.2934 -0.0984 -2.5398
   57MOL    H8118113   4.499   1.108   0.340 -0.2212 -0.8187 -0.7125
   57MOL    C8218114   4.561   0.906   0.390  0.3212 -0.0690 -0.3001
   57MOL    C8318115   4.502   0.855   0.264  0.9430  0.4909 -0.0545
   57MOL    C8418116   4.394   0.759   0.264 -0.6325 -0.4076 -0.1969
   57MOL    C8518117   4.334   0.717   0.143  0.2856 -0.6843  0.2909
   57MOL    C8618118   4.382   0.770   0.022 -0.1166  0.3051 -0.6744
   57MOL   Cl8718119   4.307   0.721   8.316 -0.1229  0.0565 -0.1137
   57MOL    C8818120   4.484   0.860   0.021 -0.7877  0.4191 -0.8257
   57MOL    C8918121   4.542   0.902   0.140 -0.1130  0.1818 -0.2395
   57MOL    C9018122   4.711   0.903   0.397  0.0815 -0.5463  0.2587
   57MOL    H9118123   4.538   0.824   0.459 -0.6353 -3.2223 -4.1344
   57MOL    H9218124   4.352   0.718   0.354 -0.8649 -1.6356 -0.8530
   57MOL    H9318125   4.261   0.639   0.160 -1.3693  0.7845  0.0540
   57MOL    H9418126   4.517   0.892   8.366  0.5832 -0.1348 -0.5659
   57MOL    H9518127   4.623   0.972   0.127  0.4487 -0.0035  2.0979
   57MOL    H9618128   4.740   0.990   0.337  2.5869 -2.5007 -1.4389
   57MOL    H9718129   4.740   0.931   0.498 -1.3145  0.9280  0.2672
   57MOL    C9818130   4.781   0.777   0.337 -0.4982  0.2206  0.1400
   57MOL    C9918131   4.928   0.793   0.359 -0.1690  0.3537 -0.2639
   57MOL   C10018132   5.022   0.775   0.248 -0.5244 -0.0005  0.2473
   57MOL   C10118133   5.165   0.778   0.264  0.4069 -0.1112 -0.2613
   57MOL   C10218134   5.209   0.799   0.391  0.6150  0.1195  0.5281
   57MOL  Cl10318135   5.376   0.796   0.420  0.0469 -0.3973  0.0744
   57MOL   C10418136   5.125   0.820   0.498 -0.0597  0.4040  0.3477
   57MOL   C10518137   4.985   0.805   0.486 -0.9596  0.5351 -0.1440
   57MOL   C10618138   4.739   0.644   0.397  0.0729 -0.4030 -0.2463
   57MOL   H10718139   4.772   0.773   0.229  0.5393 -0.3661  0.0681
   57MOL   H10818140   4.989   0.748   0.149  0.6917 -0.9031  0.0745
   57MOL   H10918141   5.235   0.754   0.185  3.6843  2.9549  1.5703
   57MOL   H11018142   5.163   0.834   0.599 -0.2025 -1.4163  0.6761
   57MOL   H11118143   4.929   0.810   0.579 -0.1220 -1.2121  0.4866
   57MOL   H11218144   4.828   0.595   0.435  0.4427  0.3702 -0.1015
   57MOL   H11318145   4.682   0.666   0.487  0.4288 -1.5072  0.2547
   57MOL   C11418146   4.667   0.541   0.311  0.5526  0.3951 -0.0639
   57MOL   C11518147   4.725   0.514   0.176 -0.8093 -1.0262  0.8273
   57MOL   C11618148   4.863   0.483   0.158 -0.6852 -0.0083 -0.3753
   57MOL   C11718149   4.918   0.473   0.030  0.8146 -0.5726 -1.3104
   57MOL   C11818150   4.836   0.473   8.363  0.4041  0.5220  0.9537
   57MOL  Cl11918151   4.894   0.472   8.204 -0.3527  0.0286  0.0597
   57MOL   C12018152   4.700   0.498   8.374 -0.1713  0.4778 -0.1561
   57MOL   C12118153   4.643   0.522   0.057  0.1478  0.0688  1.0549
   57MOL   C12218154   4.656   0.408   0.383 -0.4335  0.0001  0.5157
   57MOL   H12318155   4.565   0.579   0.297  0.9897  1.4679 -0.4460
   57MOL   H12418156   4.929   0.484   0.243 -0.1981  2.6227 -0.7503
   57MOL   H12518157   5.024   0.469   0.013  1.1216  3.0505 -0.6903
   57MOL   H12618158   4.626   0.488   8.296  0.0403 -1.4872 -0.1315
   57MOL   H12718159   4.538   0.528   0.082 -0.1848  0.7099 -0.4559
   57MOL   H12818160   4.617   0.336   0.310  1.5182  0.7904 -1.3318
   57MOL   H12918161   4.756   0.382   0.418 -0.9396 -0.5172  1.6275
   57MOL   C13018162   4.562   0.410   0.510  0.2094  0.7028 -0.1742
   57MOL   C13118163   4.421   0.456   0.485  0.3465  0.5026 -0.4764
   57MOL   C13218164   4.361   0.559   0.566  0.2891 -0.0187 -0.7671
   57MOL   C13318165   4.228   0.597   0.556 -0.8239  0.0186  0.0924
   57MOL   C13418166   4.153   0.540   0.448  0.0089  0.2599 -0.4612
   57MOL  Cl13518167   3.993   0.605   0.422  0.1799 -0.4119 -0.1191
   57MOL   C13618168   4.212   0.439   0.365 -0.2267 -0.0509  0.0962
   57MOL   C13718169   4.348   0.405   0.379  0.7105  0.1704  0.0816
   57MOL   C13818170   4.560   0.272   0.585 -0.5695 -0.3423 -0.8575
   57MOL   H13918171   4.601   0.484   0.579  0.0444  0.2694  0.3914
   57MOL   H14018172   4.423   0.608   0.639 -0.7038  0.5092 -0.2601
   57MOL   H14118173   4.178   0.670   0.618  0.1747 -1.1534  2.3420
   57MOL   H14218174   4.154   0.379   0.297 -1.1462 -0.4510  1.2397
   57MOL   H14318175   4.380   0.324   0.316 -0.3936 -0.9734  0.9610
   57MOL   H14418176   4.483   0.271   0.663  1.0701  2.2638  0.8803
   57MOL   H14518177   4.522   0.198   0.515  1.7396 -3.3964  0.9605
   57MOL   C14618178   4.689   0.225   0.664  0.4960  0.0965 -0.0019
   57MOL   C14718179   4.775   0.341   0.706 -0.2656 -0.0433 -0.1650
   57MOL   C14818180   4.899   0.371   0.646 -0.3715  0.3672 -0.1394
   57MOL   C14918181   4.971   0.490   0.686 -0.7119  0.4342  0.2829
   57MOL   C15018182   4.922   0.571   0.787 -0.4022 -0.2449  0.6591
   57MOL  Cl15118183   5.022   0.709   0.824  0.3816 -0.4658 -0.0819
   57MOL   C15218184   4.803   0.541   0.852 -0.3556  0.1563 -0.0989
   57MOL   C15318185   4.735   0.422   0.814  0.3509  0.3426  0.4379
   57MOL   C15418186   4.655   0.116   0.762 -0.5355  0.2401  0.2880
   57MOL   H15518187   4.750   0.174   0.589  0.1638 -1.6176  0.8651
   57MOL   H15618188   4.947   0.312   0.569 -0.5696  0.9407 -0.7032
   57MOL   H15718189   5.057   0.519   0.626 -0.7746  0.2720  0.1113
   57MOL   H15818190   4.757   0.593   0.934  2.3973  0.6079  1.1996
   57MOL   H15918191   4.636   0.410   0.853  0.6168 -1.7701  0.5177
   57MOL   H16018192   4.592   0.167   0.835 -0.0442 -1.1843  1.7325
   57MOL   H16118193   4.592   0.034   0.729  0.9342 -1.4048  1.4994
   57MOL   C16218194   4.775   0.043   0.835  0.0188 -0.5164  0.6400
   57MOL   C16318195   4.735   8.442   0.973  0.0560  0.0815 -0.2332
   57MOL   C16418196   4.674   8.313   1.003  0.1428  0.3173 -0.0737
   57MOL   C16518197   4.639   8.283   1.135 -0.9969  0.3796  0.6813
   57MOL   C16618198   4.655   8.373   1.237 -0.3164 -0.1159 -0.2165
   57MOL  Cl16718199   4.609   8.322   1.398  0.0538  0.0040  0.0425
   57MOL   C16818200   4.700   0.058   1.207  0.7178 -0.1115  0.3776
   57MOL   C16918201   4.745   0.091   1.075 -0.7463  0.1373  0.2344
   57MOL   C17018202   4.840   8.379   0.745 -0.2791  0.0028  0.6169
   57MOL   H17118203   4.853   0.119   0.848 -2.3365  2.6046 -2.3436
   57MOL   H17218204   4.669   8.234   0.930  1.1841 -0.7355  0.9510
   57MOL   H17318205   4.617   8.180   1.159  0.9367 -0.2589 -0.2052
   57MOL   H17418206   4.714   0.129   1.287  2.4351  1.3566 -1.1857
   57MOL   H17518207   4.768   0.191   1.044 -1.0020 -0.1484 -0.8769
   57MOL   H17618208   4.779   8.289   0.735 -0.4986  0.2559 -0.3179
   57MOL   H17718209   4.829   8.420   0.645 -0.2401  1.4750  1.2146
   57MOL   C17818210   5.000   8.352   0.771  0.1956 -0.7080 -0.7170
   57MOL   C17918211   5.089   0.023   0.717 -0.0841 -0.7533 -0.2022
   57MOL   C18018212   5.123   0.138   0.798  0.1764  0.2538 -0.1979
   57MOL   C18118213   5.195   0.246   0.732  0.2315  0.4407  0.7306
   57MOL   C18218214   5.240   0.245   0.601  0.4784  0.6504  0.5030
   57MOL  Cl18318215   5.327   0.377   0.533  0.2609  0.0740  0.0665
   57MOL   C18418216   5.204   0.132   0.525  0.0924 -0.3274  0.3133
   57MOL   C18518217   5.129   0.028   0.585  1.2176 -0.5329  0.0186
   57MOL   C18618218   5.044   8.318   0.917  1.3321  0.3796 -0.6648
   57MOL   H18718219   5.025   8.267   0.707 -0.6335 -0.1316 -1.8449
   57MOL   H18818220   5.106   0.162   0.902  0.4933  1.4699 -0.4194
   57MOL   H18918221   5.237   0.324   0.794 -1.9936  1.9736  0.3492
   57MOL   H19018222   5.243   0.127   0.425 -0.9006 -0.2623 -0.0779
   57MOL   H19118223   5.083   8.390   0.531 -0.5966  0.5680 -0.1559
   57MOL   H19218224   5.153   8.315   0.928  1.2195 -0.7901  0.2085
   57MOL   H19318225   5.020   8.405   0.978 -0.2444 -0.7408  0.3619
   57MOL   C19418226   5.001   8.184   0.980 -0.1004  0.4302  0.5133
   57MOL   C19518227   5.072   8.067   0.919 -0.4914 -0.4052  0.0184
   57MOL   C19618228   4.996   7.963   0.860 -0.4540 -0.7235 -0.3166
   57MOL   C19718229   5.057   7.846   0.822 -0.2604  0.5969 -0.4876
   57MOL   C19818230   5.196   7.838   0.834 -0.0390  0.3905 -0.6496
   57MOL  Cl19918231   5.273   7.692   0.793 -0.0896  0.2186  0.0285
   57MOL   C20018232   5.274   7.947   0.883  0.4232 -0.6663 -0.5924
   57MOL   C20118233   5.209   8.062   0.923 -0.1319 -0.0095 -0.0758
   57MOL   C20218234   5.020   8.196   1.129  0.2774 -0.2612  0.3539
   57MOL   H20318235   4.895   8.165   0.965  0.3123  0.1062 -2.1715
   57MOL   H20418236   4.890   7.975   0.841 -0.1735 -1.6108 -2.7045
   57MOL   H20518237   4.998   7.770   0.773  1.8365  0.5144 -3.0186
   57MOL   H20618238   5.381   7.956   0.891  0.4884  1.3716 -3.1245
   57MOL   H20718239   5.265   8.144   0.964 -1.1130  1.0309 -0.7727
   57MOL   H20818240   5.124   8.230   1.137 -0.1553  1.4715 -1.1125
   57MOL   H20918241   4.965   8.276   1.180 -0.2166 -0.2360 -0.2209
   57MOL   C21018242   5.018   8.063   1.207  0.3482 -0.7198 -0.1171
   57MOL   C21118243   5.125   8.055   1.320  0.2410 -0.0863  0.3756
   57MOL   C21218244   5.118   8.133   1.434  1.0380  0.7113 -0.0063
   57MOL   C21318245   5.228   8.133   1.527 -1.1000 -0.6870 -0.0347
   57MOL   C21418246   5.317   8.022   1.522  0.0500 -0.3278  0.2152
   57MOL  Cl21518247   5.437   8.002   1.644 -0.2232 -0.0968  0.0195
   57MOL   C21618248   5.322   7.946   1.410 -0.1616  0.4129 -0.1370
   57MOL   C21718249   5.231   7.960   1.307 -0.3781  0.2941  0.5175
   57MOL   C21818250   4.876   8.017   1.249  0.4390  0.2153  0.2291
   57MOL   H21918251   5.059   7.986   1.143 -1.4065 -0.5932 -1.4247
   57MOL   H22018252   5.043   8.209   1.448  0.6330 -0.2922  4.1097
   57MOL   H22118253   5.239   8.194   1.615 -0.6257 -1.0917  0.1873
   57MOL   H22218254   5.402   7.876   1.394 -0.5433 -0.1938  0.5723
   57MOL   H22318255   5.241   7.905   1.214 -0.0600 -0.2045  0.8426
   57MOL   H22418256   4.829   8.096   1.307 -0.5746  0.3940 -0.8283
   57MOL   H22518257   4.827   8.012   1.152  2.0890 -0.0082 -0.6174
   57MOL   C22618258   4.868   7.881   1.313  0.2334  0.2005 -0.3597
   57MOL   C22718259   4.728   7.856   1.385 -0.4638 -0.4088 -0.8917
   57MOL   C22818260   4.608   7.855   1.315  0.4128  0.6404 -0.0580
   57MOL   C22918261   4.486   7.823   1.378  0.5120  0.5008  0.8893
   57MOL   C23018262   4.487   7.809   1.517  0.1387  1.0955 -0.0456
   57MOL  Cl23118263   4.335   7.761   1.582 -0.0601  0.2477  0.2676
   57MOL   C23218264   4.600   7.818   1.593  0.4372  0.5624  0.2495
   57MOL   C23318265   4.722   7.841   1.529 -0.1934 -0.4256  0.3040
   57MOL   C23418266   4.902   7.760   1.215  0.1251  0.0065  0.2179
   57MOL   H23518267   4.951   7.873   1.383  0.4354  0.1169 -0.6082
   57MOL   H23618268   4.614   7.874   1.209  0.6433  1.0329  0.0248
   57MOL   H23718269   4.390   7.814   1.329  1.1740  1.7758 -0.7250
   57MOL   H23818270   4.597   7.793   1.698  0.2271  0.8567  0.3138
   57MOL   H23918271   4.814   7.853   1.584  0.4355 -0.2572 -0.7702
   57MOL   H24018272   4.817   7.761   1.147 -0.5480  0.7680  1.0639
   57MOL   H24118273   4.989   7.776   1.152  1.3123 -3.7835  0.8058
   57MOL   C24218274   4.923   7.631   1.293  0.2881  0.2165 -0.1936
   57MOL   C24318275   4.900   7.497   1.215  0.7837 -0.1053 -0.4289
   57MOL   C24418276   4.974   7.471   1.097 -0.0100  0.3423  0.7547
   57MOL   C24518277   4.964   7.342   1.033  0.4382  0.8038  0.0911
   57MOL   C24618278   4.890   7.233   1.087 -0.5214 -0.9227 -0.2168
   57MOL  Cl24718279   4.878   7.070   1.018  0.0952  0.0948 -0.2677
   57MOL   C24818280   4.815   7.266   1.200  0.1782 -0.5268  0.2420
   57MOL   C24918281   4.809   7.394   1.260 -0.6727 -0.2016 -0.1022
   57MOL   C25018282   5.069   7.626   1.349 -0.5741 -0.5945  1.1013
   57MOL   H25118283   4.845   7.632   1.369  1.0976 -0.1677  0.6576
   57MOL   H25218284   5.044   7.545   1.062  0.1229  0.5216  1.3883
   57MOL   H25318285   5.024   7.326   0.944  1.5122  2.3164  0.5210
   57MOL   H25418286   4.751   7.183   1.223 -0.1661 -0.7753 -1.5048
   57MOL   H25518287   4.754   7.411   1.352 -1.7773 -1.7700 -0.4570
   57MOL   H25618288   5.135   7.582   1.273 -0.6204  0.1538  0.6252
   57MOL   H25718289   5.107   7.725   1.372 -0.7958 -0.5362  1.2074
   57MOL   C25818290   5.097   7.545   1.472 -1.0083 -0.1072  1.1319
   57MOL   C25918291   5.249   7.537   1.489  0.0596  0.4000  0.5133
   57MOL   C26018292   5.312   7.417   1.461  0.5219 -0.4563  0.3174
   57MOL   C26118293   5.448   7.398   1.495  0.0046 -0.3917  0.2336
   57MOL   C26218294   5.522   7.508   1.531 -0.1086  0.4212 -0.2737
   57MOL  Cl26318295   5.688   7.500   1.570 -0.1774 -0.0055  0.2764
   57MOL   C26418296   5.462   7.631   1.558  0.6981  0.7813  0.1427
   57MOL   C26518297   5.321   7.647   1.535  0.5959  0.1932 -0.3319
   57MOL   C26618298   5.028   7.606   1.601 -0.0523 -0.6820  0.3860
   57MOL   H26718299   5.053   7.447   1.453 -1.0010 -0.4934  3.0546
   57MOL   H26818300   5.255   7.331   1.427 -0.6913  1.4496 -2.6629
   57MOL   H26918301   5.500   7.306   1.474 -2.8372 -1.9224 -0.3825
   57MOL   H27018302   5.519   7.719   1.583  0.7799  0.8561 -0.3014
   57MOL   H27118303   5.276   7.740   1.566 -0.3091  0.4850 -2.4606
   57MOL   H27218304   5.037   7.714   1.604 -0.5222 -0.6475  0.4896
   57MOL   H27318305   4.922   7.584   1.593  0.2179 -2.0136  0.3636
   57MOL   C27418306   5.072   7.545   1.738 -0.4649  0.5190 -0.4600
   57MOL   C27518307   4.995   7.601   1.850 -1.1068  0.5340  0.0656
   57MOL   C27618308   5.069   7.666   1.955  0.5208  0.0160  0.1305
   57MOL   C27718309   4.995   7.718   2.067  0.4102  0.0567 -0.2032
   57MOL   C27818310   4.856   7.719   2.071  0.3623 -0.4882  0.0212
   57MOL  Cl27918311   4.783   7.790   2.212 -0.1964  0.0919  0.1398
   57MOL   C28018312   4.779   7.658   1.971  0.0772  0.3830 -0.4331
   57MOL   C28118313   4.850   7.601   1.859 -0.2958 -0.7706  0.0710
   57MOL   C28218314   5.068   7.387   1.743  0.7788  0.0771 -0.3967
   57MOL   H28318315   5.172   7.584   1.757 -0.5082  0.7873 -0.7813
   57MOL   H28418316   5.177   7.670   1.953  0.4929  0.4452 -1.4010
   57MOL   H28518317   5.040   7.774   2.148  1.7590 -0.7488 -0.3840
   57MOL   H28618318   4.672   7.649   1.981 -0.1021 -0.5600 -2.8990
   57MOL   H28718319   4.798   7.553   1.778 -0.5881 -1.9498  0.9470
   57MOL   H28818320   4.962   7.360   1.750  0.1943  1.7597 -2.4388
   57MOL   H28918321   5.099   7.333   1.654  2.2152 -1.3481  0.9263
   57MOL   C29018322   5.129   7.314   1.863 -0.1096 -0.2429 -0.5549
   57MOL   C29118323   5.048   7.197   1.915  0.2461  0.4386  0.1612
   57MOL   C29218324   4.973   7.217   2.028  0.4824 -0.2692 -0.6582
   57MOL   C29318325   4.894   7.113   2.083 -0.1404  0.1354 -0.4002
   57MOL   C29418326   4.903   6.985   2.023 -0.6858  0.7667 -0.2980
   57MOL  Cl29518327   4.816   6.848   2.089 -0.2580  0.0060 -0.6894
   57MOL   C29618328   4.974   6.961   1.905 -0.0823 -0.4383  0.3783
   57MOL   C29718329   5.051   7.069   1.853 -0.2380  0.6336  0.7431
   57MOL   C29818330   5.272   7.275   1.839 -0.2881 -0.8306  0.0485
   57MOL   H29918331   5.132   7.385   1.946 -0.8037  0.9222 -1.5109
   57MOL   H30018332   4.972   7.311   2.082 -0.3026 -1.3411  1.2734
   57MOL   H30118333   4.843   7.133   2.176  2.0660  2.4894  0.3548
   57MOL   H30218334   4.991   6.863   1.861  0.4752  1.0475 -2.8592
   57MOL   H30318335   5.129   7.052   1.780  1.0408 -1.2404  2.4711
   57MOL   H30418336   5.283   7.182   1.783  0.3135 -0.3743 -0.5912
   57MOL   H30518337   5.309   7.349   1.769  0.4824 -0.9171  0.3574
   57MOL   C30618338   5.360   7.281   1.964 -0.3648 -0.3291 -0.4909
   57MOL   C30718339   5.510   7.230   1.946  0.4335 -0.8119  0.2472
   57MOL   C30818340   5.567   7.148   2.048 -0.2879 -0.3965  0.0326
   57MOL   C30918341   5.703   7.104   2.032  0.3762  0.0633 -0.0378
   57MOL   C31018342   5.777   7.144   1.919  0.5059 -0.3475  0.5348
   57MOL  Cl31118343   5.949   7.122   1.907 -0.2150  0.3580  0.4145
   57MOL   C31218344   5.716   7.215   1.813 -0.6182  1.2750 -0.0814
   57MOL   C31318345   5.584   7.255   1.830 -0.2836 -0.2620  0.0596
   57MOL   C31418346   5.372   7.424   2.027  0.3414  0.0791 -0.6686
   57MOL   H31518347   5.321   7.217   2.043 -0.5433 -1.2688 -1.3320
   57MOL   H31618348   5.507   7.121   2.133 -0.2398 -0.3725  0.0741
   57MOL   H31718349   5.745   7.045   2.113  1.7115  0.6533 -0.2890
   57MOL   H31818350   5.771   7.235   1.722  1.2944 -0.3663  0.6681
   57MOL   H31918351   5.542   7.316   1.752  1.3448  2.4636  1.2546
   57MOL   H32018352   5.445   7.434   2.107 -0.8303 -3.9621  1.0631
   57MOL   H32118353   5.407   7.491   1.949  2.5992  0.5060  0.6776
   57MOL   H32218354   5.276   7.461   2.066  0.4738  2.2986 -2.3217
   58MOL     C118355   3.556   7.974   1.267 -0.3890  0.2287 -0.5725
   58MOL     C218356   3.604   8.045   1.145  0.0363 -0.4951 -0.5777
   58MOL     C318357   3.708   8.145   1.150  0.2774 -0.0419 -0.0265
   58MOL     C418358   3.748   8.211   1.032 -0.2957  0.1875  1.1444
   58MOL     C518359   3.690   8.178   0.912  0.1786  0.3973 -0.5693
   58MOL    Cl618360   3.745   8.252   0.771 -0.2181  0.0803 -0.4113
   58MOL     C718361   3.587   8.081   0.903  0.7685  0.7625 -0.6384
   58MOL     C818362   3.545   8.015   1.018 -0.2748 -0.1086  0.1895
   58MOL     C918363   3.577   7.821   1.265 -0.1106 -0.1156 -0.0496
   58MOL    H1018364   3.449   7.973   1.285 -0.5754 -2.9964 -1.5397
   58MOL    H1118365   3.752   8.167   1.246  0.8381  0.1647 -0.3296
   58MOL    H1218366   3.833   8.277   1.019 -1.1480  0.9604 -0.5473
   58MOL    H1318367   3.539   8.068   0.807  3.9286 -1.8940 -1.9637
   58MOL    H1418368   3.457   7.952   1.016 -0.3009 -0.2031  3.0650
   58MOL    H1518369   3.514   7.792   1.181 -0.9297 -1.7007  1.0798
   58MOL    H1618370   3.682   7.801   1.244 -0.5891 -1.3641 -1.3621
   58MOL    H1718371   3.597   8.027   1.353  1.3972 -2.0940  0.0815
   58MOL    C1818372   3.552   7.740   1.392 -0.4782  0.4889 -0.8191
   58MOL    C1918373   3.500   7.599   1.359  0.1666  0.3763 -0.1950
   58MOL    C2018374   3.561   7.509   1.269 -0.0413 -0.5402 -0.2177
   58MOL    C2118375   3.515   7.375   1.259 -0.5283 -0.8567  0.5631
   58MOL    C2218376   3.410   7.329   1.342  0.3561 -0.7194 -0.4156
   58MOL   Cl2318377   3.369   7.165   1.331  0.0896 -0.1711 -0.0593
   58MOL    C2418378   3.339   7.417   1.424 -0.4140  0.1963  0.7818
   58MOL    C2518379   3.387   7.551   1.433 -0.2659  0.0212  0.4446
   58MOL    C2618380   3.666   7.744   1.496  0.4275 -0.5181 -0.3362
   58MOL    H2718381   3.466   7.793   1.432 -1.2021 -0.8616 -0.5382
   58MOL    H2818382   3.643   7.541   1.207  0.1280  0.4085  0.4796
   58MOL    H2918383   3.565   7.305   1.193 -0.0350  1.3493 -1.4737
   58MOL    H3018384   3.265   7.376   1.490 -0.4510 -3.0214 -1.1713
   58MOL    H3118385   3.342   7.619   1.503 -1.5957 -0.7906  0.3988
   58MOL    H3218386   3.644   7.659   1.561 -1.1119  0.4675  0.4585
   58MOL    H3318387   3.764   7.726   1.451  0.8291  0.5173  0.1036
   58MOL    C3418388   3.662   7.865   1.595  0.3546  0.2677 -0.7991
   58MOL    C3518389   3.518   7.887   1.652  0.0587 -0.0660  0.3820
   58MOL    C3618390   3.457   8.014   1.621  0.4485  0.0061  0.3408
   58MOL    C3718391   3.331   8.043   1.680  0.3791  0.2987  0.2518
   58MOL    C3818392   3.263   7.941   1.742 -0.1799  0.2929 -0.0389
   58MOL   Cl3918393   3.102   7.973   1.796  0.0488 -0.0793  0.4088
   58MOL    C4018394   3.323   7.822   1.777 -0.8433  0.5504  0.8092
   58MOL    C4118395   3.451   7.794   1.727  0.0576 -0.5812 -0.7076
   58MOL    C4218396   3.770   7.832   1.703 -0.2530 -0.3687  0.1434
   58MOL    H4318397   3.701   7.951   1.540  2.0748  1.5402  2.2721
   58MOL    H4418398   3.517   8.091   1.575  0.8812 -0.6553 -0.2097
   58MOL    H4518399   3.292   8.144   1.676  0.8703  0.5279  1.1424
   58MOL    H4618400   3.260   7.755   1.833 -0.0851 -1.4942 -0.7181
   58MOL    H4718401   3.498   7.701   1.753  2.2612  1.7905  4.4395
   58MOL    H4818402   3.735   7.752   1.769 -0.4259 -0.4966 -0.1019
   58MOL    H4918403   3.855   7.796   1.645 -0.7009 -1.1328 -0.0467
   58MOL    C5018404   3.809   7.950   1.802 -0.0853  0.4022  0.5008
   58MOL    C5118405   3.697   7.964   1.900 -0.5663 -0.0756 -0.2723
   58MOL    C5218406   3.673   7.865   1.993  0.6534  0.3906  0.4063
   58MOL    C5318407   3.564   7.878   2.079  0.7679 -0.2092 -0.2182
   58MOL    C5418408   3.480   7.992   2.077  0.3654 -0.1774  0.0131
   58MOL   Cl5518409   3.340   8.010   2.175  0.0035  0.1059  0.0629
   58MOL    C5618410   3.514   8.097   1.987  0.0274 -0.1559  0.5716
   58MOL    C5718411   3.616   8.080   1.894 -0.1475 -0.0778 -0.3723
   58MOL    C5818412   3.943   7.926   1.870 -0.1146 -0.7080  0.1385
   58MOL    H5918413   3.822   8.039   1.740  0.0833  0.1416  0.1562
   58MOL    H6018414   3.730   7.774   2.004 -0.6006 -0.4328  0.1867
   58MOL    H6118415   3.541   7.811   2.161 -0.8896  0.2054 -0.3172
   58MOL    H6218416   3.459   8.190   1.993 -0.3978 -0.3091 -0.6890
   58MOL    H6318417   3.643   8.166   1.834  0.3678 -1.4322 -2.1405
   58MOL    H6418418   3.940   7.839   1.937 -3.3727 -0.3719  0.5230
   58MOL    H6518419   4.003   7.883   1.790  0.1001  2.1544 -1.2638
   58MOL    C6618420   4.018   8.051   1.927  0.2260  0.5175  0.2175
   58MOL    C6718421   3.932   8.142   2.019 -0.2029 -0.2197  0.6699
   58MOL    C6818422   3.893   8.266   1.964  0.8627 -0.1849 -0.0140
   58MOL    C6918423   3.793   8.338   2.028 -0.0116 -0.6033 -0.7900
   58MOL    C7018424   3.745   8.297   2.152 -0.2414 -0.4002 -0.5143
   58MOL   Cl7118425   3.626   8.382   2.233  0.1822  0.2589 -0.0923
   58MOL    C7218426   3.779   8.174   2.204 -0.0916 -0.5807 -0.1446
   58MOL    C7318427   3.872   8.094   2.138 -0.1317  0.1890  0.1789
   58MOL    C7418428   4.149   7.995   2.002 -0.3335 -0.3340  0.0775
   58MOL    H7518429   4.059   8.118   1.851 -2.8035  2.6176  0.3486
   58MOL    H7618430   3.930   8.300   1.868  1.4694 -0.5878  0.0706
   58MOL    H7718431   3.760   8.428   1.978 -2.0960 -1.1513 -0.4491
   58MOL    H7818432   3.737   8.139   2.298  1.3343  2.3396  1.6370
   58MOL    H7918433   3.888   7.991   2.168 -0.4748 -0.5704 -2.1271
   58MOL    H8018434   4.119   7.924   2.078  2.1015  1.1306  2.4804
   58MOL    H8118435   4.204   7.934   1.930  0.9834  1.2308 -0.2595
   58MOL    C8218436   4.243   8.112   2.053 -0.4533 -0.1861 -0.4611
   58MOL    C8318437   4.308   8.056   2.178 -0.6833  0.3368 -0.4419
   58MOL    C8418438   4.286   8.117   2.305 -0.4525  0.2126 -0.1548
   58MOL    C8518439   4.343   8.066   2.424  0.2329 -0.2500 -0.0488
   58MOL    C8618440   4.417   7.948   2.419  0.0370  0.3330 -0.8464
   58MOL   Cl8718441   4.490   7.889   2.565  0.1188  0.3062 -0.2395
   58MOL    C8818442   4.443   7.885   2.294 -0.4993  0.2074  0.8075
   58MOL    C8918443   4.390   7.938   2.173 -0.4357  0.1447 -0.3038
   58MOL    C9018444   4.343   8.145   1.942  0.6549 -0.2948 -0.8452
   58MOL    H9118445   4.173   8.190   2.084 -0.2716 -0.8268  1.6428
   58MOL    H9218446   4.221   8.203   2.314 -0.9701 -0.2288  0.3380
   58MOL    H9318447   4.333   8.116   2.520 -1.2366 -0.8773  0.1324
   58MOL    H9418448   4.503   7.795   2.300 -1.7359 -0.7928 -0.9506
   58MOL    H9518449   4.406   7.897   2.075 -0.0741  0.7522 -0.4981
   58MOL    H9618450   4.394   8.053   1.912  0.7117 -0.2830 -0.7819
   58MOL    H9718451   4.304   8.198   1.855 -0.1693 -1.7701 -1.3954
   58MOL    C9818452   4.462   8.230   1.992 -0.7921  0.0590  0.0028
   58MOL    C9918453   4.589   8.162   1.940 -0.0735  0.1636 -0.5362
   58MOL   C10018454   4.677   8.095   2.024  0.0320 -0.1351 -0.1761
   58MOL   C10118455   4.795   8.046   1.968 -0.0038 -0.2233 -0.3016
   58MOL   C10218456   4.811   8.045   1.827 -0.4111  0.1195  0.0115
   58MOL  Cl10318457   4.953   7.971   1.770 -0.1672  0.6696  0.1543
   58MOL   C10418458   4.721   8.111   1.747 -0.3246 -0.2598  0.1903
   58MOL   C10518459   4.614   8.180   1.799 -0.4128 -0.7643 -0.0789
   58MOL   C10618460   4.448   8.382   1.943 -0.0410  0.0089 -0.0395
   58MOL   H10718461   4.473   8.222   2.100 -0.6567  3.6279  0.3204
   58MOL   H10818462   4.663   8.093   2.131 -0.1722 -1.1247 -0.2236
   58MOL   H10918463   4.872   8.011   2.035  0.5716 -0.1599 -0.9269
   58MOL   H11018464   4.727   8.117   1.639 -1.3022  0.0916  0.1545
   58MOL   H11118465   4.568   8.241   1.723 -1.1318  1.0207  1.7268
   58MOL   H11218466   4.535   0.000   1.966 -0.4890  0.6254  0.0400
   58MOL   H11318467   4.452   8.375   1.834  1.2387  4.1880 -0.3569
   58MOL   C11418468   4.324   0.031   1.987 -0.0068 -0.6228  1.0182
   58MOL   C11518469   4.284   0.022   2.132 -0.3116  0.4744  0.3981
   58MOL   C11618470   4.151   0.012   2.174 -0.0285 -0.7813  0.3848
   58MOL   C11718471   4.119   0.001   2.311 -0.2760 -0.2520  0.4981
   58MOL   C11818472   4.214   0.010   2.410  0.5120 -0.3508 -0.3289
   58MOL  Cl11918473   4.170   0.014   2.577 -0.2202 -0.1372 -0.3949
   58MOL   C12018474   4.349   0.030   2.371  0.3520  0.2383 -0.0785
   58MOL   C12118475   4.381   0.031   2.234  0.0981  0.2804 -0.1588
   58MOL   C12218476   4.333   0.177   1.941 -0.6770 -0.2754 -0.6485
   58MOL   H12318477   4.244   8.434   1.925 -0.2158  2.1139 -0.5982
   58MOL   H12418478   4.066   0.004   2.108 -0.8473 -0.4226  1.3888
   58MOL   H12518479   4.017   8.430   2.343 -0.9576  1.1955 -0.9608
   58MOL   H12618480   4.428   0.036   2.445  1.1791  1.0639 -1.0194
   58MOL   H12718481   4.485   0.032   2.203  0.6341  1.5549  1.6044
   58MOL   H12818482   4.248   0.230   1.983  0.7390  0.6933  1.0560
   58MOL   H12918483   4.414   0.229   1.993  0.1002 -0.7911 -1.3360
   58MOL   C13018484   4.342   0.202   1.785  0.2672  0.5145 -1.0802
   58MOL   C13118485   4.231   0.119   1.712  0.1466  0.0128 -0.4235
   58MOL   C13218486   4.091   0.135   1.741 -0.8286 -0.7042 -0.4168
   58MOL   C13318487   3.996   0.058   1.673 -0.6653  0.4483  0.3221
   58MOL   C13418488   4.035   8.404   1.577 -0.4953  0.6494 -0.0901
   58MOL  Cl13518489   3.922   8.317   1.474  0.1886  0.1770 -0.2825
   58MOL   C13618490   4.169   8.388   1.555  0.0147  0.3189 -0.1867
   58MOL   C13718491   4.272   0.025   1.616 -0.7244  0.5812  0.5164
   58MOL   C13818492   4.320   0.352   1.755 -0.5587  0.5259  0.1655
   58MOL   H13918493   4.438   0.176   1.741 -0.8770  0.4048 -3.6074
   58MOL   H14018494   4.069   0.212   1.813  1.2170 -1.0272  0.5778
   58MOL   H14118495   3.890   0.080   1.684 -0.5374  1.9578 -1.2570
   58MOL   H14218496   4.186   8.307   1.485  1.5861  1.4154 -1.1031
   58MOL   H14318497   4.376   0.007   1.597 -0.9790 -0.5725  0.1844
   58MOL   H14418498   4.300   0.366   1.649 -1.4963 -1.3623  0.0732
   58MOL   H14518499   4.230   0.388   1.804 -0.1109  1.6846  0.1481
   58MOL   C14618500   4.442   0.440   1.783 -0.4656 -0.3616 -0.2720
   58MOL   C14718501   4.571   0.406   1.708 -0.5947 -0.4088 -0.5107
   58MOL   C14818502   4.563   0.383   1.567  0.1811  0.4090 -0.6453
   58MOL   C14918503   4.679   0.338   1.505  0.5186  0.2975 -0.1787
   58MOL   C15018504   4.795   0.306   1.581  0.2813 -0.2018  0.2649
   58MOL  Cl15118505   4.926   0.227   1.503 -0.1355  0.2769 -0.1493
   58MOL   C15218506   4.800   0.330   1.719  0.4374 -0.1827  0.3900
   58MOL   C15318507   4.692   0.390   1.778  0.2672 -0.0630 -0.5712
   58MOL   C15418508   4.408   0.591   1.767 -0.0211  0.0937  0.6050
   58MOL   H15518509   4.460   0.438   1.891  1.6435 -0.5345 -0.6073
   58MOL   H15618510   4.470   0.404   1.517 -0.0465 -2.1152 -1.3190
   58MOL   H15718511   4.683   0.321   1.398 -0.1853 -2.7522  0.2325
   58MOL   H15818512   4.888   0.312   1.778  1.1231 -3.5076 -1.5090
   58MOL   H15918513   4.694   0.413   1.884  1.4959 -2.6967  0.0158
   58MOL   H16018514   4.501   0.638   1.798  0.4442 -0.7768  0.5272
   58MOL   H16118515   4.381   0.623   1.666  0.8028 -0.1146  0.3194
   58MOL   C16218516   4.292   0.647   1.864 -0.3193  0.7961 -0.1874
   58MOL   C16318517   4.321   0.620   2.014  0.5783 -0.5200  0.0868
   58MOL   C16418518   4.415   0.699   2.089  0.0234 -0.6182  0.1302
   58MOL   C16518519   4.452   0.665   2.220 -0.3416  0.7163  0.9152
   58MOL   C16618520   4.402   0.553   2.287 -0.3540  0.1949 -0.1902
   58MOL  Cl16718521   4.456   0.519   2.447 -0.1335  0.0527  0.0114
   58MOL   C16818522   4.298   0.482   2.223 -0.0301  0.3565 -0.1375
   58MOL   C16918523   4.261   0.517   2.092 -0.6464 -0.4990  0.2607
   58MOL   C17018524   4.254   0.795   1.840 -0.9487  0.1835  0.2899
   58MOL   H17118525   4.200   0.593   1.841  0.5091 -0.3767 -0.7806
   58MOL   H17218526   4.470   0.772   2.032 -0.7004 -0.1335  0.0564
   58MOL   H17318527   4.528   0.724   2.269  0.8626  0.4932 -0.6797
   58MOL   H17418528   4.249   0.396   2.266  0.6371 -0.4307 -0.9651
   58MOL   H17518529   4.187   0.451   2.049 -0.1286 -0.8331 -0.1270
   58MOL   H17618530   4.350   0.842   1.863 -1.1353  0.2962  0.8363
   58MOL   H17718531   4.218   0.822   1.741 -0.2059 -0.4992 -0.1773
   58MOL   C17818532   4.161   0.858   1.939 -0.2165 -0.2782 -0.1557
   58MOL   C17918533   4.145   1.013   1.918  0.1048  0.3734 -0.0952
   58MOL   C18018534   4.051   1.068   1.830 -0.4711 -0.6832  0.6272
   58MOL   C18118535   4.017   1.207   1.834  0.1777  0.5108  0.0313
   58MOL   C18218536   4.080   1.286   1.928  0.3487 -0.4750 -0.1994
   58MOL  Cl18318537   4.030   1.455   1.927 -0.4584 -0.1924  0.2241
   58MOL   C18418538   4.176   1.236   2.016 -0.3067  0.0869 -0.4499
   58MOL   C18518539   4.208   1.098   2.013 -0.0933 -0.2565  0.8602
   58MOL   C18618540   4.025   0.787   1.952 -0.8751 -0.3504  0.5133
   58MOL   H18718541   4.207   0.843   2.037  0.9348  0.8297 -0.5079
   58MOL   H18818542   4.008   0.997   1.761 -0.6807 -0.2736  0.3338
   58MOL   H18918543   3.954   1.248   1.756  0.9804  0.6399 -0.5473
   58MOL   H19018544   4.212   1.300   2.095 -2.9183  1.6004 -0.4175
   58MOL   H19118545   4.283   1.056   2.079  0.3687  0.5954  0.8878
   58MOL   H19218546   3.981   0.812   1.856  1.3454  0.5586 -0.2875
   58MOL   H19318547   4.026   0.678   1.946  4.0702 -0.4723  1.6443
   58MOL   C19418548   3.944   0.819   2.076 -0.2763 -0.0181  0.0795
   58MOL   C19518549   3.790   0.824   2.047  0.5127 -0.0531  0.2954
   58MOL   C19618550   3.730   0.948   2.018 -0.1571 -0.5028 -0.4384
   58MOL   C19718551   3.598   0.952   1.976 -0.2960 -0.4187 -0.1814
   58MOL   C19818552   3.521   0.835   1.980 -0.2209 -0.8621  0.2104
   58MOL  Cl19918553   3.359   0.840   1.926 -0.2243  0.0548  0.1675
   58MOL   C20018554   3.580   0.713   2.012  0.5208  0.1551 -0.4979
   58MOL   C20118555   3.716   0.702   2.039 -0.1351  0.0002 -0.4073
   58MOL   C20218556   3.986   0.748   2.208 -0.5511  0.4567  0.4149
   58MOL   H20318557   3.955   0.926   2.090 -0.7184 -0.2111  2.1246
   58MOL   H20418558   3.783   1.041   2.033  1.0910 -1.3476  0.4479
   58MOL   H20518559   3.567   1.055   1.963  0.1724 -0.2048  0.3674
   58MOL   H20618560   3.520   0.622   2.012 -1.0943  1.2013 -1.4695
   58MOL   H20718561   3.766   0.611   2.066  0.9336  0.3411 -1.2209
   58MOL   H20818562   3.955   0.644   2.200 -0.4166  0.3965  0.6898
   58MOL   H20918563   4.094   0.741   2.209 -0.5117  0.7731 -0.8258
   58MOL   C21018564   3.936   0.810   2.342  0.2224 -0.5916  0.2013
   58MOL   C21118565   3.981   0.733   2.465  0.2492 -0.0610 -0.9506
   58MOL   C21218566   4.116   0.688   2.482  0.1331 -0.1809  0.0625
   58MOL   C21318567   4.151   0.617   2.605  0.9224 -0.4224 -0.1112
   58MOL   C21418568   4.050   0.603   2.704 -0.4534  0.5339 -0.0091
   58MOL  Cl21518569   4.083   0.523   2.850 -0.3269 -0.4089  0.0742
   58MOL   C21618570   3.923   0.658   2.688  0.0836  0.0531 -1.0407
   58MOL   C21718571   3.888   0.714   2.569 -0.7172  1.0458  0.0929
   58MOL   C21818572   3.974   0.958   2.358 -0.1752  0.3379  0.0510
   58MOL   H21918573   3.828   0.794   2.339  0.0232  1.0303 -2.1459
   58MOL   H22018574   4.193   0.712   2.411  1.4386 -0.9977  1.1781
   58MOL   H22118575   4.250   0.574   2.609  1.0963 -0.1289 -0.9997
   58MOL   H22218576   3.844   0.652   2.761  1.7612 -0.4659  0.7763
   58MOL   H22318577   3.787   0.745   2.550  0.0766  1.9571 -2.9629
   58MOL   H22418578   4.029   0.972   2.451 -0.0836  0.4527 -0.0196
   58MOL   H22518579   4.041   0.990   2.278 -0.7053  0.5254 -0.3234
   58MOL   C22618580   3.860   1.061   2.350 -0.0267  0.1199  0.7714
   58MOL   C22718581   3.758   1.046   2.459 -0.2463  0.5178 -0.3124
   58MOL   C22818582   3.799   1.046   2.591  0.1007 -0.3338  0.8958
   58MOL   C22918583   3.711   1.007   2.697  0.3607 -0.0597 -1.1628
   58MOL   C23018584   3.579   0.979   2.667  0.3022  0.4468 -0.0578
   58MOL  Cl23118585   3.468   0.944   2.795 -0.1794 -0.1977 -0.1547
   58MOL   C23218586   3.540   0.987   2.529 -0.0724 -0.6072 -0.1565
   58MOL   C23318587   3.627   1.012   2.427  0.0201 -0.0071  0.8921
   58MOL   C23418588   3.916   1.208   2.340 -0.1065 -0.1375  0.4115
   58MOL   H23518589   3.810   1.052   2.254  0.4815 -1.0916  0.6067
   58MOL   H23618590   3.903   1.067   2.609  0.3386  1.6232 -2.4389
   58MOL   H23718591   3.748   1.014   2.798  1.0091 -0.3334 -1.3798
   58MOL   H23818592   3.437   0.962   2.508 -0.6310  1.6441 -0.3030
   58MOL   H23918593   3.591   0.992   2.327 -2.0015 -0.3282  1.6744
   58MOL   H24018594   3.972   1.225   2.432 -0.0674  0.2650  0.3116
   58MOL   H24118595   3.985   1.215   2.257 -0.3058 -0.8603  0.1820
   58MOL   C24218596   3.809   1.318   2.322 -0.6494  0.0726  0.4725
   58MOL   C24318597   3.868   1.443   2.390 -0.7129 -0.4012  0.2840
   58MOL   C24418598   3.888   1.564   2.322 -0.0758 -0.2918  0.4741
   58MOL   C24518599   3.943   1.675   2.388  0.1234 -0.7267  0.8169
   58MOL   C24618600   3.977   1.663   2.525  0.5865  0.1067 -0.4855
   58MOL  Cl24718601   4.072   1.789   2.598 -0.3924  0.0117 -0.0781
   58MOL   C24818602   3.941   1.543   2.600 -0.0375  0.0416  0.0022
   58MOL   C24918603   3.889   1.433   2.530  0.3900 -0.4073 -0.5255
   58MOL   C25018604   3.770   1.346   2.171 -0.6438  1.0337 -0.1633
   58MOL   H25118605   3.722   1.290   2.382 -1.3288  0.4326 -0.3390
   58MOL   H25218606   3.874   1.576   2.216  0.6912 -2.2148  0.1396
   58MOL   H25318607   3.963   1.763   2.328 -2.2096  0.6678  2.0023
   58MOL   H25418608   3.969   1.521   2.702  1.7479  1.2933 -0.1976
   58MOL   H25518609   3.860   1.347   2.589 -2.2406  0.8244  0.0325
   58MOL   H25618610   3.857   1.391   2.123  0.1044 -1.9993 -1.8034
   58MOL   H25718611   3.772   1.249   2.120 -0.6941  0.9573 -0.0204
   58MOL   C25818612   3.650   1.439   2.143  0.1781  0.2747  0.2564
   58MOL   C25918613   3.626   1.424   1.990 -0.1117 -0.6868 -0.0692
   58MOL   C26018614   3.708   1.500   1.902 -0.6515 -0.0585  0.1641
   58MOL   C26118615   3.693   1.485   1.763  0.4747 -0.3615 -0.7336
   58MOL   C26218616   3.605   1.393   1.709 -0.5143 -0.5020  0.2827
   58MOL  Cl26318617   3.581   1.371   1.539 -0.1366 -0.1931 -0.1735
   58MOL   C26418618   3.529   1.315   1.799 -0.8826  0.3977 -0.5675
   58MOL   C26518619   3.534   1.330   1.937  0.6487  0.2229  0.4012
   58MOL   C26618620   3.519   1.411   2.218 -0.1528 -0.0964 -0.2546
   58MOL   H26718621   3.667   1.545   2.162  2.4258 -0.2592  1.2868
   58MOL   H26818622   3.781   1.569   1.944 -0.8384  0.4601 -0.3492
   58MOL   H26918623   3.753   1.552   1.704  1.6944 -1.2116 -0.4913
   58MOL   H27018624   3.464   1.240   1.757 -1.1052  0.4462 -0.3124
   58MOL   H27118625   3.473   1.266   1.999 -1.2692  2.5293  0.9370
   58MOL   H27218626   3.436   1.441   2.154  0.4578  0.2668 -0.8735
   58MOL   H27318627   3.523   1.302   2.219  1.1307 -0.0702  2.3645
   58MOL   C27418628   3.504   1.465   2.362  0.1051  0.4259  0.4942
   58MOL   C27518629   3.508   1.615   2.370  0.5660 -0.2072  0.0331
   58MOL   C27618630   3.612   1.683   2.439  0.0150  0.0957 -0.2509
   58MOL   C27718631   3.604   1.824   2.443 -0.4319  0.1683 -0.0306
   58MOL   C27818632   3.499   1.894   2.392  0.0659 -0.5759 -0.5132
   58MOL  Cl27918633   3.495   2.060   2.432 -0.6932  0.1181 -0.3387
   58MOL   C28018634   3.385   1.829   2.340  0.8426 -0.8508  0.1669
   58MOL   C28118635   3.400   1.689   2.321  0.7297 -0.2553 -0.7066
   58MOL   C28218636   3.393   1.396   2.437 -0.8234  0.2030 -0.2637
   58MOL   H28318637   3.594   1.439   2.417  0.4097  2.1175  0.8095
   58MOL   H28418638   3.692   1.625   2.482  0.1977 -0.8459 -1.8161
   58MOL   H28518639   3.685   1.879   2.487 -0.8952  1.1959 -0.4325
   58MOL   H28618640   3.298   1.882   2.305  2.6082  1.0278 -1.5459
   58MOL   H28718641   3.319   1.636   2.272 -0.3258 -1.0224  1.7606
   58MOL   H28818642   3.309   1.440   2.384  1.4193 -0.1849 -4.3626
   58MOL   H28918643   3.393   1.290   2.415  2.6807 -0.1807  1.2280
   58MOL   C29018644   3.392   1.426   2.591 -0.0999  0.4616 -0.3686
   58MOL   C29118645   3.261   1.382   2.638  1.1093  0.7069  0.3225
   58MOL   C29218646   3.244   1.260   2.706 -0.8314  0.4028  0.5388
   58MOL   C29318647   3.113   1.205   2.730  0.4826  0.0601 -0.8324
   58MOL   C29418648   2.995   1.282   2.703 -1.2560 -0.4918  0.0976
   58MOL  Cl29518649   2.832   1.221   2.721 -0.1612  0.1857 -0.0395
   58MOL   C29618650   3.012   1.407   2.639 -0.3010 -0.3138  0.4778
   58MOL   C29718651   3.144   1.460   2.612  0.1370  0.2351  0.3444
   58MOL   C29818652   3.516   1.383   2.675  0.2157 -0.6310 -0.0397
   58MOL   H29918653   3.391   1.535   2.589  0.0875  0.4523 -1.0278
   58MOL   H30018654   3.325   1.195   2.735  0.2746  1.6631  0.3102
   58MOL   H30118655   3.112   1.100   2.755 -1.1169  0.3595  0.4263
   58MOL   H30218656   2.931   1.472   2.609  0.1711  0.3044  0.5342
   58MOL   H30318657   3.153   1.556   2.564 -1.5707  0.7686  1.0678
   58MOL   H30418658   3.525   1.276   2.654 -0.2923 -0.6658 -0.0960
   58MOL   H30518659   3.608   1.423   2.633  0.4438 -1.3420 -0.2239
   58MOL   C30618660   3.509   1.427   2.822 -0.2622  0.0533 -0.5303
   58MOL   C30718661   3.595   1.345   2.916 -0.3758  0.2466 -0.2455
   58MOL   C30818662   3.729   1.305   2.886  0.4544  0.0709 -0.7862
   58MOL   C30918663   3.807   1.234   2.980  0.3857  0.0131  0.5142
   58MOL   C31018664   3.751   1.197   3.105  0.4933 -0.0064 -0.2311
   58MOL  Cl31118665   3.847   1.123   3.233  0.2852  0.1190 -0.1835
   58MOL   C31218666   3.625   1.242   3.138  0.3058 -0.1873  0.2282
   58MOL   C31318667   3.544   1.319   3.051 -0.2580 -0.0068  0.1199
   58MOL   C31418668   3.552   1.573   2.837  0.1550 -0.2694 -0.3302
   58MOL   H31518669   3.407   1.423   2.862 -0.5747  0.8419 -1.2331
   58MOL   H31618670   3.775   1.332   2.793  0.7906  1.5563 -0.2062
   58MOL   H31718671   3.906   1.200   2.956  0.0445 -0.2507 -0.5532
   58MOL   H31818672   3.595   1.223   3.240  4.4826  1.4158  1.8675
   58MOL   H31918673   3.455   1.369   3.084  0.1682  0.2965  0.8091
   58MOL   H32018674   3.657   1.596   2.818 -0.2075  0.6421 -1.2679
   58MOL   H32118675   3.486   1.644   2.787  0.5543  3.0964  3.6184
   58MOL   H32218676   3.551   1.600   2.943 -0.1637  1.3792 -0.7361
   59MOL     C118677   6.570   6.507   0.375 -0.7801  0.3179 -0.2292
   59MOL     C218678   6.583   6.369   0.306  0.2879 -0.3058 -0.5774
   59MOL     C318679   6.705   6.306   0.277 -0.1697 -0.0937  1.6535
   59MOL     C418680   6.703   6.186   0.201 -0.1695 -0.3020  0.3286
   59MOL     C518681   6.583   6.124   0.172  0.4117  0.2285  0.0955
   59MOL    Cl618682   6.584   5.969   0.088  0.0798 -0.1316 -0.3651
   59MOL     C718683   6.464   6.188   0.201 -0.2975  0.3523 -0.6543
   59MOL     C818684   6.461   6.308   0.268  0.7653 -0.4548  0.5691
   59MOL     C918685   6.707   6.571   0.407  0.1053  0.0043 -0.3128
   59MOL    H1018686   6.523   6.500   0.473 -0.4000  0.9046 -0.0034
   59MOL    H1118687   6.801   6.350   0.299  1.4058 -2.1851 -0.6829
   59MOL    H1218688   6.797   6.135   0.192 -0.8810 -1.5870  0.1099
   59MOL    H1318689   6.372   6.138   0.175 -0.8500  1.1106 -0.1622
   59MOL    H1418690   6.371   6.364   0.288  0.2300 -0.9138 -0.5129
   59MOL    H1518691   6.765   6.508   0.474 -1.9545  0.1505  1.6519
   59MOL    H1618692   6.781   6.581   0.328 -0.1599 -1.3738 -0.7559
   59MOL    H1718693   6.514   6.564   0.301  0.2401  0.4742 -0.8844
   59MOL    C1818694   6.702   6.706   0.480  0.4901  0.8280 -0.1693
   59MOL    C1918695   6.801   6.704   0.599 -0.3184 -0.3086 -0.4326
   59MOL    C2018696   6.934   6.666   0.567 -0.1916  0.1217 -0.1156
   59MOL    C2118697   7.023   6.667   0.681  0.3417  0.3147 -0.0225
   59MOL    C2218698   6.977   6.683   0.811  0.8632  0.5740 -0.3601
   59MOL   Cl2318699   7.086   6.655   0.943  0.2307 -0.1833  0.5711
   59MOL    C2418700   6.844   6.717   0.833  0.6825  0.1422 -0.9028
   59MOL    C2518701   6.756   6.737   0.729  0.3574  0.0105 -0.2288
   59MOL    C2618702   6.720   6.825   0.389 -0.1807 -0.4538 -0.9888
   59MOL    H2718703   6.602   6.709   0.522  0.0200 -0.7451 -1.1097
   59MOL    H2818704   6.963   6.641   0.466  2.0481 -0.9465  0.7461
   59MOL    H2918705   7.122   6.630   0.662  0.6833 -0.0024  2.2496
   59MOL    H3018706   6.816   6.710   0.937 -0.8394 -0.4527 -1.3317
   59MOL    H3118707   6.660   6.772   0.763  0.8404 -0.0695  1.2597
   59MOL    H3218708   6.731   6.913   0.451  2.7617 -0.6983 -1.0664
   59MOL    H3318709   6.818   6.824   0.342 -0.6303  1.4706 -2.0081
   59MOL    C3418710   6.613   6.843   0.281 -0.2646 -0.2073 -0.3434
   59MOL    C3518711   6.485   6.896   0.336 -0.8366 -0.0981 -0.2991
   59MOL    C3618712   6.363   6.822   0.345 -0.3122  0.3332 -0.2544
   59MOL    C3718713   6.247   6.882   0.400  0.1018  0.3943 -0.0621
   59MOL    C3818714   6.251   7.021   0.433  0.3671  0.0537 -0.3781
   59MOL   Cl3918715   6.100   7.100   0.482 -0.4207 -0.4295  0.2308
   59MOL    C4018716   6.369   7.091   0.443 -0.1496  0.1986 -0.4480
   59MOL    C4118717   6.484   7.030   0.387 -0.8366 -0.3725  0.4238
   59MOL    C4218718   6.654   6.918   0.150  0.2510 -0.0765  0.2668
   59MOL    H4318719   6.579   6.745   0.245  1.5852 -1.3144  0.8761
   59MOL    H4418720   6.337   6.722   0.312  0.0561  0.0904  0.1790
   59MOL    H4518721   6.156   6.825   0.417  0.2405  1.0384  3.2563
   59MOL    H4618722   6.375   7.195   0.472 -0.8309  0.2285 -0.3969
   59MOL    H4718723   6.575   7.088   0.378 -0.6200 -0.5618  1.3684
   59MOL    H4818724   6.554   6.944   0.115  0.8157  0.5118 -0.9328
   59MOL    H4918725   6.713   7.006   0.175 -0.7867  0.0541  2.4191
   59MOL    C5018726   6.740   6.831   0.052 -0.1981  0.6634 -0.1594
   59MOL    C5118727   6.680   6.702   0.000 -0.1228  0.6155  0.1257
   59MOL    C5218728   6.561   6.700   8.364  0.0535 -0.1007 -0.2560
   59MOL    C5318729   6.516   6.574   8.327 -0.8506  0.9584  0.6817
   59MOL    C5418730   6.588   6.451   8.350 -0.4992 -0.1425 -0.4584
   59MOL   Cl5518731   6.531   6.297   8.292 -0.3426  0.1481 -0.5181
   59MOL    C5618732   6.704   6.458   8.428  0.3647 -0.3755  0.3497
   59MOL    C5718733   6.748   6.583   0.035 -0.3860  0.4369 -0.0024
   59MOL    C5818734   6.798   6.909   8.378 -0.5688 -0.5304  0.2880
   59MOL    H5918735   6.825   6.809   0.117 -0.4925  0.3775  0.1349
   59MOL    H6018736   6.503   6.787   8.339  0.4609  0.2824  0.1218
   59MOL    H6118737   6.426   6.567   8.268 -0.4076  2.0902 -0.1354
   59MOL    H6218738   6.758   6.365   0.000  0.2060 -0.6360 -0.5852
   59MOL    H6318739   6.841   6.582   0.089  0.1395  0.6054 -0.8895
   59MOL    H6418740   6.805   6.846   8.289  0.0925 -1.1887  0.8003
   59MOL    H6518741   6.719   6.978   8.349  0.1809  1.0560  1.8907
   59MOL    C6618742   6.931   6.980   8.421  0.1350  0.3054 -0.7344
   59MOL    C6718743   7.052   6.893   8.436  0.3656  0.2749 -0.1975
   59MOL    C6818744   7.091   6.850   0.124 -0.5854 -0.0993  0.5563
   59MOL    C6918745   7.191   6.748   0.141  0.2187  0.3187  0.8519
   59MOL    C7018746   7.254   6.695   0.028  0.1797  0.0628  0.0800
   59MOL   Cl7118747   7.367   6.568   0.032 -0.5363  0.1165  0.3301
   59MOL    C7218748   7.216   6.731   8.341  0.2174 -0.0681 -0.2311
   59MOL    C7318749   7.110   6.823   8.326 -0.3923 -0.1636 -0.3068
   59MOL    C7418750   6.965   7.083   8.311 -0.1718  0.1993 -1.2062
   59MOL    H7518751   6.908   7.042   0.064 -1.7907 -0.5565 -0.6033
   59MOL    H7618752   7.043   6.906   0.204 -1.1543  1.4320 -0.8332
   59MOL    H7718753   7.209   6.704   0.237  0.7319 -2.9097 -0.6518
   59MOL    H7818754   7.253   6.690   8.248 -3.0296 -0.0490 -1.5837
   59MOL    H7918755   7.073   6.848   8.227 -1.0882  2.0065  0.4658
   59MOL    H8018756   7.069   7.112   8.327  0.1749 -1.3453 -0.5013
   59MOL    H8118757   6.974   7.026   8.219 -1.8983  0.6080 -1.6403
   59MOL    C8218758   6.880   7.212   8.291 -0.1225 -0.0793 -0.6994
   59MOL    C8318759   6.836   7.256   8.427  0.0406 -0.1501  0.1255
   59MOL    C8418760   6.925   7.298   0.080  0.4320  0.2277 -0.9016
   59MOL    C8518761   6.886   7.333   0.213  0.0769  0.8239 -0.3805
   59MOL    C8618762   6.749   7.316   0.248 -0.0342  0.6208 -0.1944
   59MOL   Cl8718763   6.698   7.349   0.411 -0.0900  0.4827  0.2786
   59MOL    C8818764   6.654   7.277   0.157 -0.1164  0.8327 -0.8190
   59MOL    C8918765   6.699   7.247   0.025  0.5773  0.4131  0.3670
   59MOL    C9018766   6.949   7.323   8.208 -0.1627  0.0764  0.3042
   59MOL    H9118767   6.800   7.169   8.231  1.7303 -3.5034 -0.8544
   59MOL    H9218768   7.029   7.301   0.051  0.1915 -1.8879 -2.0656
   59MOL    H9318769   6.968   7.354   0.280 -0.1651 -0.1136  0.2153
   59MOL    H9418770   6.552   7.278   0.194 -0.3727  0.3221 -1.5097
   59MOL    H9518771   6.624   7.231   8.393  2.2389 -2.1712 -0.8240
   59MOL    H9618772   6.900   7.415   8.239 -2.6093 -1.6406  1.7176
   59MOL    H9718773   7.054   7.329   8.236 -0.3185 -1.4509  1.2779
   59MOL    C9818774   6.944   7.299   8.050 -0.2219 -0.3123 -0.7089
   59MOL    C9918775   6.971   7.161   8.005 -0.2165 -0.5091 -0.5262
   59MOL   C10018776   6.869   7.066   7.987  0.9225  0.4513 -1.0399
   59MOL   C10118777   6.901   6.933   7.955 -0.0615 -0.3738  0.1402
   59MOL   C10218778   7.039   6.892   7.958  0.0651  0.1310  0.0800
   59MOL  Cl10318779   7.079   6.731   7.914  0.2589 -0.1344 -0.0486
   59MOL   C10418780   7.141   6.988   7.974  0.1154 -0.0857  0.1309
   59MOL   C10518781   7.108   7.122   8.002 -0.0300 -0.3152  0.0537
   59MOL   C10618782   6.834   7.374   7.979 -0.0807  0.3260  0.6194
   59MOL   H10718783   7.020   7.367   8.011 -0.0068  0.7859  1.5490
   59MOL   H10818784   6.766   7.098   7.994  0.4170 -1.4294  0.3129
   59MOL   H10918785   6.821   6.868   7.921 -0.8844  0.1538  1.0261
   59MOL   H11018786   7.240   6.952   7.999 -0.5600 -1.2372  1.2504
   59MOL   H11118787   7.183   7.190   8.038  1.3925 -0.7928 -1.9730
   59MOL   H11218788   6.741   7.338   8.022 -0.7811  0.7566 -0.5062
   59MOL   H11318789   6.836   7.477   8.014  0.8042  0.6206 -0.2641
   59MOL   C11418790   6.833   7.371   7.823 -0.1300  0.6506  0.4931
   59MOL   C11518791   6.698   7.441   7.795 -0.0124 -0.3242 -0.0615
   59MOL   C11618792   6.692   7.584   7.779  0.0651  0.0693  0.0673
   59MOL   C11718793   6.570   7.647   7.741 -0.4068  0.8325  0.2754
   59MOL   C11818794   6.450   7.574   7.737  0.9456  0.7012  0.2486
   59MOL  Cl11918795   6.299   7.653   7.721  0.0698  0.3317 -0.3253
   59MOL   C12018796   6.454   7.436   7.757  0.2222 -0.7524  0.5642
   59MOL   C12118797   6.579   7.365   7.782 -0.5634  0.0325  0.5110
   59MOL   C12218798   6.963   7.431   7.745  0.0086  0.5454 -0.2939
   59MOL   H12318799   6.826   7.267   7.791  1.6428  0.3402  1.0691
   59MOL   H12418800   6.783   7.642   7.786  0.2203 -0.2244  0.4947
   59MOL   H12518801   6.548   7.752   7.738  0.1521  0.9226 -0.6755
   59MOL   H12618802   6.357   7.389   7.759 -0.8941  1.4671  1.0402
   59MOL   H12718803   6.583   7.257   7.786  2.3725  0.0652  0.0110
   59MOL   H12818804   6.975   7.532   7.784 -0.1098  0.3967  0.1350
   59MOL   H12918805   7.055   7.377   7.767 -0.7885 -0.3632  0.8720
   59MOL   C13018806   6.942   7.437   7.588  0.1915  0.0237  0.9689
   59MOL   C13118807   7.021   7.549   7.531 -0.4609 -0.6037  0.2902
   59MOL   C13218808   7.023   7.675   7.586  0.0830  0.3846  0.3754
   59MOL   C13318809   7.084   7.785   7.518 -0.1943  0.0859  0.2192
   59MOL   C13418810   7.156   7.758   7.403 -0.2566  0.0467 -0.0634
   59MOL  Cl13518811   7.237   7.890   7.319  0.2556 -0.1463  0.4898
   59MOL   C13618812   7.163   7.631   7.343 -0.1220  0.2171 -0.3514
   59MOL   C13718813   7.090   7.532   7.407 -0.0502  0.6193 -0.7388
   59MOL   C13818814   6.936   7.303   7.521  0.2016  0.4147  0.5983
   59MOL   H13918815   6.848   7.490   7.572  0.8719  1.3997  1.3983
   59MOL   H14018816   6.956   7.698   7.668 -0.7130  0.2096 -0.2185
   59MOL   H14118817   7.082   7.883   7.564  2.1920 -1.3285  3.5243
   59MOL   H14218818   7.225   7.610   7.256 -0.4024  1.7261 -0.9330
   59MOL   H14318819   7.086   7.433   7.364  1.2280 -0.0022  0.5365
   59MOL   H14418820   6.841   7.263   7.558  0.3104 -2.0305 -1.5975
   59MOL   H14518821   6.924   7.302   7.412  1.8356  1.7707  0.3977
   59MOL   C14618822   7.047   7.194   7.559 -0.0570 -0.1790  0.4714
   59MOL   C14718823   6.987   7.061   7.525 -0.1014  0.1774  0.5863
   59MOL   C14818824   6.999   7.000   7.400 -0.3061  0.2222  0.4249
   59MOL   C14918825   6.937   6.873   7.374 -1.1723 -0.7365  0.3598
   59MOL   C15018826   6.861   6.808   7.469 -0.0408  0.0470  0.5160
   59MOL  Cl15118827   6.791   6.644   7.442 -0.0275 -0.3839  0.0645
   59MOL   C15218828   6.849   6.867   7.597  0.3617  0.0074 -0.0198
   59MOL   C15318829   6.910   6.993   7.623  0.7380  0.1330 -0.1324
   59MOL   C15418830   7.182   7.214   7.490 -0.1077  0.5670 -0.4102
   59MOL   H15518831   7.057   7.174   7.665 -0.6616  0.2439  0.6061
   59MOL   H15618832   7.038   7.053   7.314 -0.5365 -4.6471 -2.9156
   59MOL   H15718833   6.950   6.829   7.276  1.3223  0.3847  0.1635
   59MOL   H15818834   6.795   6.816   7.676 -0.2362 -0.9912 -1.0604
   59MOL   H15918835   6.898   7.027   7.725  1.5529 -3.3666  1.2015
   59MOL   H16018836   7.194   7.204   7.382  1.0424  0.4027 -0.2836
   59MOL   H16118837   7.197   7.321   7.496 -0.1758  0.6168 -1.0814
   59MOL   C16218838   7.291   7.146   7.568 -0.7037 -0.0462 -0.1103
   59MOL   C16318839   7.298   6.997   7.533  0.9593  0.0110  0.4713
   59MOL   C16418840   7.318   6.947   7.400 -0.4123  0.2048  0.8136
   59MOL   C16518841   7.333   6.812   7.377 -0.3374  0.5484 -0.2142
   59MOL   C16618842   7.322   6.726   7.489 -0.3362 -0.3205 -0.3574
   59MOL  Cl16718843   7.328   6.560   7.458 -0.0028  0.0679 -0.0200
   59MOL   C16818844   7.290   6.768   7.621 -0.0562  0.5017 -0.3492
   59MOL   C16918845   7.281   6.910   7.643 -0.0135 -0.4129  0.6785
   59MOL   C17018846   7.423   7.214   7.532 -0.4206 -0.4852  0.0386
   59MOL   H17118847   7.275   7.149   7.675 -1.5334  0.5677 -0.2444
   59MOL   H17218848   7.326   7.017   7.318 -0.2482  0.1695  0.8015
   59MOL   H17318849   7.345   6.773   7.277  2.7921  0.2313  0.2508
   59MOL   H17418850   7.265   6.692   7.693 -1.4531  0.8766 -0.4088
   59MOL   H17518851   7.263   6.948   7.743  2.2714 -0.7367  1.2365
   59MOL   H17618852   7.503   7.150   7.570  1.1747  1.5759  0.2373
   59MOL   H17718853   7.433   7.209   7.423 -0.5742 -1.9808  0.0877
   59MOL   C17818854   7.445   7.362   7.576  0.4554 -0.4281 -0.1623
   59MOL   C17918855   7.407   7.396   7.721 -0.1781  0.0546 -0.1245
   59MOL   C18018856   7.464   7.318   7.825 -0.0570  0.4897 -0.4332
   59MOL   C18118857   7.432   7.341   7.959  0.0397  0.7512  1.4113
   59MOL   C18218858   7.338   7.442   7.987  0.0350  0.3924 -0.0192
   59MOL  Cl18318859   7.298   7.487   8.145  0.1167  0.2904  0.4498
   59MOL   C18418860   7.274   7.510   7.879 -0.9027 -0.0930  0.2650
   59MOL   C18518861   7.302   7.487   7.743 -0.6186 -0.1217  0.5655
   59MOL   C18618862   7.592   7.415   7.543  0.9517  0.4536  0.4534
   59MOL   H18718863   7.379   7.418   7.509  1.5121  2.4086  1.0811
   59MOL   H18818864   7.529   7.233   7.813  1.2599  1.2719  1.1325
   59MOL   H18918865   7.490   7.280   8.026  0.0120 -0.8978 -0.0313
   59MOL   H19018866   7.221   7.599   7.911 -0.6265  0.8225 -1.7746
   59MOL   H19118867   7.254   7.541   7.662  0.3607 -0.2862 -0.1403
   59MOL   H19218868   7.663   7.355   7.599  3.1725  1.5821 -1.0891
   59MOL   H19318869   7.636   7.397   7.445  1.2111 -0.5469  0.7536
   59MOL   C19418870   7.637   7.554   7.597 -0.3334 -0.5827 -0.0443
   59MOL   C19518871   7.791   7.567   7.604  0.0881 -0.2422  0.2453
   59MOL   C19618872   7.839   7.692   7.645 -0.0691 -0.3593 -0.1669
   59MOL   C19718873   7.973   7.722   7.639  0.2904 -0.1118 -0.5293
   59MOL   C19818874   8.070   7.635   7.590  0.4063 -0.2934  0.1043
   59MOL  Cl19918875   8.230   7.694   7.562  0.0274  0.0137  0.4714
   59MOL   C20018876   8.032   7.503   7.553  0.2086  0.1575 -0.4451
   59MOL   C20118877   7.893   7.474   7.558  0.5308 -0.1221 -0.1352
   59MOL   C20218878   7.557   7.660   7.513  0.3799  0.6621 -0.2886
   59MOL   H20318879   7.600   7.569   7.699 -1.1743  1.9062 -0.6655
   59MOL   H20418880   7.773   7.773   7.670  2.0533  1.0858  0.8510
   59MOL   H20518881   8.010   7.821   7.665 -1.3103 -0.0054  1.4683
   59MOL   H20618882   8.110   7.437   7.517 -0.7034 -1.5462  0.6754
   59MOL   H20718883   7.863   7.378   7.519  0.0521  0.2619 -0.7266
   59MOL   H20818884   7.459   7.622   7.485  1.2516 -0.4730 -1.9255
   59MOL   H20918885   7.540   7.738   7.587 -0.3828  1.1601 -0.9861
   59MOL   C21018886   7.639   7.724   7.394 -0.3355 -0.3548  0.0539
   59MOL   C21118887   7.630   7.642   7.265 -0.1704  0.3776  1.0010
   59MOL   C21218888   7.746   7.575   7.219  0.0759  0.0697  0.1600
   59MOL   C21318889   7.737   7.485   7.110 -0.0123  0.0193  0.8925
   59MOL   C21418890   7.621   7.475   7.032  0.3528  0.2655 -0.3010
   59MOL  Cl21518891   7.612   7.373   6.887 -0.3994  0.2811 -0.0410
   59MOL   C21618892   7.505   7.548   7.075 -0.0365  0.0980  0.1270
   59MOL   C21718893   7.513   7.621   7.194  0.3694 -0.6064 -0.5889
   59MOL   C21818894   7.594   7.871   7.370  0.3584 -0.2005 -0.3827
   59MOL   H21918895   7.743   7.751   7.414  0.0817  0.0621 -2.4141
   59MOL   H22018896   7.834   7.590   7.280  1.3565 -1.5089 -1.2378
   59MOL   H22118897   7.827   7.428   7.090  0.0746  0.3348  0.3511
   59MOL   H22218898   7.409   7.554   7.026 -0.6034 -0.3033  1.1797
   59MOL   H22318899   7.421   7.665   7.229  0.0795 -0.6376 -1.2967
   59MOL   H22418900   7.492   7.857   7.337  0.5034 -0.9915 -0.4948
   59MOL   H22518901   7.604   7.928   7.463  0.9938  0.3460 -0.7837
   59MOL   C22618902   7.661   7.958   7.266 -0.1779 -0.2857 -0.5894
   59MOL   C22718903   7.580   8.089   7.253 -0.5228  0.0756 -0.1003
   59MOL   C22818904   7.576   8.188   7.356 -0.6371  1.1354 -0.1642
   59MOL   C22918905   7.499   8.306   7.336 -0.3022  0.0743 -0.3067
   59MOL   C23018906   7.416   8.323   7.225 -0.1328 -0.2099 -0.1340
   59MOL  Cl23118907   7.330   0.019   7.205  0.2482  0.3422 -0.5625
   59MOL   C23218908   7.413   8.222   7.131 -0.2567 -0.8988  0.1922
   59MOL   C23318909   7.501   8.111   7.138 -0.6341  0.1032  0.3230
   59MOL   C23418910   7.814   7.982   7.301 -0.8162  0.2217  0.1267
   59MOL   H23518911   7.662   7.913   7.167  1.0971 -2.1527  0.2414
   59MOL   H23618912   7.649   8.193   7.435 -0.7319 -0.5813  0.0400
   59MOL   H23718913   7.510   8.386   7.408 -1.5706 -0.3299  0.3309
   59MOL   H23818914   7.349   8.245   7.047  1.1471  0.4093 -0.5546
   59MOL   H23918915   7.495   8.032   7.064 -0.0463 -0.8865  1.3068
   59MOL   H24018916   7.828   8.022   7.402  0.0687 -0.8044  0.4161
   59MOL   H24118917   7.866   7.886   7.301 -1.4560 -0.1255  0.2183
   59MOL   C24218918   7.896   8.087   7.217 -0.0272  0.1931 -0.0801
   59MOL   C24318919   8.023   8.125   7.292 -0.0824  0.4919  0.1106
   59MOL   C24418920   8.089   8.246   7.259  0.0714 -0.3517 -0.0641
   59MOL   C24518921   8.212   8.275   7.318  0.6411  0.0827  0.0088
   59MOL   C24618922   8.271   8.192   7.413 -0.5069 -0.1631  0.0819
   59MOL  Cl24718923   8.420   8.241   7.489  0.2521 -0.0304  0.0483
   59MOL   C24818924   8.212   8.066   7.436 -0.1371 -0.1276 -0.3262
   59MOL   C24918925   8.090   8.032   7.372  0.1855 -0.6420 -0.5612
   59MOL   C25018926   7.926   8.045   7.075 -0.8791  0.1783 -0.1653
   59MOL   H25118927   7.840   8.181   7.218 -0.4009  0.0500 -2.7545
   59MOL   H25218928   8.063   8.317   7.181 -0.8906 -2.4354 -1.6816
   59MOL   H25318929   8.256   8.372   7.299 -0.0378  0.6015  1.0436
   59MOL   H25418930   8.254   8.003   7.513 -1.6340  0.8937  1.3681
   59MOL   H25518931   8.050   7.934   7.398  0.4952 -0.8032 -0.6941
   59MOL   H25618932   8.031   8.064   7.054 -0.9719  0.8850  0.0060
   59MOL   H25718933   7.916   7.936   7.069 -1.7418  0.0695  2.4314
   59MOL   C25818934   7.849   8.124   6.963  0.0295 -0.5678  0.1903
   59MOL   C25918935   7.873   8.277   6.969 -0.1629  0.2420 -0.7959
   59MOL   C26018936   7.995   8.328   6.922 -0.2961 -0.3092  0.0458
   59MOL   C26118937   8.006   0.021   6.880  0.6060 -0.5222 -0.3949
   59MOL   C26218938   7.905   0.109   6.909  0.8621 -0.7072  0.2980
   59MOL  Cl26318939   7.932   0.274   6.883  0.0549 -0.1508 -0.4776
   59MOL   C26418940   7.776   0.066   6.958 -0.5447 -0.9552 -0.0399
   59MOL   C26518941   7.763   8.367   6.987  0.1212  0.1138 -0.2097
   59MOL   C26618942   7.891   8.078   6.822 -0.1075  0.7039  0.0292
   59MOL   H26718943   7.742   8.115   6.983 -0.2708  0.9900 -0.6423
   59MOL   H26818944   8.080   8.263   6.911  0.4862  0.0342  3.6226
   59MOL   H26918945   8.094   0.065   6.836  0.3240 -1.1247 -1.5746
   59MOL   H27018946   7.696   0.138   6.967  0.0145 -0.5274  1.5423
   59MOL   H27118947   7.664   8.333   7.015  0.1394 -0.8257 -1.2690
   59MOL   H27218948   7.851   8.145   6.746 -0.5976  0.2192 -0.1434
   59MOL   H27318949   7.999   8.081   6.806 -0.4361 -0.1213 -2.7722
   59MOL   C27418950   7.837   7.940   6.777 -0.1787 -0.2313 -0.7332
   59MOL   C27518951   7.689   7.928   6.758 -0.5016 -0.4523  0.1899
   59MOL   C27618952   7.631   7.996   6.646  0.0102 -0.5762  0.0721
   59MOL   C27718953   7.490   8.001   6.630 -0.0631 -0.3478 -0.1567
   59MOL   C27818954   7.410   7.925   6.719  0.4968 -0.3842  0.8957
   59MOL  Cl27918955   7.232   7.932   6.699 -0.2218  0.1298 -0.3641
   59MOL   C28018956   7.465   7.853   6.828  0.0722  0.1199  0.1611
   59MOL   C28118957   7.603   7.861   6.852 -0.1424 -0.2690 -0.2597
   59MOL   C28218958   7.911   7.885   6.650  0.1946  0.7381  0.4855
   59MOL   H28318959   7.848   7.870   6.859  1.3977 -0.5701 -1.2070
   59MOL   H28418960   7.697   8.047   6.578  0.5241  1.0093  1.7115
   59MOL   H28518961   7.446   8.051   6.545  0.6924 -0.8310 -0.8413
   59MOL   H28618962   7.400   7.790   6.887 -1.4843  1.4567 -0.1025
   59MOL   H28718963   7.647   7.813   6.939 -0.2502  0.9349  0.4828
   59MOL   H28818964   7.869   7.787   6.628  0.3313  0.9764 -0.8826
   59MOL   H28918965   7.891   7.940   6.558  2.1448 -0.4351 -0.6630
   59MOL   C29018966   8.065   7.844   6.661 -0.5219  0.6314 -0.4903
   59MOL   C29118967   8.092   7.759   6.785 -0.8723 -1.1384  0.4270
   59MOL   C29218968   8.031   7.636   6.813  0.2983 -0.4899 -0.7135
   59MOL   C29318969   8.045   7.576   6.935  0.0922  0.4334 -0.4082
   59MOL   C29418970   8.131   7.630   7.036  0.4993  0.6493 -0.0698
   59MOL  Cl29518971   8.144   7.537   7.191 -0.2129 -0.3715 -0.4158
   59MOL   C29618972   8.192   7.757   7.012 -0.4731  0.3911 -0.9710
   59MOL   C29718973   8.167   7.819   6.891  0.3938 -0.0866 -0.8542
   59MOL   C29818974   8.128   7.771   6.542 -0.1678  1.0562  0.6842
   59MOL   H29918975   8.130   7.931   6.668  1.9762 -1.2239  0.2419
   59MOL   H30018976   7.958   7.601   6.741 -0.7194 -1.8459  0.9541
   59MOL   H30118977   7.981   7.491   6.953 -0.9628  1.4306  0.6688
   59MOL   H30218978   8.264   7.805   7.076 -0.7510 -0.3064 -0.1283
   59MOL   H30318979   8.209   7.918   6.881 -1.3886  0.8587  0.6655
   59MOL   H30418980   8.236   7.771   6.558 -0.0925 -0.0948  0.1966
   59MOL   H30518981   8.104   7.665   6.534 -1.5618  1.4794 -1.0482
   59MOL   C30618982   8.083   7.836   6.406 -0.0846 -0.3025 -0.1832
   59MOL   C30718983   8.194   7.845   6.305 -0.1888  0.5223  0.4634
   59MOL   C30818984   8.274   7.738   6.265 -0.6076  0.4958  0.5603
   59MOL   C30918985   8.384   7.744   6.171  0.1029  0.0435  0.5828
   59MOL   C31018986   8.406   7.874   6.115  0.1005  0.4919 -0.5501
   59MOL  Cl31118987   0.081   7.881   5.991  0.5607 -0.4535 -0.0196
   59MOL   C31218988   8.337   7.985   6.159  0.0359 -0.3994  0.2662
   59MOL   C31318989   8.231   7.967   6.251 -0.5827 -0.1542  0.0782
   59MOL   C31418990   7.958   7.778   6.343  0.3154  0.4639  0.5522
   59MOL   H31518991   8.062   7.938   6.438  0.8359 -0.1502 -0.0534
   59MOL   H31618992   8.235   7.641   6.290  0.7331 -0.4196 -0.7925
   59MOL   H31718993   8.437   7.653   6.149 -2.3120 -2.0270  2.8635
   59MOL   H31818994   8.353   8.083   6.116  0.7341 -0.4323  0.4526
   59MOL   H31918995   8.176   8.048   6.297 -0.8164 -0.2240 -0.0795
   59MOL   H32018996   7.873   7.746   6.404 -1.1301 -1.0997 -2.1594
   59MOL   H32118997   7.917   7.859   6.282  0.8694 -0.2527 -0.7881
   59MOL   H32218998   7.979   7.693   6.278 -2.1855  1.4728 -1.6800
   60MOL     C118999   7.239   1.443   4.313 -0.0754 -0.0140 -0.8879
   60MOL     C219000   7.339   1.391   4.420  0.4732  0.0180  0.1371
   60MOL     C319001   7.469   1.356   4.396  0.1292 -0.5267 -0.7946
   60MOL     C419002   7.560   1.306   4.495 -0.2481 -0.4093  0.6205
   60MOL     C519003   7.503   1.287   4.623 -0.1411 -0.5718 -0.8861
   60MOL    Cl619004   7.597   1.192   4.734 -0.2217 -0.5668  0.2849
   60MOL     C719005   7.370   1.332   4.657 -0.4038  0.0184  0.1587
   60MOL     C819006   7.299   1.383   4.552 -0.3982  0.3040 -0.2158
   60MOL     C919007   7.257   1.596   4.305  0.0513  0.8466  0.4319
   60MOL    H1019008   7.139   1.408   4.338  0.1555  0.1220  0.2576
   60MOL    H1119009   7.500   1.350   4.293  1.4062  0.6709 -0.4948
   60MOL    H1219010   7.659   1.272   4.471 -1.6848 -1.0928 -4.9038
   60MOL    H1319011   7.337   1.332   4.760 -0.7573 -0.5495  0.0459
   60MOL    H1419012   7.200   1.420   4.576 -1.1093 -3.1488  2.7218
   60MOL    H1519013   7.223   1.637   4.401 -0.1477  0.2991  0.5958
   60MOL    H1619014   7.359   1.636   4.303  0.3699  0.1259  1.6461
   60MOL    H1719015   7.269   1.396   4.219  0.7278  1.3176 -1.3193
   60MOL    C1819016   7.180   1.663   4.191  0.2842  0.2433  0.2573
   60MOL    C1919017   7.035   1.613   4.194 -0.0860  0.0406  0.6315
   60MOL    C2019018   6.955   1.654   4.304  0.1140 -0.3764 -0.2531
   60MOL    C2119019   6.819   1.613   4.309  0.0225  0.1870  1.1128
   60MOL    C2219020   6.772   1.519   4.210 -0.3343  0.5555  0.3021
   60MOL   Cl2319021   6.610   1.469   4.221  0.1200 -0.0735  0.0996
   60MOL    C2419022   6.854   1.474   4.111 -0.9800 -0.0902  0.0287
   60MOL    C2519023   6.989   1.513   4.100  0.1450 -0.4926  0.1093
   60MOL    C2619024   7.197   1.815   4.192  0.5585 -0.7015 -0.8049
   60MOL    H2719025   7.220   1.622   4.099 -0.8863 -0.3382  0.0060
   60MOL    H2819026   6.993   1.729   4.372  0.1986 -0.3202 -0.3633
   60MOL    H2919027   6.750   1.639   4.388 -2.0196  0.0375 -0.5770
   60MOL    H3019028   6.822   1.400   4.038 -1.0338  0.3636 -0.4096
   60MOL    H3119029   7.057   1.477   4.024 -1.4394  2.3329 -2.7965
   60MOL    H3219030   7.150   1.858   4.281  1.3377  0.1098 -0.7722
   60MOL    H3319031   7.303   1.824   4.212  0.3770 -1.9577  0.8110
   60MOL    C3419032   7.164   1.898   4.067 -0.3401 -0.1653  0.2615
   60MOL    C3519033   7.032   1.875   3.994  0.1770  0.0864 -0.0380
   60MOL    C3619034   7.026   1.810   3.868 -0.4513  0.3247 -0.0721
   60MOL    C3719035   6.900   1.772   3.807 -0.4157  0.2165 -0.3063
   60MOL    C3819036   6.781   1.795   3.877 -0.7453  0.5558 -0.5558
   60MOL   Cl3919037   6.632   1.745   3.811 -0.0656 -0.2669  0.0240
   60MOL    C4019038   6.788   1.853   4.008 -0.2197 -0.6083 -0.1061
   60MOL    C4119039   6.910   1.890   4.064  0.4102  0.3638  0.2491
   60MOL    C4219040   7.178   2.048   4.083  0.2377 -0.4560  0.2907
   60MOL    H4319041   7.238   1.855   4.001 -0.9112 -1.0973  0.2060
   60MOL    H4419042   7.110   1.795   3.802 -0.8641 -0.7694 -0.3566
   60MOL    H4519043   6.886   1.727   3.710 -0.9370  2.6522 -1.4003
   60MOL    H4619044   6.695   1.867   4.063  0.5709  1.2253  0.8081
   60MOL    H4719045   6.909   1.940   4.160  0.3458  2.7033 -0.9350
   60MOL    H4819046   7.169   2.082   3.979  0.8765  0.8234  0.6451
   60MOL    H4919047   7.095   2.107   4.122  1.3360  1.4157 -0.1351
   60MOL    C5019048   7.314   2.103   4.135 -0.1685  0.3540  0.2743
   60MOL    C5119049   7.306   2.099   4.290 -0.9284  0.4081  0.5681
   60MOL    C5219050   7.396   2.017   4.362 -0.1160 -0.4695 -0.0236
   60MOL    C5319051   7.382   2.010   4.500 -0.1352 -0.4256  0.7587
   60MOL    C5419052   7.283   2.075   4.574 -0.6737  0.2584 -0.2386
   60MOL   Cl5519053   7.293   2.080   4.752  0.0290  0.2613  0.0242
   60MOL    C5619054   7.189   2.150   4.501 -0.4825  0.5635 -0.3077
   60MOL    C5719055   7.205   2.169   4.363 -0.5504 -0.0450 -0.0939
   60MOL    C5819056   7.435   2.043   4.067 -0.0571  0.0077 -0.2656
   60MOL    H5919057   7.318   2.209   4.110  0.6095  0.4042  0.6085
   60MOL    H6019058   7.462   1.945   4.315 -1.7940 -1.0410 -1.5967
   60MOL    H6119059   7.451   1.947   4.554 -1.2896 -1.2835  1.2828
   60MOL    H6219060   7.122   2.214   4.556  0.1287  0.1626  0.9484
   60MOL    H6319061   7.143   2.243   4.314 -1.0044 -0.2042  0.2330
   60MOL    H6419062   7.519   2.092   4.115  0.9220 -2.8835  1.0782
   60MOL    H6519063   7.441   1.937   4.091 -0.6282  0.3830  1.5937
   60MOL    C6619064   7.444   2.055   3.911  0.5115 -0.6180  0.6681
   60MOL    C6719065   7.423   2.200   3.854  0.8841  0.4754 -0.2792
   60MOL    C6819066   7.316   2.222   3.759 -0.2371 -0.3465 -0.5236
   60MOL    C6919067   7.304   2.352   3.705  0.0529  0.2630 -0.4316
   60MOL    C7019068   7.402   2.452   3.733  0.9885 -0.0480  0.0134
   60MOL   Cl7119069   7.394   2.603   3.652  0.3413  0.0097  0.0772
   60MOL    C7219070   7.507   2.427   3.824 -0.1368 -0.1679  0.1769
   60MOL    C7319071   7.518   2.300   3.887  0.2184  0.0073 -0.4191
   60MOL    C7419072   7.563   1.990   3.841 -0.1726  0.4823 -0.6688
   60MOL    H7519073   7.350   2.005   3.887 -0.0497  0.8590 -0.3415
   60MOL    H7619074   7.245   2.145   3.735 -1.3843  0.0714  1.4085
   60MOL    H7719075   7.224   2.375   3.637 -0.2903  2.4675  0.6646
   60MOL    H7819076   7.579   2.505   3.841 -0.7581  0.5843 -0.5997
   60MOL    H7919077   7.599   2.275   3.954  1.8198  1.9789 -1.5368
   60MOL    H8019078   7.549   2.010   3.735  1.1041  0.6042 -0.8291
   60MOL    H8119079   7.647   2.054   3.870 -0.8444  0.3749  1.6417
   60MOL    C8219080   7.583   1.836   3.860  0.7967 -0.1645 -0.9189
   60MOL    C8319081   7.470   1.764   3.801 -0.5857  0.0664  0.0864
   60MOL    C8419082   7.436   1.781   3.669  0.8284  0.2629  0.4886
   60MOL    C8519083   7.332   1.708   3.608 -0.2051 -0.6229 -0.3543
   60MOL    C8619084   7.261   1.614   3.685 -0.8073 -0.3146 -0.1777
   60MOL   Cl8719085   7.117   1.545   3.624  0.2158 -0.4990 -0.0219
   60MOL    C8819086   7.299   1.589   3.819 -0.6445  0.2329 -0.3943
   60MOL    C8919087   7.401   1.664   3.875 -0.0258  0.5993 -0.2446
   60MOL    C9019088   7.711   1.789   3.798 -0.0180 -0.0464  0.1109
   60MOL    H9119089   7.589   1.805   3.965  0.8224  0.2069 -0.8110
   60MOL    H9219090   7.502   1.846   3.613  0.6641  0.1867  0.2041
   60MOL    H9319091   7.321   1.726   3.502  0.9172 -1.9206 -0.7013
   60MOL    H9419092   7.243   1.515   3.874  3.0714 -1.3261  1.4886
   60MOL    H9519093   7.428   1.654   3.979 -1.5898 -0.2048  0.0993
   60MOL    H9619094   7.717   1.682   3.778  1.4310  0.3057 -1.4607
   60MOL    H9719095   7.712   1.850   3.707 -0.9599 -0.0009  0.1178
   60MOL    C9819096   7.836   1.808   3.887  0.1673 -0.6039  0.2154
   60MOL    C9919097   7.837   1.692   3.989  0.8773  0.8381 -0.1777
   60MOL   C10019098   7.840   1.554   3.950 -0.2388  0.2301  0.5352
   60MOL   C10119099   7.851   1.447   4.041  0.1902  0.4782 -0.1358
   60MOL   C10219100   7.871   1.487   4.179  0.1959  0.3901  0.1604
   60MOL  Cl10319101   7.891   1.365   4.299 -0.1115  0.0740 -0.0471
   60MOL   C10419102   7.870   1.625   4.218 -0.2150 -0.1575  0.6056
   60MOL   C10519103   7.848   1.729   4.125  0.9923 -0.0436 -0.4758
   60MOL   C10619104   7.959   1.805   3.795  0.1858  0.2474 -0.6239
   60MOL   H10719105   7.829   1.902   3.943 -0.2124 -0.8264  0.5396
   60MOL   H10819106   7.846   1.531   3.845  2.9758  2.8444  0.0664
   60MOL   H10919107   7.866   1.345   4.009  0.7243  0.2919  0.6813
   60MOL   H11019108   7.878   1.648   4.323 -1.8302  0.0936  0.6820
   60MOL   H11119109   7.848   1.831   4.158  0.8850 -0.9485  2.4806
   60MOL   H11219110   8.046   1.773   3.853 -0.0203  0.4931 -0.1781
   60MOL   H11319111   7.945   1.714   3.737  0.6631 -0.2859  0.0803
   60MOL   C11419112   7.993   1.929   3.711 -0.5208  0.8082  0.1382
   60MOL   C11519113   8.004   2.044   3.809  0.2665 -0.7687  0.0557
   60MOL   C11619114   7.913   2.149   3.802 -0.1118 -0.7770  0.1625
   60MOL   C11719115   7.932   2.259   3.884 -0.3514 -0.0182  0.6034
   60MOL   C11819116   8.042   2.258   3.973 -0.3194 -0.6003  0.6726
   60MOL  Cl11919117   8.075   2.397   4.067  0.2025 -0.0459 -0.3238
   60MOL   C12019118   8.130   2.150   3.985  0.5186  0.5761  0.0621
   60MOL   C12119119   8.105   2.039   3.906 -0.1024 -0.1895  0.5485
   60MOL   C12219120   8.101   1.920   3.611 -0.1412  0.4502 -0.0563
   60MOL   H12319121   7.909   1.943   3.643 -1.0745 -0.2590  0.5807
   60MOL   H12419122   7.838   2.149   3.725 -0.0450  3.0144  0.0465
   60MOL   H12519123   7.858   2.337   3.884 -0.4469 -0.1017 -0.3807
   60MOL   H12619124   8.209   2.143   4.059  1.2829  0.5135 -0.7500
   60MOL   H12719125   8.166   1.950   3.911  0.2531  0.0334  0.2530
   60MOL   H12819126   8.191   1.885   3.660 -0.6800  0.9083  1.2909
   60MOL   H12919127   8.068   1.838   3.547  3.0865 -0.9189 -0.0295
   60MOL   C13019128   8.130   2.051   3.532  0.0504 -0.2783 -0.4595
   60MOL   C13119129   8.246   2.045   3.440 -0.0869 -0.0586  0.2088
   60MOL   C13219130   8.364   2.115   3.468  0.2598  0.3839 -0.3307
   60MOL   C13319131   0.027   2.119   3.380 -0.0100 -1.3849 -0.0249
   60MOL   C13419132   0.025   2.034   3.267  0.5310  0.5884 -0.1323
   60MOL  Cl13519133   0.136   2.060   3.132  0.0483 -0.3177 -0.3529
   60MOL   C13619134   8.354   1.964   3.237  0.3226 -0.5122 -0.7549
   60MOL   C13719135   8.243   1.960   3.326 -0.1967 -0.4470  0.1379
   60MOL   C13819136   8.010   2.115   3.461 -0.5301 -0.1341  0.2752
   60MOL   H13919137   8.152   2.122   3.612  1.0013  0.9922 -1.8344
   60MOL   H14019138   8.380   2.177   3.556  1.4039  1.5282 -1.3161
   60MOL   H14119139   0.104   2.194   3.389 -2.7300  1.7697 -2.1087
   60MOL   H14219140   8.358   1.914   3.141  0.3065  0.2349 -1.1556
   60MOL   H14319141   8.154   1.902   3.303  0.2724 -2.8016  3.7277
   60MOL   H14419142   7.981   2.051   3.377  1.0132  1.3446 -1.4317
   60MOL   H14519143   7.928   2.124   3.531 -1.4786  1.6404 -1.0138
   60MOL   C14619144   8.036   2.254   3.400 -0.6069 -0.0815  0.7373
   60MOL   C14719145   7.978   2.266   3.257  0.0623  1.1004 -0.0462
   60MOL   C14819146   8.069   2.270   3.148  0.6767 -0.7335 -0.6551
   60MOL   C14919147   8.020   2.298   3.019  0.3627 -0.3760  0.5552
   60MOL   C15019148   7.884   2.300   2.992 -0.0883 -0.2616 -0.8571
   60MOL  Cl15119149   7.835   2.353   2.836  0.1781  0.6202  0.0580
   60MOL   C15219150   7.796   2.286   3.097 -0.0680 -0.0030  0.4377
   60MOL   C15319151   7.836   2.273   3.228 -0.2895  0.1258 -0.1610
   60MOL   C15419152   7.987   2.365   3.497 -0.2584 -0.2668  0.5929
   60MOL   H15519153   8.144   2.272   3.403 -0.3281 -1.6755  0.3512
   60MOL   H15619154   8.176   2.261   3.160  0.9134  1.0781 -1.1651
   60MOL   H15719155   8.093   2.322   2.944  0.2414  1.0519  0.8747
   60MOL   H15819156   7.694   2.315   3.075  0.3745  3.1982  2.2561
   60MOL   H15919157   7.758   2.255   3.301  0.1246  0.7711  0.4534
   60MOL   H16019158   7.887   2.398   3.471 -0.4989 -0.7378  0.8921
   60MOL   H16119159   7.972   2.340   3.602  0.0511 -0.8045  0.5155
   60MOL   C16219160   8.076   2.487   3.510 -0.0696 -0.6657 -0.2836
   60MOL   C16319161   8.139   2.529   3.380 -0.8286 -0.2789 -0.4524
   60MOL   C16419162   8.065   2.599   3.282 -0.2069  0.6054  0.8220
   60MOL   C16519163   8.125   2.644   3.166  0.5637  0.2397 -0.6951
   60MOL   C16619164   8.265   2.630   3.150 -0.4997 -0.1286 -0.2729
   60MOL  Cl16719165   8.351   2.707   3.015 -0.0900 -0.1718 -0.2899
   60MOL   C16819166   8.341   2.563   3.246  0.7542 -0.4815 -0.1342
   60MOL   C16919167   8.278   2.510   3.357 -0.8667  0.9458 -0.1088
   60MOL   C17019168   8.004   2.596   3.591 -0.0667 -0.8842  0.1649
   60MOL   H17119169   8.161   2.465   3.574  0.8894 -1.4570 -1.7959
   60MOL   H17219170   7.962   2.624   3.304 -1.3844 -1.0980 -2.4555
   60MOL   H17319171   8.069   2.679   3.081 -0.3316 -0.7087 -0.5075
   60MOL   H17419172   0.004   2.561   3.227  0.7462  0.5969 -0.3146
   60MOL   H17519173   8.339   2.456   3.428  0.5232  1.7756 -0.6556
   60MOL   H17619174   7.912   2.606   3.534  1.2239 -1.2498 -2.0549
   60MOL   H17719175   7.967   2.548   3.682  2.8032  0.8776  2.3623
   60MOL   C17819176   8.082   2.721   3.645  0.1200  0.3497 -0.0660
   60MOL   C17919177   8.217   2.677   3.710  0.1830  0.8571  0.0738
   60MOL   C18019178   8.340   2.684   3.637  0.4433 -0.1940 -0.0250
   60MOL   C18119179   0.018   2.648   3.692  0.0504 -0.4834 -0.3635
   60MOL   C18219180   0.022   2.584   3.817 -0.3562  0.3857  0.1196
   60MOL  Cl18319181   0.170   2.540   3.879  0.2123  0.3918  0.8234
   60MOL   C18419182   8.342   2.556   3.881  0.0991 -0.1446 -0.8173
   60MOL   C18519183   8.221   2.604   3.837  0.9232 -0.5562 -0.2501
   60MOL   C18619184   8.093   2.833   3.539 -0.0460  0.1608  0.1636
   60MOL   H18719185   8.028   2.766   3.729 -1.7486 -0.1543 -0.9772
   60MOL   H18819186   8.340   2.727   3.538  1.8191  0.2871  0.1786
   60MOL   H18919187   0.116   2.664   3.649  0.1369 -1.0785 -0.3918
   60MOL   H19019188   8.347   2.502   3.974  1.0586  2.3372  0.6123
   60MOL   H19119189   8.131   2.582   3.892  0.3958  2.0970  0.0189
   60MOL   H19219190   8.191   2.847   3.494 -0.7371 -0.2992 -1.5414
   60MOL   H19319191   8.042   2.793   3.451  0.5139 -3.1398  1.3107
   60MOL   C19419192   8.018   2.961   3.588  0.0935  0.0528 -0.7181
   60MOL   C19519193   8.104   3.043   3.689  0.8201 -0.4263 -0.2625
   60MOL   C19619194   8.051   3.080   3.815 -0.3294 -0.7769 -0.0243
   60MOL   C19719195   8.125   3.158   3.909 -0.4300 -0.0848 -0.7236
   60MOL   C19819196   8.258   3.205   3.866  0.7093  0.3160  0.0326
   60MOL  Cl19919197   8.356   3.293   3.978  0.0796  0.5541  0.3970
   60MOL   C20019198   8.312   3.164   3.742 -0.8120 -1.2046 -0.2790
   60MOL   C20119199   8.236   3.089   3.654  0.6961  0.2284  0.5298
   60MOL   C20219200   7.955   3.039   3.467  0.4380 -0.6814 -0.2092
   60MOL   H20319201   7.936   2.929   3.653  1.5503 -1.4552  0.4181
   60MOL   H20419202   7.954   3.043   3.843  0.0460 -3.4918 -2.0401
   60MOL   H20519203   8.089   3.197   4.003 -0.4945 -0.4434 -0.6003
   60MOL   H20619204   8.411   3.201   3.720 -0.5165 -0.4843  2.1187
   60MOL   H20719205   8.289   3.060   3.564 -1.0608 -1.7313  0.0750
   60MOL   H20819206   8.010   3.130   3.441 -0.4648  0.6410  2.3231
   60MOL   H20919207   7.974   2.973   3.382 -0.6797 -1.2646 -0.0184
   60MOL   C21019208   7.804   3.073   3.482  1.0084  1.1159 -0.1963
   60MOL   C21119209   7.785   3.158   3.606  0.1340 -0.2389 -0.7160
   60MOL   C21219210   7.855   3.280   3.611 -0.0534 -0.3936 -0.1704
   60MOL   C21319211   7.851   3.365   3.721  0.4459  0.0402 -0.7677
   60MOL   C21419212   7.769   3.333   3.830  0.1130 -0.7041  0.0668
   60MOL  Cl21519213   7.776   3.440   3.966  0.1429  0.0337  0.0522
   60MOL   C21619214   7.694   3.208   3.838  0.3755 -0.0392  0.4787
   60MOL   C21719215   7.711   3.124   3.724  0.2456 -0.4665 -0.0275
   60MOL   C21819216   7.753   3.151   3.360 -0.1489 -0.4800 -0.6235
   60MOL   H21919217   7.746   2.984   3.505  1.8300 -0.0727 -2.5202
   60MOL   H22019218   7.920   3.306   3.529 -1.2756 -0.4101 -1.1680
   60MOL   H22119219   7.910   3.455   3.715 -0.2556  0.5184 -0.6073
   60MOL   H22219220   7.632   3.173   3.919  0.6806 -2.1282 -0.1346
   60MOL   H22319221   7.659   3.030   3.719 -0.9683  0.1687  0.3627
   60MOL   H22419222   7.655   3.195   3.381  0.5012  0.9870 -0.6766
   60MOL   H22519223   7.818   3.235   3.337  0.7806 -0.8047  0.7508
   60MOL   C22619224   7.752   3.061   3.224  0.1614 -0.6226 -0.0245
   60MOL   C22719225   7.699   2.921   3.238  1.2789 -0.1053  0.3214
   60MOL   C22819226   7.766   2.808   3.179 -0.3426 -0.3023  0.2634
   60MOL   C22919227   7.719   2.678   3.198 -0.4006 -0.3480 -0.1221
   60MOL   C23019228   7.599   2.651   3.261  0.0483  0.4611 -0.0907
   60MOL  Cl23119229   7.533   2.495   3.270  0.5197 -0.0552 -0.1821
   60MOL   C23219230   7.530   2.763   3.323 -0.5011  0.1358  0.2996
   60MOL   C23319231   7.580   2.895   3.311  0.2248  0.4505  0.6688
   60MOL   C23419232   7.681   3.138   3.108  0.1437 -0.2587 -0.4199
   60MOL   H23519233   7.857   3.050   3.194  0.5247  1.1092  0.5578
   60MOL   H23619234   7.856   2.818   3.121 -0.7341  0.7229 -0.1777
   60MOL   H23719235   7.772   2.591   3.161  0.4875  0.2451 -0.2582
   60MOL   H23819236   7.447   2.749   3.390 -1.4133 -0.5204 -0.9576
   60MOL   H23919237   7.528   2.974   3.364 -0.4867 -0.5314  1.4408
   60MOL   H24019238   7.620   3.078   3.040 -0.5504  3.2231 -3.0263
   60MOL   H24119239   7.599   3.196   3.153 -0.4737  0.6044 -2.5803
   60MOL   C24219240   7.771   3.235   3.033 -0.3707 -0.6006 -0.3419
   60MOL   C24319241   7.884   3.170   2.966 -0.0670 -0.7036  0.7660
   60MOL   C24419242   7.871   3.049   2.889 -0.7054  0.3005 -0.3023
   60MOL   C24519243   7.990   2.986   2.840  0.6262 -0.6209 -0.5412
   60MOL   C24619244   8.115   3.049   2.849  0.2256  0.5070  0.1388
   60MOL  Cl24719245   8.254   2.974   2.782 -0.2066  0.2406  0.1770
   60MOL   C24819246   8.123   3.173   2.902  0.1770 -0.8895 -0.5658
   60MOL   C24919247   8.012   3.236   2.966 -0.4858  0.8511  0.1913
   60MOL   C25019248   7.698   3.340   2.946  0.0035 -0.0166 -0.4164
   60MOL   H25119249   7.823   3.293   3.109  0.5695  0.3213 -1.6690
   60MOL   H25219250   7.771   3.011   2.877 -0.2447 -0.7930 -0.7274
   60MOL   H25319251   7.977   2.892   2.788  1.0704 -1.9697  1.7179
   60MOL   H25419252   8.219   3.223   2.900  0.1104 -0.7302  0.1875
   60MOL   H25519253   8.034   3.332   3.010  0.3607  1.4999 -1.6323
   60MOL   H25619254   7.779   3.388   2.889 -0.6468  0.7434 -0.7185
   60MOL   H25719255   7.635   3.304   2.865 -0.8824  0.2021  0.1794
   60MOL   C25819256   7.620   3.448   3.025 -0.3768  0.1669 -0.6930
   60MOL   C25919257   7.699   3.516   3.139  0.2483 -0.2087 -0.4319
   60MOL   C26019258   7.666   3.494   3.275  0.1784 -0.3091 -0.4780
   60MOL   C26119259   7.757   3.533   3.379  0.4664  0.1262  0.1231
   60MOL   C26219260   7.882   3.584   3.347 -0.3292  1.0340 -0.3988
   60MOL  Cl26319261   7.996   3.611   3.472  0.4388  0.2352  0.4854
   60MOL   C26419262   7.916   3.608   3.210  0.4415  0.1587  0.0891
   60MOL   C26519263   7.820   3.580   3.108 -0.0148 -0.3931 -0.1307
   60MOL   C26619264   7.567   3.557   2.926  0.6937 -1.2389  0.7172
   60MOL   H26719265   7.536   3.393   3.068 -0.1630  1.0893  0.9739
   60MOL   H26819266   7.575   3.450   3.311 -0.2363  1.9297  1.3469
   60MOL   H26919267   7.735   3.512   3.483 -0.1196  1.6369  0.3175
   60MOL   H27019268   8.015   3.641   3.183  0.2701 -0.7772 -1.7736
   60MOL   H27119269   7.848   3.592   3.004 -1.1709  0.8404 -0.3029
   60MOL   H27219270   7.528   3.646   2.974  1.9343  0.7223 -1.8126
   60MOL   H27319271   7.645   3.602   2.865 -0.1257 -0.1361  0.4625
   60MOL   C27419272   7.459   3.511   2.825  0.3737 -0.6510  0.1350
   60MOL   C27519273   7.344   3.467   2.908 -0.1364 -1.2885 -0.4092
   60MOL   C27619274   7.306   3.330   2.904  0.1655 -1.1293 -0.3259
   60MOL   C27719275   7.186   3.292   2.972  0.4267 -0.9607  0.0246
   60MOL   C27819276   7.118   3.390   3.049  0.2111  0.5881  0.2890
   60MOL  Cl27919277   6.986   3.339   3.138 -0.1871 -0.3660  0.0692
   60MOL   C28019278   7.152   3.525   3.045 -0.9901  0.1114  0.4931
   60MOL   C28119279   7.269   3.563   2.976  0.1797 -0.0339 -0.0071
   60MOL   C28219280   7.423   3.621   2.719 -0.7981  0.2184  0.3993
   60MOL   H28319281   7.500   3.429   2.767 -0.9449 -0.4553 -1.0903
   60MOL   H28419282   7.366   3.258   2.851  1.4331 -0.2876 -0.0618
   60MOL   H28519283   7.160   3.189   2.989 -0.0302 -0.8954 -0.2727
   60MOL   H28619284   7.088   3.596   3.096 -1.9097 -1.0361  0.9613
   60MOL   H28719285   7.288   3.669   2.970  0.2955  0.0243  1.2774
   60MOL   H28819286   7.417   3.713   2.778 -2.1503 -0.0250  0.6747
   60MOL   H28919287   7.502   3.638   2.647 -0.9813 -0.3713  0.0531
   60MOL   C29019288   7.292   3.601   2.640 -0.1683  0.3622  0.2261
   60MOL   C29119289   7.259   3.733   2.572  0.1308  0.0397 -0.6646
   60MOL   C29219290   7.343   3.764   2.463 -0.5648 -0.5469  0.3036
   60MOL   C29319291   7.309   3.871   2.379  0.0228  0.9399 -0.2541
   60MOL   C29419292   7.202   3.958   2.413  0.3214  0.5588 -0.2968
   60MOL  Cl29519293   7.169   4.093   2.315  0.0989 -0.0545 -0.0333
   60MOL   C29619294   7.119   3.929   2.519  0.3734  0.1876  0.5209
   60MOL   C29719295   7.151   3.817   2.594  0.1360  0.3468 -0.0808
   60MOL   C29819296   7.308   3.477   2.545 -0.4903 -0.0045 -0.0479
   60MOL   H29919297   7.204   3.592   2.704  0.3321  0.3498  0.9292
   60MOL   H30019298   7.426   3.701   2.432  1.4239  2.3919 -0.6149
   60MOL   H30119299   7.369   3.889   2.291  1.1852 -0.0262  0.3295
   60MOL   H30219300   7.034   3.989   2.550  1.0480  0.9401  0.9214
   60MOL   H30319301   7.081   3.791   2.672 -1.7692  1.8282 -1.2603
   60MOL   H30419302   7.377   3.507   2.466  0.2651 -2.6191 -0.4399
   60MOL   H30519303   7.342   3.391   2.603  0.5169 -0.7013 -1.6344
   60MOL   C30619304   7.177   3.426   2.475  0.4101 -0.5784 -0.1105
   60MOL   C30719305   7.073   3.361   2.565 -0.2094  0.1130  0.1466
   60MOL   C30819306   7.052   3.220   2.562 -0.2022 -0.8890  0.0439
   60MOL   C30919307   6.964   3.163   2.655 -0.1382  0.1863  0.5697
   60MOL   C31019308   6.895   3.237   2.744 -0.4580  0.1535 -0.0823
   60MOL  Cl31119309   6.795   3.163   2.867 -0.1988 -0.1422  0.0918
   60MOL   C31219310   6.903   3.381   2.739  0.1316 -0.3648  0.0545
   60MOL   C31319311   6.988   3.443   2.646 -0.2096  0.4877 -0.0414
   60MOL   C31419312   7.124   3.524   2.381  0.4805  0.5266  0.1845
   60MOL   H31519313   7.227   3.352   2.413 -0.1170 -0.7031 -0.3830
   60MOL   H31619314   7.113   3.164   2.492  0.2566 -0.3183 -0.0116
   60MOL   H31719315   6.952   3.055   2.658 -0.1257  0.2192  2.0255
   60MOL   H31819316   6.868   3.434   2.827  1.8342  1.5655 -0.3980
   60MOL   H31919317   7.012   3.548   2.646  0.7358  0.2784  0.3663
   60MOL   H32019318   7.070   3.479   2.298  2.8588 -2.8451  0.3777
   60MOL   H32119319   7.060   3.599   2.428 -0.9961 -0.7889  0.3266
   60MOL   H32219320   7.207   3.575   2.333  0.7399 -1.0971 -1.1157
   61MOL     C119321   7.191   6.759   6.895  0.7503 -0.0939 -0.0958
   61MOL     C219322   7.200   6.896   6.953  0.0400  0.3005 -0.6805
   61MOL     C319323   7.086   6.975   6.990  0.4708 -0.2547  0.2960
   61MOL     C419324   7.097   7.109   7.039 -0.3616  0.3012 -0.2827
   61MOL     C519325   7.225   7.169   7.056  0.4453  0.2742 -0.7076
   61MOL    Cl619326   7.241   7.322   7.132 -0.1262 -0.0274  0.0748
   61MOL     C719327   7.342   7.098   7.010  0.2487 -0.4749  0.0144
   61MOL     C819328   7.323   6.964   6.956 -0.1570  0.1423  0.6406
   61MOL     C919329   7.099   6.663   6.977 -0.1456 -0.7533  0.2480
   61MOL    H1019330   7.292   6.719   6.886  0.9101  0.8261 -2.7694
   61MOL    H1119331   6.992   6.922   6.979  0.0817  0.4385  0.2300
   61MOL    H1219332   7.006   7.156   7.071  0.1924  1.1952  0.0066
   61MOL    H1319333   7.442   7.138   7.020 -0.2738  0.9565 -0.3357
   61MOL    H1419334   7.411   6.915   6.918 -0.4419 -1.3190  1.8492
   61MOL    H1519335   7.129   6.681   7.080 -1.5110  1.4351  0.2982
   61MOL    H1619336   6.998   6.703   6.974  0.1630 -0.0581 -1.3783
   61MOL    H1719337   7.153   6.776   6.794 -1.1997  1.4593  0.8687
   61MOL    C1819338   7.090   6.514   6.937 -0.6158  1.1376  0.2668
   61MOL    C1919339   7.064   6.466   6.796 -0.0187 -0.6744  0.2861
   61MOL    C2019340   7.148   6.501   6.693 -0.9534 -0.6672 -0.1861
   61MOL    C2119341   7.120   6.452   6.561  0.6608 -0.3837 -0.0181
   61MOL    C2219342   7.006   6.371   6.535 -0.6876 -0.0318  0.6641
   61MOL   Cl2319343   6.972   6.322   6.379  0.0241  0.1618  0.1790
   61MOL    C2419344   6.920   6.347   6.641  0.4601  0.1479 -0.5927
   61MOL    C2519345   6.945   6.391   6.772  0.8074  0.2473 -0.4007
   61MOL    C2619346   7.206   6.435   7.000  0.2572  0.2592  0.3141
   61MOL    H2719347   7.008   6.469   6.994  0.9759 -0.9102  0.9812
   61MOL    H2819348   7.235   6.562   6.710 -0.1168 -1.9519  0.2414
   61MOL    H2919349   7.187   6.485   6.483 -0.3259  1.2559 -0.2057
   61MOL    H3019350   6.838   6.279   6.623 -0.7928  1.8322 -1.4023
   61MOL    H3119351   6.885   6.367   6.858 -0.5077 -0.6866 -1.5553
   61MOL    H3219352   7.292   6.456   6.937 -0.5615 -0.5649 -1.1089
   61MOL    H3319353   7.228   6.486   7.094 -0.2849 -0.1185  0.6532
   61MOL    C3419354   7.190   6.282   7.023  0.1566  0.3881  0.5538
   61MOL    C3519355   7.324   6.215   7.006  0.6226 -0.3819  0.2739
   61MOL    C3619356   7.353   6.131   6.894  0.3186 -0.0143 -0.7070
   61MOL    C3719357   7.478   6.067   6.886 -0.0719 -0.5770 -0.2304
   61MOL    C3819358   7.572   6.082   6.985 -0.0820 -0.5905  0.3360
   61MOL   Cl3919359   7.700   5.972   6.988  0.1800  0.2330 -0.6273
   61MOL    C4019360   7.549   6.164   7.096 -0.3694  0.7200 -0.9220
   61MOL    C4119361   7.430   6.241   7.101 -0.0625  1.0102 -0.0271
   61MOL    C4219362   7.101   6.239   7.138  0.2071  0.0967 -0.3819
   61MOL    H4319363   7.130   6.246   6.939  1.2874 -1.2576  0.4328
   61MOL    H4419364   7.285   6.112   6.812  2.3291 -0.8311 -2.2267
   61MOL    H4519365   7.493   5.998   6.804 -0.8372 -0.0796 -0.8033
   61MOL    H4619366   7.631   6.185   7.163  0.5204 -0.2030 -1.7174
   61MOL    H4719367   7.430   6.308   7.186 -0.3615  0.2464  0.5760
   61MOL    H4819368   7.126   6.291   7.230 -3.6353 -3.5845  2.9829
   61MOL    H4919369   6.997   6.258   7.112  0.6288  1.8506 -0.8489
   61MOL    C5019370   7.105   6.089   7.176  0.0308  0.2476 -0.8655
   61MOL    C5119371   7.077   6.064   7.326 -0.9467  0.7346  0.1652
   61MOL    C5219372   7.176   5.990   7.398 -0.0146  0.7123 -0.1461
   61MOL    C5319373   7.154   5.954   7.531  0.6757 -0.2017 -0.4257
   61MOL    C5419374   7.045   6.008   7.601  0.5952  0.1927  0.0919
   61MOL   Cl5519375   7.032   5.971   7.759  0.3499  0.1129  0.0690
   61MOL    C5619376   6.939   6.075   7.534 -0.3018  0.3018 -0.0288
   61MOL    C5719377   6.961   6.104   7.393  0.3166  0.4869  0.1601
   61MOL    C5819378   7.005   6.007   7.077 -0.3050 -0.4291  0.3715
   61MOL    H5919379   7.203   6.045   7.155 -0.4176 -0.9346 -0.5255
   61MOL    H6019380   7.267   5.957   7.350 -0.2085  1.0944 -0.7860
   61MOL    H6119381   7.219   5.889   7.588 -0.6696 -2.3578 -1.2896
   61MOL    H6219382   6.842   6.085   7.580 -0.1782 -0.2912  0.3554
   61MOL    H6319383   6.885   6.148   7.329 -0.4870  1.2893  1.6411
   61MOL    H6419384   6.907   6.048   7.102 -1.1041 -3.3402  2.3066
   61MOL    H6519385   7.005   6.027   6.970 -0.1942 -0.8265  0.2986
   61MOL    C6619386   7.025   5.854   7.104 -0.5448  0.0041  0.4471
   61MOL    C6719387   6.893   5.777   7.078  0.4107  0.2359 -0.5536
   61MOL    C6819388   6.810   5.802   6.959  0.8293  0.1115 -0.3817
   61MOL    C6919389   6.700   5.716   6.929 -0.3775  0.1550  0.1757
   61MOL    C7019390   6.665   5.615   7.024  0.7343  0.3776  0.6590
   61MOL   Cl7119391   6.533   5.510   7.004 -0.1970  0.4669 -0.1968
   61MOL    C7219392   6.750   5.585   7.131 -0.2441 -0.0270 -0.3740
   61MOL    C7319393   6.864   5.668   7.161 -0.2879  0.0860  0.1062
   61MOL    C7419394   7.143   5.793   7.020 -0.4030  0.2581  0.9814
   61MOL    H7519395   7.033   5.838   7.211 -2.4479  0.0515  0.6093
   61MOL    H7619396   6.845   5.885   6.898 -0.2026  1.1882  0.4676
   61MOL    H7719397   6.627   5.748   6.856 -2.1011  0.1650  1.8665
   61MOL    H7819398   6.732   5.504   7.201  0.6879  0.6845  0.7279
   61MOL    H7919399   6.915   5.641   7.252 -2.8901 -0.4997  1.4318
   61MOL    H8019400   7.115   5.789   6.915 -1.7888  0.8258  1.3283
   61MOL    H8119401   7.218   5.871   7.024 -0.0909  0.4575 -4.7561
   61MOL    C8219402   7.208   5.659   7.061 -0.0702  0.7999 -0.6472
   61MOL    C8319403   7.316   5.621   6.967  0.4600  0.3977  0.0616
   61MOL    C8419404   7.319   5.500   6.897  0.0266 -0.6754 -0.6484
   61MOL    C8519405   7.423   5.464   6.812 -0.2171  0.2553 -0.4935
   61MOL    C8619406   7.531   5.550   6.798  0.1463 -0.3896  0.1412
   61MOL   Cl8719407   7.663   5.507   6.697 -0.2762 -0.0384 -0.0601
   61MOL    C8819408   7.532   5.674   6.871 -1.1831 -0.0663 -0.2203
   61MOL    C8919409   7.429   5.712   6.954 -0.3055 -0.0558  0.1763
   61MOL    C9019410   7.246   5.678   7.208  0.0100  0.7840 -0.5899
   61MOL    H9119411   7.135   5.578   7.063 -0.4477  1.1389 -0.6259
   61MOL    H9219412   7.229   5.441   6.901  0.0454 -0.6817 -0.2551
   61MOL    H9319413   7.423   5.372   6.756  0.5658 -0.1353  0.1386
   61MOL    H9419414   7.624   5.729   6.874 -0.1198 -1.7738 -0.4901
   61MOL    H9519415   7.432   5.805   7.008 -2.0582 -0.1194  0.4199
   61MOL    H9619416   7.298   5.771   7.230  0.9626  0.4211 -1.2601
   61MOL    H9719417   7.151   5.676   7.261  0.0445 -1.6631 -0.5519
   61MOL    C9819418   7.325   5.566   7.272  0.8448 -1.1684  0.1916
   61MOL    C9919419   7.476   5.594   7.256 -1.0032 -0.2138 -0.6184
   61MOL   C10019420   7.563   5.515   7.176  0.1712 -0.2133 -0.4206
   61MOL   C10119421   7.703   5.525   7.184  0.2403  0.7922 -0.1951
   61MOL   C10219422   7.753   5.621   7.269  0.1013  0.6677 -0.3190
   61MOL  Cl10319423   7.925   5.631   7.288  0.3789 -0.0835 -0.1079
   61MOL   C10419424   7.670   5.714   7.331  0.0348  0.2934 -0.4425
   61MOL   C10519425   7.534   5.696   7.334 -0.1691 -0.1658  0.4563
   61MOL   C10619426   7.286   5.547   7.423  0.3000  0.2401  0.1459
   61MOL   H10719427   7.303   5.478   7.212 -0.8341 -0.5373 -0.1760
   61MOL   H10819428   7.527   5.432   7.117 -2.0897  2.0551 -2.3839
   61MOL   H10919429   7.780   5.474   7.128 -0.5873 -0.3825 -0.3020
   61MOL   H11019430   7.707   5.799   7.386  1.0685  0.9586 -2.1173
   61MOL   H11119431   7.478   5.764   7.397 -0.4424  0.5915 -0.5765
   61MOL   H11219432   7.288   5.648   7.464 -0.8475 -0.2346  1.4062
   61MOL   H11319433   7.184   5.511   7.431 -0.2025  1.8108  1.1202
   61MOL   C11419434   7.375   5.450   7.506 -0.4989 -0.1772  0.0193
   61MOL   C11519435   7.372   5.476   7.653 -0.2857  0.0824 -0.3486
   61MOL   C11619436   7.249   5.468   7.719 -0.2389 -0.3874  0.0978
   61MOL   C11719437   7.244   5.507   7.859  0.2034 -0.2907  0.4057
   61MOL   C11819438   7.361   5.540   7.929  0.1453  0.4834 -0.2095
   61MOL  Cl11919439   7.351   5.571   8.095  0.3657 -0.3857 -0.2060
   61MOL   C12019440   7.483   5.554   7.861 -0.3112 -0.7497  0.4920
   61MOL   C12119441   7.482   5.520   7.722  0.2482  0.1377  0.8601
   61MOL   C12219442   7.337   5.308   7.473  0.8341  0.0357  0.2483
   61MOL   H12319443   7.476   5.463   7.467 -0.9254  2.6395 -0.2305
   61MOL   H12419444   7.156   5.448   7.668 -0.9780 -1.4443  1.8121
   61MOL   H12519445   7.150   5.500   7.913  0.9579  1.2008  1.9645
   61MOL   H12619446   7.571   5.589   7.911 -0.3227 -0.3935  0.2606
   61MOL   H12719447   7.579   5.523   7.676 -0.3601 -0.8363 -0.4983
   61MOL   H12819448   7.235   5.295   7.510  1.3652  0.6972  1.9913
   61MOL   H12919449   7.325   5.301   7.365  0.1212  2.4250  0.1438
   61MOL   C13019450   7.428   5.193   7.510 -0.1148 -0.1282  1.4470
   61MOL   C13119451   7.559   5.204   7.430 -0.3938 -0.0967  0.1222
   61MOL   C13219452   7.574   5.130   7.310  0.4177 -0.4461 -0.1476
   61MOL   C13319453   7.699   5.139   7.241  0.2660 -0.5744  0.0047
   61MOL   C13419454   7.803   5.209   7.300  0.1472  0.1467  0.7813
   61MOL  Cl13519455   7.944   5.229   7.203 -0.2614  0.3319  0.1083
   61MOL   C13619456   7.778   5.284   7.414 -0.1413 -0.0157 -0.5563
   61MOL   C13719457   7.661   5.285   7.484 -0.3040  0.0447 -0.0217
   61MOL   C13819458   7.445   5.173   7.663 -0.0414  0.5332 -0.4944
   61MOL   H13919459   7.371   5.112   7.465  1.4522  0.5520 -1.8766
   61MOL   H14019460   7.492   5.072   7.269 -0.0893 -0.3315  0.6891
   61MOL   H14119461   7.720   5.077   7.155 -3.0533 -0.9544 -0.5888
   61MOL   H14219462   7.860   5.347   7.445  2.2468 -2.5691 -1.4286
   61MOL   H14319463   7.641   5.346   7.570 -1.0699  0.9301 -0.8172
   61MOL   H14419464   7.522   5.238   7.704  0.4266 -0.4540  0.1875
   61MOL   H14519465   7.352   5.207   7.710  0.0761  1.6468 -1.0361
   61MOL   C14619466   7.484   5.027   7.716  0.4614 -0.6255 -0.1256
   61MOL   C14719467   7.537   5.030   7.859  0.5393  0.0554 -0.2590
   61MOL   C14819468   7.503   5.122   7.957 -0.0574 -0.7426  0.0977
   61MOL   C14919469   7.557   5.110   8.085  0.4991 -0.0737 -0.1132
   61MOL   C15019470   7.646   5.007   8.117 -0.7817  0.7447  0.2202
   61MOL  Cl15119471   7.714   4.994   8.280 -0.1952  0.2334  0.3014
   61MOL   C15219472   7.679   4.912   8.018 -0.3967 -0.0831  0.7077
   61MOL   C15319473   7.621   4.922   7.887 -0.4635  0.3189  0.1665
   61MOL   C15419474   7.383   4.920   7.682 -0.2214 -0.2445  0.3445
   61MOL   H15519475   7.577   5.008   7.662  0.9597  0.6852  0.2464
   61MOL   H15619476   7.441   5.208   7.936  1.2215  0.0620 -0.4797
   61MOL   H15719477   7.520   5.177   8.162 -1.5104 -0.9367 -0.3169
   61MOL   H15819478   7.755   4.840   8.047 -0.3911 -0.4814 -0.2920
   61MOL   H15919479   7.650   4.848   7.813  1.4453  1.1177  0.0817
   61MOL   H16019480   7.348   4.923   7.579  2.3235 -1.0541 -0.5829
   61MOL   H16119481   7.435   4.825   7.689  2.7110  1.1419 -1.4345
   61MOL   C16219482   7.272   4.907   7.786 -0.2324  0.6832  0.0844
   61MOL   C16319483   7.186   5.030   7.813  0.2711  0.4998 -0.2628
   61MOL   C16419484   7.109   5.086   7.713  0.2226 -0.0972  0.4751
   61MOL   C16519485   7.011   5.185   7.743  0.3389  0.2418 -0.1690
   61MOL   C16619486   7.003   5.247   7.866  0.1472  0.0254 -0.2370
   61MOL  Cl16719487   6.883   5.365   7.912 -0.3502 -0.2136  0.4352
   61MOL   C16819488   7.092   5.201   7.963 -0.3775  0.1391  0.5077
   61MOL   C16919489   7.188   5.100   7.938  0.0365 -0.2372  0.3602
   61MOL   C17019490   7.189   4.783   7.757 -0.1381  1.0059  0.9039
   61MOL   H17119491   7.333   4.887   7.874 -0.6731  0.4279  0.3333
   61MOL   H17219492   7.114   5.054   7.610 -1.2748  0.2881  0.2674
   61MOL   H17319493   6.957   5.234   7.663  1.5720  0.5525 -0.8187
   61MOL   H17419494   7.086   5.250   8.059  1.5220 -0.3385  0.8819
   61MOL   H17519495   7.248   5.063   8.020 -0.2995 -2.3178 -0.3083
   61MOL   H17619496   7.171   4.792   7.650  1.4510 -1.8603  0.3551
   61MOL   H17719497   7.258   4.700   7.770  1.2892  1.5095 -2.6736
   61MOL   C17819498   7.054   4.756   7.832  0.0939 -0.1024 -0.1837
   61MOL   C17919499   7.006   4.622   7.782 -0.4130  0.7248  0.3028
   61MOL   C18019500   7.076   4.501   7.819  0.3737  0.8456 -0.2018
   61MOL   C18119501   7.024   4.376   7.784 -0.4432 -0.4046 -0.5201
   61MOL   C18219502   6.924   4.368   7.684 -0.1759 -0.9403  0.1813
   61MOL  Cl18319503   6.875   4.216   7.614  0.1797  0.0005 -0.4061
   61MOL   C18419504   6.863   4.486   7.642 -0.0951 -0.1750  0.2051
   61MOL   C18519505   6.890   4.612   7.696  0.9035  0.3762 -0.6650
   61MOL   C18619506   7.073   4.758   7.984  0.2586  0.4234  0.5401
   61MOL   H18719507   6.984   4.836   7.807  0.9307  0.2100 -1.6228
   61MOL   H18819508   7.160   4.510   7.886  0.6174  2.0473 -0.6614
   61MOL   H18919509   7.076   4.287   7.816  1.5387  0.7208 -0.5397
   61MOL   H19019510   6.782   4.481   7.570  0.5072  0.2134 -0.5092
   61MOL   H19119511   6.828   4.692   7.658  1.0495  0.3614 -0.9352
   61MOL   H19219512   7.161   4.697   8.004 -0.6768 -0.5980  1.6736
   61MOL   H19319513   7.087   4.858   8.024  2.5884 -0.2301  1.4496
   61MOL   C19419514   6.952   4.705   8.070 -0.0391 -0.3695  0.2376
   61MOL   C19519515   7.001   4.703   8.213  0.9380 -0.4061 -0.0008
   61MOL   C19619516   7.041   4.823   8.279  0.0385 -0.1429  0.4304
   61MOL   C19719517   7.088   4.820   8.409 -0.3315  1.4171 -0.3384
   61MOL   C19819518   7.075   4.701   0.037  0.4595  0.1539  0.1320
   61MOL  Cl19919519   7.101   4.704   0.208 -0.0620 -0.2029 -0.0861
   61MOL   C20019520   7.039   4.580   8.420 -0.5815  0.1132 -0.1034
   61MOL   C20119521   7.000   4.584   8.285 -0.0930 -0.0200  0.1300
   61MOL   C20219522   6.820   4.785   8.047 -0.2745 -0.2841 -0.4500
   61MOL   H20319523   6.936   4.603   8.035 -1.8119  0.2457 -0.7777
   61MOL   H20419524   7.053   4.917   8.227 -1.9115  0.9915  1.9506
   61MOL   H20519525   7.110   4.918   0.006  2.6592  0.7451 -0.2176
   61MOL   H20619526   7.020   4.494   0.039 -0.9507 -1.6694 -2.6009
   61MOL   H20719527   6.946   4.504   8.237  0.8276 -1.4632  1.4413
   61MOL   H20819528   6.833   4.893   8.041 -2.3040 -0.0156 -0.2235
   61MOL   H20919529   6.780   4.765   7.947  0.8362 -1.8759 -0.6059
   61MOL   C21019530   6.707   4.758   8.154 -0.8944 -0.2099 -0.6092
   61MOL   C21119531   6.696   4.859   8.277  0.7778 -0.1814  0.5381
   61MOL   C21219532   6.704   4.812   8.411  0.4522  0.9245 -0.5871
   61MOL   C21319533   6.705   4.899   0.079  0.4512  0.6721  0.5475
   61MOL   C21419534   6.680   5.035   0.061  0.3240  0.1596 -0.1111
   61MOL  Cl21519535   6.676   5.142   0.195  0.1816 -0.2056 -0.4615
   61MOL   C21619536   6.665   5.085   8.371  1.1330  0.1468 -0.4529
   61MOL   C21719537   6.680   4.996   8.263  0.4592  0.0899  0.7065
   61MOL   C21819538   6.576   4.732   8.087  0.0079  0.0426 -0.6915
   61MOL   H21919539   6.733   4.664   8.202  0.7457  0.7170  0.3536
   61MOL   H22019540   6.724   4.708   8.429  1.7717  1.4459  1.1870
   61MOL   H22119541   6.706   4.850   0.176 -0.9396 -0.5875 -0.0458
   61MOL   H22219542   6.619   5.181   8.353 -1.7074 -0.7230  1.6859
   61MOL   H22319543   6.673   5.043   8.166  2.1272 -1.1859 -0.0435
   61MOL   H22419544   6.499   4.718   8.164  0.2539  3.5598  0.2599
   61MOL   H22519545   6.537   4.816   8.030 -0.0435  1.5860  1.5685
   61MOL   C22619546   6.566   4.600   8.000  0.1653 -0.3354 -0.0189
   61MOL   C22719547   6.634   4.477   8.058  0.2193 -0.4838 -0.0467
   61MOL   C22819548   6.735   4.409   7.987 -0.0014  0.1207  0.6808
   61MOL   C22919549   6.801   4.295   8.046 -0.0851 -0.2561  0.0310
   61MOL   C23019550   6.767   4.256   8.180 -0.3899  0.3023  0.1961
   61MOL  Cl23119551   6.865   4.131   8.250 -0.0321  0.5935  0.2845
   61MOL   C23219552   6.658   4.322   8.247 -0.4287 -0.6864 -0.9995
   61MOL   C23319553   6.592   4.430   8.184 -0.0931 -0.7505  0.0672
   61MOL   C23419554   6.428   4.567   7.956  0.1423  0.0256  0.2097
   61MOL   H23519555   6.629   4.619   7.913 -0.8987 -1.0927 -0.9687
   61MOL   H23619556   6.759   4.448   7.890  0.2364 -0.3718  0.5434
   61MOL   H23719557   6.878   4.239   7.996 -0.8264  0.0330 -1.4585
   61MOL   H23819558   6.627   4.283   8.342 -1.8344 -1.2029 -1.6563
   61MOL   H23919559   6.513   4.482   8.237  1.5789  1.1327  0.7721
   61MOL   H24019560   6.429   4.474   7.900  2.3151 -0.9954  1.8628
   61MOL   H24119561   6.367   4.546   8.044  0.8899  1.5861  1.1162
   61MOL   C24219562   6.363   4.679   7.862  0.2447  1.0353  0.0788
   61MOL   C24319563   6.445   4.708   7.744 -0.2391  0.0429 -0.2189
   61MOL   C24419564   6.502   4.831   7.715  0.1452 -0.3550 -0.0308
   61MOL   C24519565   6.570   4.850   7.593 -0.1788 -0.5578  0.6318
   61MOL   C24619566   6.574   4.746   7.501  0.3677  0.1059  0.0801
   61MOL  Cl24719567   6.648   4.763   7.352 -0.0528  0.4308 -0.4531
   61MOL   C24819568   6.518   4.621   7.526  0.7234  0.4826 -0.6290
   61MOL   C24919569   6.462   4.603   7.655  0.1463  0.2519  0.2521
   61MOL   C25019570   6.217   4.647   7.823 -0.7292  0.1612 -0.3058
   61MOL   H25119571   6.357   4.771   7.921 -0.6171  1.3386 -0.4558
   61MOL   H25219572   6.492   4.919   7.778 -0.1196  1.1053 -2.0796
   61MOL   H25319573   6.616   4.945   7.570  0.7111 -0.8724  1.0909
   61MOL   H25419574   6.526   4.541   7.454  0.9430 -0.1881  0.1316
   61MOL   H25519575   6.426   4.503   7.677  3.1184 -1.0341 -0.4191
   61MOL   H25619576   6.223   4.572   7.744  0.5558 -0.2524  0.1722
   61MOL   H25719577   6.172   4.584   7.899  0.8482 -1.4074 -0.6436
   61MOL   C25819578   6.131   4.770   7.789  0.5385 -0.1963 -0.5415
   61MOL   C25919579   6.068   4.752   7.645  0.1967  0.4949 -0.2788
   61MOL   C26019580   5.928   4.745   7.618 -1.1665 -1.0230  0.4598
   61MOL   C26119581   5.875   4.726   7.485 -0.4409 -0.2939  0.2527
   61MOL   C26219582   5.962   4.731   7.370 -0.4713  0.0707 -0.7976
   61MOL  Cl26319583   5.910   4.731   7.204  0.0512 -0.5604 -0.1394
   61MOL   C26419584   6.100   4.746   7.395 -0.0518  0.8153 -0.9578
   61MOL   C26519585   6.149   4.748   7.527  0.3942  0.2132 -0.4844
   61MOL   C26619586   6.024   4.801   7.902  0.4601 -0.5317  0.3352
   61MOL   H26719587   6.199   4.853   7.771  0.7617 -0.7540 -2.3493
   61MOL   H26819588   5.857   4.739   7.699 -1.5206  0.8063  0.3156
   61MOL   H26919589   5.768   4.720   7.470 -0.6642 -2.5249  2.3654
   61MOL   H27019590   6.174   4.765   7.319  2.6319 -1.0756  1.0764
   61MOL   H27119591   6.255   4.767   7.537  0.7769 -0.5149 -2.9429
   61MOL   H27219592   5.953   4.874   7.863  0.5226 -1.0458 -0.7417
   61MOL   H27319593   5.965   4.713   7.927 -0.3321 -0.1108 -0.0543
   61MOL   C27419594   6.090   4.874   8.027  0.5298 -0.2983 -0.4043
   61MOL   C27519595   6.143   5.014   7.996 -0.5399 -0.0638  0.7628
   61MOL   C27619596   6.053   5.123   7.965  0.2817  0.1530  0.0732
   61MOL   C27719597   6.106   5.249   7.928  0.1824  0.2888 -0.1103
   61MOL   C27819598   6.245   5.275   7.920  0.1024 -0.1915  0.1851
   61MOL  Cl27919599   6.292   5.438   7.890 -0.2106  0.1045 -0.4831
   61MOL   C28019600   6.336   5.170   7.948 -0.4907 -0.7645  0.6948
   61MOL   C28119601   6.283   5.044   7.986  0.1723 -0.4912  0.1978
   61MOL   C28219602   6.008   4.868   8.154 -0.0387  0.1609  0.9320
   61MOL   H28319603   6.184   4.823   8.050 -1.0880 -1.4524  4.1286
   61MOL   H28419604   5.947   5.109   7.975  0.3774 -1.5233 -1.0189
   61MOL   H28519605   6.037   5.327   7.901 -1.4030 -0.9371  0.3388
   61MOL   H28619606   6.441   5.196   7.957 -0.8303  0.6004  0.8372
   61MOL   H28719607   6.355   4.973   8.025 -0.9728 -1.8144 -0.0418
   61MOL   H28819608   5.929   4.942   8.150  2.2270  2.6333  0.6675
   61MOL   H28919609   5.955   4.774   8.167 -1.4035  0.8156  0.1837
   61MOL   C29019610   6.080   4.900   8.284 -0.1805  0.7710  0.2081
   61MOL   C29119611   5.975   4.928   8.387 -0.3500  0.3549 -0.0646
   61MOL   C29219612   5.866   4.833   8.402 -0.6289  0.4251  0.6631
   61MOL   C29319613   5.786   4.846   0.070  0.1148 -0.5045  0.0433
   61MOL   C29419614   5.803   4.943   0.166 -0.4360  0.1413  0.2177
   61MOL  Cl29519615   5.717   4.932   0.313  0.0309  0.0693 -0.0217
   61MOL   C29619616   5.898   5.048   0.143 -0.4510  0.1194  0.5799
   61MOL   C29719617   5.985   5.042   0.027 -0.0791  0.4211  0.1662
   61MOL   C29819618   6.176   4.790   8.339  0.6401 -0.1367 -0.3149
   61MOL   H29919619   6.135   4.994   8.274  0.9035  0.3201  1.7099
   61MOL   H30019620   5.861   4.745   8.340  1.5759  0.8889 -0.2094
   61MOL   H30119621   5.709   4.773   0.091 -0.5009 -0.5470 -2.2486
   61MOL   H30219622   5.917   5.131   0.209 -1.3262  2.2883 -1.8267
   61MOL   H30319623   6.065   5.113   0.014 -0.0887  0.4507  0.2750
   61MOL   H30419624   6.116   4.706   8.374  1.4562  0.1893  1.9828
   61MOL   H30519625   6.239   4.755   8.258  1.2802 -1.0168  0.5454
   61MOL   C30619626   6.272   4.839   0.011  0.3080 -0.1385 -0.3667
   61MOL   C30719627   6.353   4.726   0.070 -0.4750  0.3305 -0.1432
   61MOL   C30819628   6.425   4.750   0.191  0.1783  0.6990  0.5842
   61MOL   C30919629   6.515   4.654   0.245  0.6127 -0.5769  0.2314
   61MOL   C31019630   6.540   4.538   0.178 -0.9804  0.4710 -0.6467
   61MOL  Cl31119631   6.665   4.428   0.238 -0.2005 -0.1918 -0.0978
   61MOL   C31219632   6.472   4.506   0.056 -0.2123  0.5423  0.2886
   61MOL   C31319633   6.386   4.602   0.000  0.0473  0.4526 -0.2518
   61MOL   C31419634   6.359   4.952   8.400  0.1813 -0.4045  0.4580
   61MOL   H31519635   6.206   4.883   0.086 -1.6043 -0.2950 -1.9101
   61MOL   H31619636   6.400   4.842   0.242 -1.0748  0.1121  1.0473
   61MOL   H31719637   6.567   4.666   0.339 -0.1024 -0.1108  0.5736
   61MOL   H31819638   6.481   4.413   0.002  0.3289  2.2400 -2.6997
   61MOL   H31919639   6.352   4.585   8.342  2.1079 -0.9895 -0.7274
   61MOL   H32019640   6.409   4.922   8.308 -1.0627 -0.7998 -0.1062
   61MOL   H32119641   6.303   5.044   8.384 -0.9083 -0.6534  2.6196
   61MOL   H32219642   6.437   4.978   0.028 -1.4939 -0.8579  2.5198
   62MOL     C119643   2.043   5.408   1.462 -0.1762 -0.1403 -0.3543
   62MOL     C219644   2.074   5.556   1.503 -0.2004 -0.1991 -0.7055
   62MOL     C319645   2.155   5.584   1.618 -0.0160 -0.1858 -0.2063
   62MOL     C419646   2.173   5.717   1.656 -0.0778 -0.3167  0.5040
   62MOL     C519647   2.096   5.819   1.598 -0.4186  0.9527 -0.0797
   62MOL    Cl619648   2.120   5.979   1.656 -0.4914  0.2010 -0.2506
   62MOL     C719649   2.022   5.791   1.490  0.0146  0.4968 -0.0811
   62MOL     C819650   2.011   5.665   1.434 -0.2771 -0.2338  0.1420
   62MOL     C919651   1.894   5.373   1.476 -0.5456  0.0662  0.4156
   62MOL    H1019652   2.090   5.336   1.529 -0.1860  0.1988  0.0206
   62MOL    H1119653   2.202   5.508   1.678  2.5774  1.6095  0.1338
   62MOL    H1219654   2.240   5.745   1.735  0.3040  0.9428 -0.2518
   62MOL    H1319655   1.968   5.875   1.448  2.5738  2.3860  0.2620
   62MOL    H1419656   1.958   5.653   1.340  1.4017  0.6560 -0.9361
   62MOL    H1519657   1.868   5.396   1.579 -0.4708  0.9050  0.2481
   62MOL    H1619658   1.832   5.444   1.421  1.9159 -0.4580 -3.2636
   62MOL    H1719659   2.073   5.389   1.359  0.8025  1.7298 -0.4294
   62MOL    C1819660   1.850   5.233   1.443  0.2464  0.8674  0.0007
   62MOL    C1919661   1.706   5.207   1.490 -0.4175  0.0351 -0.8654
   62MOL    C2019662   1.677   5.085   1.559 -0.0152 -0.0129 -0.0239
   62MOL    C2119663   1.549   5.057   1.606  0.7474  0.0069 -1.0404
   62MOL    C2219664   1.450   5.154   1.590  0.5408  0.0955 -0.2999
   62MOL   Cl2319665   1.296   5.135   1.668 -0.2385 -0.2837  0.1527
   62MOL    C2419666   1.475   5.277   1.531  0.2580 -0.5104 -0.4680
   62MOL    C2519667   1.604   5.303   1.479 -0.1523  0.7691  0.2188
   62MOL    C2619668   1.868   5.212   1.288 -0.4078 -0.3266 -0.4350
   62MOL    H2719669   1.920   5.171   1.500  0.4007  0.6366 -0.4298
   62MOL    H2819670   1.754   5.010   1.574 -1.1517 -1.6758 -2.3488
   62MOL    H2919671   1.523   4.967   1.659 -0.7923  2.2262  2.2084
   62MOL    H3019672   1.392   5.346   1.533 -0.8675 -1.8633  1.3824
   62MOL    H3119673   1.624   5.396   1.428  1.3305  0.2127 -0.2343
   62MOL    H3219674   1.776   5.246   1.240  0.5096  0.5093 -1.6369
   62MOL    H3319675   1.931   5.285   1.238  0.7631 -2.9371 -2.8846
   62MOL    C3419676   1.919   5.078   1.239  0.1144  0.3517  0.2384
   62MOL    C3519677   2.029   5.004   1.315 -0.5221  0.1279  0.6063
   62MOL    C3619678   2.003   4.890   1.400 -0.1118 -0.4101  0.5421
   62MOL    C3719679   2.103   4.837   1.484  0.8401  0.0322 -0.4675
   62MOL    C3819680   2.233   4.883   1.472  0.9696 -0.6650  0.3423
   62MOL   Cl3919681   2.369   4.819   1.547 -0.3346 -0.6880 -0.3517
   62MOL    C4019682   2.262   4.987   1.386  0.3135 -0.6148 -0.2881
   62MOL    C4119683   2.163   5.057   1.313 -0.3445 -0.7496  0.5693
   62MOL    C4219684   1.795   4.994   1.190 -0.6715 -0.8431 -0.1406
   62MOL    H4319685   1.975   5.114   1.153  1.0333  0.2156  0.7795
   62MOL    H4419686   1.903   4.850   1.411  0.5469 -2.5659 -1.0261
   62MOL    H4519687   2.079   4.749   1.541  1.4995  0.4908  0.5261
   62MOL    H4619688   2.366   5.014   1.380  0.4050 -0.9487 -0.1949
   62MOL    H4719689   2.193   5.142   1.255 -4.0945  1.9956  2.4805
   62MOL    H4819690   1.748   4.960   1.283  0.4459 -2.9724 -0.3274
   62MOL    H4919691   1.723   5.053   1.133  2.3686  2.6135 -0.5730
   62MOL    C5019692   1.831   4.863   1.113  0.0919 -1.2611 -0.3510
   62MOL    C5119693   1.711   4.775   1.079 -0.1113 -1.0412 -0.0579
   62MOL    C5219694   1.680   4.655   1.144 -0.1013  0.6386 -0.3870
   62MOL    C5319695   1.576   4.568   1.104  0.2082  0.3890  0.0936
   62MOL    C5419696   1.498   4.603   0.989 -0.0319  1.0722  0.4927
   62MOL   Cl5519697   1.375   4.493   0.939  0.4476  0.5012 -0.0395
   62MOL    C5619698   1.533   4.715   0.912 -0.2161  0.2414 -0.2458
   62MOL    C5719699   1.631   4.805   0.971  0.7179 -0.2788  0.0059
   62MOL    C5819700   1.916   4.884   0.986 -0.2987  0.7583 -0.6715
   62MOL    H5919701   1.898   4.804   1.176 -0.0387 -0.1821  0.8315
   62MOL    H6019702   1.736   4.617   1.228 -1.8076 -2.7352 -0.7067
   62MOL    H6119703   1.559   4.474   1.154  1.0915  0.6720  0.9310
   62MOL    H6219704   1.481   4.740   0.821 -1.4222  3.3478  1.2169
   62MOL    H6319705   1.664   4.898   0.928  1.4115 -0.8772 -0.7657
   62MOL    H6419706   1.864   4.909   0.894  0.7068  1.4161 -1.0700
   62MOL    H6519707   1.983   4.970   0.992  1.0438 -0.3255  0.1214
   62MOL    C6619708   2.001   4.756   0.962 -0.6218 -0.6777  0.4843
   62MOL    C6719709   2.014   4.713   0.813 -0.5291 -0.1403  0.4127
   62MOL    C6819710   2.012   4.577   0.773  0.9632  0.3469  0.2673
   62MOL    C6919711   2.033   4.531   0.638 -0.5010 -1.0042 -0.3705
   62MOL    C7019712   2.058   4.632   0.547  0.5680  0.5668  0.3428
   62MOL   Cl7119713   2.095   4.592   0.379 -0.1929 -0.0426 -0.1224
   62MOL    C7219714   2.080   4.769   0.583  0.1217  0.7253  0.8152
   62MOL    C7319715   2.056   4.811   0.716 -0.0327 -0.1843  0.0203
   62MOL    C7419716   2.147   4.767   1.024 -0.5052  0.2687  0.0406
   62MOL    H7519717   1.951   4.678   1.020 -1.0383  0.4803  1.7281
   62MOL    H7619718   1.977   4.500   0.840 -0.2188  1.1490  0.5838
   62MOL    H7719719   2.025   4.427   0.610  1.1681 -0.6894 -2.1048
   62MOL    H7819720   2.127   4.841   0.518 -0.6880 -0.2827 -0.9126
   62MOL    H7919721   2.088   4.913   0.735 -0.6940 -0.6327  4.0380
   62MOL    H8019722   2.214   4.827   0.963  1.3051 -1.7539  0.0114
   62MOL    H8119723   2.147   4.830   1.113 -0.3938  0.2859  0.0279
   62MOL    C8219724   2.207   4.630   1.068 -0.2425 -0.2317 -0.1636
   62MOL    C8319725   2.359   4.633   1.072 -0.1963  0.4611 -0.0182
   62MOL    C8419726   2.435   4.565   0.967  0.1804 -1.1651 -0.6786
   62MOL    C8519727   2.566   4.595   0.947 -0.0595 -0.0674  0.7591
   62MOL    C8619728   2.640   4.673   1.036  0.2973 -0.9693 -0.3332
   62MOL   Cl8719729   2.805   4.698   1.001  0.2955  0.6074  0.4245
   62MOL    C8819730   2.573   4.727   1.148  0.1456  0.7516  0.0012
   62MOL    C8919731   2.433   4.711   1.159  0.1607  0.4523  0.6452
   62MOL    C9019732   2.146   4.597   1.207  0.6322 -0.6540 -0.2345
   62MOL    H9119733   2.176   4.556   0.994 -2.3136 -0.4983  0.9200
   62MOL    H9219734   2.385   4.485   0.914  1.9538 -1.4782 -1.9417
   62MOL    H9319735   2.617   4.540   0.870 -0.6677  0.1549  0.1927
   62MOL    H9419736   2.638   4.779   1.217  0.6894  0.3169 -0.1779
   62MOL    H9519737   2.380   4.768   1.234 -0.2810 -0.0560  0.7177
   62MOL    H9619738   2.144   4.684   1.272  1.6969 -0.3308 -0.6229
   62MOL    H9719739   2.042   4.570   1.191  0.4242 -0.9798  1.5705
   62MOL    C9819740   2.216   4.486   1.288  0.7338 -0.1407 -0.5176
   62MOL    C9919741   2.155   4.480   1.428  0.2038  0.0992  0.3173
   62MOL   C10019742   2.020   4.450   1.440 -0.2754  0.5593  0.1027
   62MOL   C10119743   1.954   4.454   1.564  0.2056 -0.5122  0.2017
   62MOL   C10219744   2.032   4.481   1.676  0.0483 -0.0071 -0.0661
   62MOL  Cl10319745   1.956   4.470   1.827  0.4740  0.2758  0.1184
   62MOL   C10419746   2.170   4.513   1.668 -0.1150 -0.6410 -0.1142
   62MOL   C10519747   2.226   4.520   1.540 -0.3771 -0.0538  0.1547
   62MOL   C10619748   2.211   4.346   1.211  0.1810  0.2741  0.2854
   62MOL   H10719749   2.320   4.513   1.301  0.6526 -0.0893  0.0475
   62MOL   H10819750   1.966   4.433   1.348  1.1889 -0.7257 -0.5503
   62MOL   H10919751   1.847   4.440   1.563  0.1330 -0.1219 -2.3366
   62MOL   H11019752   2.231   4.525   1.756 -0.7121 -3.3059  0.7002
   62MOL   H11119753   2.331   4.545   1.528 -0.0589 -1.3874  0.0662
   62MOL   H11219754   2.111   4.308   1.232 -0.5727  0.4035 -2.7326
   62MOL   H11319755   2.202   4.348   1.102 -1.5069  2.0226  0.4427
   62MOL   C11419756   2.318   4.249   1.258 -0.0222 -0.5586 -0.1862
   62MOL   C11519757   2.258   4.115   1.292 -0.8693  1.1563  0.3746
   62MOL   C11619758   2.236   4.021   1.187  0.5616  0.2445  0.0452
   62MOL   C11719759   2.200   3.892   1.220 -0.2402  0.1429 -0.4153
   62MOL   C11819760   2.180   3.858   1.355 -0.6515  0.7674 -0.0902
   62MOL  Cl11919761   2.134   3.699   1.397 -0.3346 -0.3015 -0.2408
   62MOL   C12019762   2.198   3.946   1.465  0.5597 -0.1900 -0.2699
   62MOL   C12119763   2.230   4.079   1.428  0.9129 -0.2576  0.1994
   62MOL   C12219764   2.440   4.260   1.156 -0.4240  0.3730 -0.7152
   62MOL   H12319765   2.354   4.291   1.352  0.7335  0.7500 -1.0459
   62MOL   H12419766   2.274   4.038   1.087 -0.1677  0.2005 -0.2388
   62MOL   H12519767   2.196   3.820   1.139  2.5037 -0.5643  0.0211
   62MOL   H12619768   2.172   3.917   1.566 -1.4924 -0.4970 -0.8572
   62MOL   H12719769   2.241   4.149   1.510 -0.2298 -0.5756  0.6284
   62MOL   H12819770   2.389   4.252   1.060 -1.0171  1.9821 -0.5517
   62MOL   H12919771   2.486   4.357   1.169  1.7830 -0.7871  0.3860
   62MOL   C13019772   2.555   4.161   1.164 -0.1967  0.0855 -0.0250
   62MOL   C13119773   2.652   4.182   1.046  0.2346 -0.7751 -0.3827
   62MOL   C13219774   2.651   4.101   0.930 -1.0572  0.4509 -0.5049
   62MOL   C13319775   2.736   4.129   0.821  0.9828  0.1857 -0.2105
   62MOL   C13419776   2.821   4.239   0.826  0.0507 -0.2233 -0.2531
   62MOL  Cl13519777   2.900   4.297   0.682 -0.1041 -0.1838  0.1679
   62MOL   C13619778   2.819   4.324   0.941 -0.3183 -0.0714  0.5426
   62MOL   C13719779   2.743   4.292   1.050  0.2861 -0.0648  0.4716
   62MOL   C13819780   2.632   4.152   1.298  0.2598 -0.3759 -0.4776
   62MOL   H13919781   2.506   4.065   1.147 -0.8041 -0.2866  3.5038
   62MOL   H14019782   2.578   4.024   0.917 -0.7405  0.2220 -0.9512
   62MOL   H14119783   2.718   4.062   0.738 -0.3252 -2.1745  1.8682
   62MOL   H14219784   2.879   4.414   0.942 -0.6754  0.2498 -2.4242
   62MOL   H14319785   2.737   4.365   1.129 -0.3691  1.5880 -1.0574
   62MOL   H14419786   2.694   4.242   1.305  1.0072 -0.8661 -0.8313
   62MOL   H14519787   2.549   4.145   1.369  0.4152 -1.4227 -0.4020
   62MOL   C14619788   2.719   4.028   1.331 -0.0791  0.2203 -0.3057
   62MOL   C14719789   2.648   3.895   1.298  0.3114 -0.3099 -0.3115
   62MOL   C14819790   2.676   3.817   1.183  0.4424  0.0555 -0.0689
   62MOL   C14919791   2.605   3.693   1.162 -0.6813  0.1242 -0.2964
   62MOL   C15019792   2.516   3.643   1.254  0.6000 -0.3244  0.0458
   62MOL  Cl15119793   2.427   3.495   1.223 -0.6399 -0.0889 -0.0114
   62MOL   C15219794   2.495   3.710   1.371 -0.1566 -0.6627 -0.2070
   62MOL   C15319795   2.551   3.841   1.389 -0.2501  0.6664  0.1774
   62MOL   C15419796   2.868   4.036   1.280  0.1671  0.0877 -0.1017
   62MOL   H15519797   2.715   4.026   1.439 -0.5535  0.4869 -0.3173
   62MOL   H15619798   2.740   3.849   1.101 -0.1364 -0.1209 -0.5936
   62MOL   H15719799   2.611   3.633   1.072 -0.7668 -1.7487  0.9230
   62MOL   H15819800   2.418   3.683   1.442  0.2927  0.1768  0.6188
   62MOL   H15919801   2.518   3.889   1.480 -0.3593 -0.3463  0.6823
   62MOL   H16019802   2.899   3.934   1.259 -2.4085 -0.3226 -2.2979
   62MOL   H16119803   2.879   4.080   1.182  0.7613  0.8521  0.3080
   62MOL   C16219804   2.974   4.104   1.365  0.7126 -0.0767  0.0973
   62MOL   C16319805   2.989   4.047   1.503 -0.1440 -0.1702  0.2674
   62MOL   C16419806   3.022   4.144   1.609  0.4440  0.6559 -0.1997
   62MOL   C16519807   3.036   4.106   1.747 -0.0045 -0.1610  0.5060
   62MOL   C16619808   3.008   3.969   1.774 -0.4009  0.8156  0.2440
   62MOL  Cl16719809   2.998   3.916   1.943 -0.2741 -0.4702 -0.4293
   62MOL   C16819810   2.979   3.873   1.671  0.3782 -0.4848 -0.1656
   62MOL   C16919811   2.970   3.915   1.538  0.2872  0.4729 -0.5218
   62MOL   C17019812   3.105   4.103   1.292 -0.6995 -0.9548 -0.6977
   62MOL   H17119813   2.950   4.209   1.379 -1.7193 -0.5761 -0.0275
   62MOL   H17219814   3.033   4.247   1.580  1.4181  0.3818 -0.8333
   62MOL   H17319815   3.055   4.184   1.819 -1.4617  0.0587  0.6803
   62MOL   H17419816   2.957   3.769   1.689 -2.9379  0.2212  0.3325
   62MOL   H17519817   2.951   3.845   1.457 -0.3048  1.1793 -1.0006
   62MOL   H17619818   3.187   4.119   1.361 -0.7047  0.0232 -0.9140
   62MOL   H17719819   3.129   4.007   1.247 -1.7107 -0.7440 -1.7308
   62MOL   C17819820   3.128   4.213   1.186  0.2073 -0.2784  0.6150
   62MOL   C17919821   3.130   4.350   1.253 -0.1583 -0.0219  0.7888
   62MOL   C18019822   3.012   4.439   1.248  0.3728 -0.0958 -0.0774
   62MOL   C18119823   3.020   4.573   1.291  0.2907 -0.1499  0.4516
   62MOL   C18219824   3.135   4.614   1.357  0.5225  0.3979 -0.8796
   62MOL  Cl18319825   3.141   4.777   1.427 -0.1132  0.0360 -0.0416
   62MOL   C18419826   3.241   4.524   1.373  0.2010 -0.8451  0.1203
   62MOL   C18519827   3.243   4.396   1.319  0.4401  0.2453 -0.5745
   62MOL   C18619828   3.261   4.187   1.102 -0.1323 -0.5670  0.0482
   62MOL   H18719829   3.044   4.206   1.117  0.8110 -1.9580  0.0303
   62MOL   H18819830   2.921   4.398   1.208  0.3792  0.8623 -1.0919
   62MOL   H18919831   2.935   4.637   1.274  0.3337  0.0625  1.0414
   62MOL   H19019832   3.319   4.546   1.445  0.4328  0.4458 -0.5103
   62MOL   H19119833   3.326   4.330   1.343 -0.3744 -0.8764 -0.8159
   62MOL   H19219834   3.347   4.207   1.165 -0.5768 -1.3411  0.9131
   62MOL   H19319835   3.256   4.078   1.095  1.2922 -0.5035 -3.1125
   62MOL   C19419836   3.251   4.246   0.959  0.0659  0.0797  0.3965
   62MOL   C19519837   3.285   4.394   0.948  0.1388  0.1916  0.7114
   62MOL   C19619838   3.192   4.485   0.903 -0.0276  0.3407 -0.6756
   62MOL   C19719839   3.223   4.625   0.910 -0.2931 -0.7349  0.4097
   62MOL   C19819840   3.349   4.667   0.957  0.8267  0.5058  0.1777
   62MOL  Cl19919841   3.409   4.825   0.937 -0.3147  0.0059  0.0094
   62MOL   C20019842   3.447   4.568   0.980 -0.3432  0.5960  0.0630
   62MOL   C20119843   3.412   4.430   0.992 -0.2295  0.0023  0.5353
   62MOL   C20219844   3.335   4.161   0.868  0.5399  0.3416  0.6354
   62MOL   H20319845   3.150   4.235   0.922 -1.2269  2.2131  3.1334
   62MOL   H20419846   3.095   4.460   0.864  0.4717 -0.0860 -1.6564
   62MOL   H20519847   3.153   4.701   0.879  0.2879 -0.2924  0.1725
   62MOL   H20619848   3.548   4.597   1.004 -0.2455  0.5499 -0.2825
   62MOL   H20719849   3.481   4.357   1.031  0.7251 -1.3276 -3.4033
   62MOL   H20819850   3.440   4.186   0.882  0.9084 -0.7401 -0.1175
   62MOL   H20919851   3.342   4.057   0.902 -0.2078  0.1776  0.2981
   62MOL   C21019852   3.278   4.161   0.721 -0.3590  0.7246  0.0969
   62MOL   C21119853   3.320   4.286   0.643  0.0850 -0.8340 -0.1992
   62MOL   C21219854   3.220   4.335   0.554 -0.4196 -0.5436  0.4360
   62MOL   C21319855   3.253   4.442   0.472  0.4542  0.7046 -0.6241
   62MOL   C21419856   3.379   4.504   0.477 -0.5710  0.4332  0.7150
   62MOL  Cl21519857   3.423   4.644   0.377  0.0240  0.1306  0.1236
   62MOL   C21619858   3.468   4.469   0.575  0.3659  0.1327  0.3447
   62MOL   C21719859   3.444   4.357   0.650 -0.1181 -0.0180  0.4932
   62MOL   C21819860   3.319   4.034   0.651 -0.4018 -0.1321 -0.3858
   62MOL   H21919861   3.170   4.155   0.727 -0.4283  0.2355 -1.4358
   62MOL   H22019862   3.123   4.288   0.548 -0.5754 -0.0813 -0.9332
   62MOL   H22119863   3.179   4.476   0.402  1.4483  1.4214 -1.3429
   62MOL   H22219864   3.555   4.531   0.592 -0.0292  0.9327 -0.5428
   62MOL   H22319865   3.509   4.331   0.732  0.7657  0.3034 -0.1007
   62MOL   H22419866   3.342   4.057   0.547 -0.2866 -4.2037 -1.3184
   62MOL   H22519867   3.416   4.011   0.697 -1.1669  0.0003  1.3577
   62MOL   C22619868   3.219   3.914   0.686 -0.5712 -0.4516 -0.1724
   62MOL   C22719869   3.078   3.922   0.618 -0.0972  0.7154 -0.5731
   62MOL   C22819870   2.974   3.851   0.675  0.2456 -0.2746  0.1210
   62MOL   C22919871   2.845   3.851   0.616 -0.9843  0.5897  0.1091
   62MOL   C23019872   2.818   3.923   0.499 -0.4674 -0.8187  0.5222
   62MOL  Cl23119873   2.660   3.919   0.427 -0.0640 -0.1580  0.0664
   62MOL   C23219874   2.923   4.008   0.446 -0.3268  0.2578 -0.5960
   62MOL   C23319875   3.053   4.000   0.502  0.5331 -0.3082  0.2560
   62MOL   C23419876   3.276   3.779   0.654 -0.2060  0.1187  0.0741
   62MOL   H23519877   3.199   3.913   0.794  0.9086  3.0047  0.2026
   62MOL   H23619878   2.995   3.800   0.768 -0.2514 -0.6762  0.0160
   62MOL   H23719879   2.774   3.782   0.658  0.7417 -1.2756  0.0361
   62MOL   H23819880   2.904   4.066   0.356  0.4012 -0.7183 -1.3896
   62MOL   H23919881   3.127   4.059   0.450 -0.2269 -0.8785 -1.5287
   62MOL   H24019882   3.203   3.699   0.649 -0.7619  0.7086 -1.6882
   62MOL   H24119883   3.324   3.779   0.556  1.1141  0.6349  0.7082
   62MOL   C24219884   3.385   3.740   0.756 -0.1553 -0.8796 -0.4246
   62MOL   C24319885   3.333   3.716   0.897  0.2365  0.6754 -0.1796
   62MOL   C24419886   3.230   3.622   0.920  0.1232  0.2244 -0.0523
   62MOL   C24519887   3.178   3.618   1.052  0.3158  0.1609  0.4928
   62MOL   C24619888   3.231   3.697   1.155  0.1286 -0.1117  0.3036
   62MOL  Cl24719889   3.166   3.685   1.311 -0.2423  0.1104 -0.2901
   62MOL   C24819890   3.343   3.779   1.129 -0.0927 -0.0086  0.3034
   62MOL   C24919891   3.398   3.782   1.004  0.2282 -0.8077  0.2892
   62MOL   C25019892   3.471   3.618   0.720 -0.1836 -0.0058  0.4749
   62MOL   H25119893   3.462   3.818   0.758  1.9118 -2.8712 -0.4531
   62MOL   H25219894   3.195   3.560   0.839  0.2128  2.3643 -1.7770
   62MOL   H25319895   3.104   3.546   1.084 -1.2587  1.4985 -0.0248
   62MOL   H25419896   3.378   3.838   1.213  0.8084 -0.2381  0.0818
   62MOL   H25519897   3.487   3.834   0.974 -0.6806 -0.0791 -1.1809
   62MOL   H25619898   3.557   3.619   0.788  0.4523  0.7401 -0.3280
   62MOL   H25719899   3.419   3.523   0.734  0.8401 -0.3839  1.8143
   62MOL   C25819900   3.538   3.624   0.583  0.4075 -0.5444  0.2005
   62MOL   C25919901   3.607   3.757   0.548 -0.5721 -0.2529  0.0975
   62MOL   C26019902   3.552   3.839   0.450  0.3056  0.0895  0.0654
   62MOL   C26119903   3.610   3.965   0.417  0.4864  0.4346 -0.2926
   62MOL   C26219904   3.727   4.003   0.477 -0.0057  0.3297 -0.3931
   62MOL  Cl26319905   3.790   4.163   0.463 -0.0791 -0.0822 -0.1418
   62MOL   C26419906   3.791   3.922   0.576 -0.1915 -0.8078  0.4809
   62MOL   C26519907   3.728   3.801   0.614  0.6255  0.8645  0.3997
   62MOL   C26619908   3.628   3.501   0.566  0.3434 -0.2300  0.2411
   62MOL   H26719909   3.455   3.610   0.513  0.7720 -0.6938 -0.2012
   62MOL   H26819910   3.467   3.797   0.398  1.8262 -1.6691 -1.0691
   62MOL   H26919911   3.563   4.026   0.341 -0.1748  0.4696  0.1511
   62MOL   H27019912   3.877   3.958   0.630  0.7749 -0.2372 -1.3774
   62MOL   H27119913   3.763   3.729   0.686  0.8178  1.4035  0.8463
   62MOL   H27219914   3.714   3.540   0.513 -2.5531  2.0660 -2.9985
   62MOL   H27319915   3.659   3.458   0.662 -1.0471 -1.7690  0.0315
   62MOL   C27419916   3.558   3.385   0.495 -0.2948  0.1123  0.4451
   62MOL   C27519917   3.507   3.414   0.355  0.0875  0.6764 -0.0703
   62MOL   C27619918   3.378   3.377   0.309  0.3159  0.3531  0.1108
   62MOL   C27719919   3.328   3.403   0.179  0.8345  0.0861 -0.0371
   62MOL   C27819920   3.416   3.475   0.095  0.5306 -0.0812 -0.0139
   62MOL  Cl27919921   3.364   3.507   8.380 -0.0025 -0.1098 -0.0074
   62MOL   C28019922   3.540   3.524   0.141 -0.1285  0.0799 -0.5954
   62MOL   C28119923   3.587   3.484   0.266 -0.5124  0.4802  0.2109
   62MOL   C28219924   3.651   3.266   0.490  0.2755  0.1651 -0.3590
   62MOL   H28319925   3.476   3.356   0.561 -0.0522 -1.7236 -0.0313
   62MOL   H28419926   3.310   3.307   0.358 -0.2582 -0.5356 -1.8917
   62MOL   H28519927   3.234   3.367   0.140  0.7130  0.8090 -0.4284
   62MOL   H28619928   3.605   3.582   0.078  1.9938 -0.9212  0.6119
   62MOL   H28719929   3.688   3.513   0.290 -0.6675  2.0269 -0.9702
   62MOL   H28819930   3.605   3.189   0.428  0.6414  0.4977 -1.0497
   62MOL   H28919931   3.739   3.299   0.436  0.4359 -0.6244 -0.5894
   62MOL   C29019932   3.709   3.206   0.626 -0.0905  0.6667 -0.3603
   62MOL   C29119933   3.603   3.206   0.742  0.7872  0.2494  0.7536
   62MOL   C29219934   3.633   3.270   0.864 -0.4906 -0.2658  0.2215
   62MOL   C29319935   3.533   3.296   0.963 -0.6709 -0.0549  0.2019
   62MOL   C29419936   3.402   3.244   0.937  0.4439  0.0928  0.2556
   62MOL  Cl29519937   3.284   3.261   1.058  0.0877 -0.5096 -0.1509
   62MOL   C29619938   3.378   3.171   0.820  0.0998 -0.3333  0.2441
   62MOL   C29719939   3.472   3.153   0.721  0.0948 -0.0212  0.0639
   62MOL   C29819940   3.773   3.073   0.594  0.2381  0.4707 -0.1168
   62MOL   H29919941   3.789   3.272   0.660  1.1532 -0.5805 -0.8513
   62MOL   H30019942   3.732   3.311   0.875 -1.1463  1.6482 -0.9634
   62MOL   H30119943   3.566   3.351   1.051  0.5992 -0.9865  0.3299
   62MOL   H30219944   3.278   3.132   0.811 -0.5120  1.0881  0.7760
   62MOL   H30319945   3.440   3.097   0.634  0.1829 -0.2398  0.1751
   62MOL   H30419946   3.691   3.015   0.552 -0.5810  1.4598  0.0898
   62MOL   H30519947   3.848   3.062   0.515  1.7989  0.4748  1.3294
   62MOL   C30619948   3.824   3.003   0.723 -0.0484 -0.1057 -0.4910
   62MOL   C30719949   3.831   2.855   0.704  0.1996 -0.6298  0.5018
   62MOL   C30819950   3.941   2.786   0.656 -0.0898  0.2584 -0.0206
   62MOL   C30919951   3.936   2.644   0.656 -0.1813  0.2961 -0.3567
   62MOL   C31019952   3.825   2.573   0.693 -0.6501  0.9396 -0.2805
   62MOL  Cl31119953   3.811   2.397   0.688 -0.1048  0.1903  0.7634
   62MOL   C31219954   3.716   2.645   0.740 -0.1767 -0.0100 -0.2257
   62MOL   C31319955   3.714   2.783   0.734 -0.1288 -0.1180 -0.0959
   62MOL   C31419956   3.956   3.058   0.772 -0.5315  0.5767  0.4087
   62MOL   H31519957   3.753   3.023   0.803 -1.2848 -1.0277 -1.3158
   62MOL   H31619958   4.023   2.845   0.617 -0.2163  0.2625 -0.2768
   62MOL   H31719959   4.019   2.589   0.613  0.5551  2.4311 -1.7305
   62MOL   H31819960   3.627   2.598   0.779 -0.9675  0.5215 -1.3563
   62MOL   H31919961   3.640   2.847   0.779 -1.5261 -0.7229 -1.5254
   62MOL   H32019962   3.951   3.164   0.800 -0.4293  0.6945 -0.0052
   62MOL   H32119963   3.979   2.993   0.856 -0.3032  1.1563  0.8029
   62MOL   H32219964   4.040   3.044   0.703 -0.2824 -0.2638  0.8774
   63MOL     C119965   4.737   5.896   0.385 -0.0138  0.9324 -0.1309
   63MOL     C219966   4.736   6.022   0.291 -0.1609 -0.1735  0.0080
   63MOL     C319967   4.848   6.087   0.243  0.6288  0.1574 -0.9208
   63MOL     C419968   4.841   6.207   0.161 -0.1516  0.6934 -0.4758
   63MOL     C519969   4.716   6.258   0.121 -0.0795 -0.2384  0.5339
   63MOL    Cl619970   4.706   6.383   0.011  0.3066  0.0086  0.1632
   63MOL     C719971   4.602   6.180   0.153  0.0495  0.2328  0.6045
   63MOL     C819972   4.613   6.078   0.249  0.5726 -0.1441  0.7184
   63MOL     C919973   4.677   5.773   0.312  0.0659  0.3230 -0.6540
   63MOL    H1019974   4.671   5.921   0.468 -2.9752 -1.3229 -1.7102
   63MOL    H1119975   4.948   6.056   0.270  0.9914  3.4636  1.8744
   63MOL    H1219976   4.932   6.258   0.134 -1.0628  1.9425 -1.2279
   63MOL    H1319977   4.501   6.204   0.126  0.1828 -3.7669 -4.0752
   63MOL    H1419978   4.521   6.044   0.295  0.7209 -0.7914  0.5305
   63MOL    H1519979   4.582   5.800   0.266  0.8968  1.1559 -1.9009
   63MOL    H1619980   4.745   5.736   0.236 -0.3207  1.0517 -1.3528
   63MOL    H1719981   4.834   5.869   0.425 -1.2190 -1.5191  1.2299
   63MOL    C1819982   4.647   5.657   0.405  0.0390  0.4394  0.2359
   63MOL    C1919983   4.552   5.698   0.521 -0.2725 -0.4596  0.5780
   63MOL    C2019984   4.600   5.694   0.652 -0.1293  0.0424 -0.4614
   63MOL    C2119985   4.507   5.701   0.763  0.6066 -0.4704 -0.4741
   63MOL    C2219986   4.373   5.738   0.735  0.6180 -0.1486  0.1442
   63MOL   Cl2319987   4.251   5.752   0.864 -0.2710  0.6171 -0.3060
   63MOL    C2419988   4.332   5.761   0.601 -0.4799  0.1380 -0.4720
   63MOL    C2519989   4.420   5.740   0.492  0.2345  0.1884 -0.2680
   63MOL    C2619990   4.589   5.548   0.310 -0.0813  0.1330 -0.3318
   63MOL    H2719991   4.740   5.617   0.447 -0.8984 -1.9484  0.1401
   63MOL    H2819992   4.707   5.685   0.665 -0.6474 -3.9481  2.2312
   63MOL    H2919993   4.558   5.694   0.857  0.7323 -1.5098 -0.6151
   63MOL    H3019994   4.231   5.793   0.580 -0.7756 -0.0159  0.6912
   63MOL    H3119995   4.389   5.757   0.390 -1.5914  2.3857  0.6102
   63MOL    H3219996   4.503   5.581   0.252 -0.5246 -1.4793 -0.6224
   63MOL    H3319997   4.664   5.533   0.233 -1.6573  2.3553 -2.3559
   63MOL    C3419998   4.556   5.411   0.378 -0.1322  0.3952  0.2525
   63MOL    C3519999   4.427   5.421   0.462 -0.5713  0.3231  0.4925
   63MOL    C3620000   4.307   5.447   0.398  0.1369  0.6200  0.5707
   63MOL    C3720001   4.188   5.455   0.473  0.4234 -0.0262  0.1041
   63MOL    C3820002   4.195   5.448   0.611  0.0863 -0.2492 -0.1204
   63MOL   Cl3920003   4.049   5.479   0.691 -0.1537 -0.0451 -0.3298
   63MOL    C4020004   4.318   5.418   0.680  0.0674 -0.4883 -0.0697
   63MOL    C4120005   4.438   5.408   0.600  0.6075  0.1837 -0.4416
   63MOL    C4220006   4.528   5.291   0.278  0.2478  0.2894 -0.0006
   63MOL    H4320007   4.641   5.389   0.443 -0.1616  2.3723  0.9674
   63MOL    H4420008   4.306   5.455   0.290  1.6227  0.2964  0.5203
   63MOL    H4520009   4.099   5.463   0.412  1.4308  0.3428 -1.3324
   63MOL    H4620010   4.319   5.402   0.787  1.2912  0.0632  0.0105
   63MOL    H4720011   4.534   5.399   0.649  0.1044 -0.9261  0.3549
   63MOL    H4820012   4.485   5.204   0.326  0.5134 -0.1557 -0.5646
   63MOL    H4920013   4.454   5.324   0.205 -0.1910 -0.5626  0.0599
   63MOL    C5020014   4.651   5.240   0.201  0.8878  0.0120 -0.1597
   63MOL    C5120015   4.780   5.225   0.283  0.4795 -0.5655 -0.3615
   63MOL    C5220016   4.896   5.296   0.245  0.5703  0.3707  1.0410
   63MOL    C5320017   5.019   5.291   0.317 -0.0525 -0.2564 -0.4806
   63MOL    C5420018   5.030   5.203   0.430  0.7980  0.0735 -0.5051
   63MOL   Cl5520019   5.181   5.175   0.514 -0.0582 -0.4288 -0.1488
   63MOL    C5620020   4.914   5.130   0.464 -0.1483 -1.0216 -0.5065
   63MOL    C5720021   4.792   5.145   0.398 -0.1325 -0.2507 -0.3102
   63MOL    C5820022   4.615   5.115   0.127 -0.2590  0.7000 -0.2163
   63MOL    H5920023   4.673   5.322   0.133 -2.4515  2.1997  1.3195
   63MOL    H6020024   4.893   5.351   0.152 -0.6629  1.3415  1.6516
   63MOL    H6120025   5.104   5.342   0.273  0.4002 -1.2859 -0.8191
   63MOL    H6220026   4.925   5.064   0.550  1.6251  0.5606  0.5165
   63MOL    H6320027   4.712   5.079   0.428 -0.6558 -1.2074 -3.6093
   63MOL    H6420028   4.601   5.042   0.206  1.5852  0.4847 -0.0621
   63MOL    H6520029   4.520   5.128   0.075  0.8706  1.0719 -2.2606
   63MOL    C6620030   4.714   5.056   0.026 -0.3675  0.4447 -1.0287
   63MOL    C6720031   4.676   4.911   8.434  0.8786  0.2263  0.1612
   63MOL    C6820032   4.774   4.814   0.010 -0.3150 -0.2872  0.0584
   63MOL    C6920033   4.749   4.681   8.421 -0.2749 -0.3643  0.3028
   63MOL    C7020034   4.624   4.637   8.372 -0.2462 -0.7566 -0.4483
   63MOL   Cl7120035   4.593   4.477   8.355  0.0216  0.1415 -0.0085
   63MOL    C7220036   4.523   4.734   8.344 -0.4709  0.4898  0.2761
   63MOL    C7320037   4.553   4.868   8.376 -0.3451  0.3883  0.6790
   63MOL    C7420038   4.729   5.145   8.342  0.1148  0.0490 -0.1105
   63MOL    H7520039   4.809   5.049   0.079 -0.8954 -0.7106 -0.2159
   63MOL    H7620040   4.875   4.841   0.036 -1.0187  1.5852  0.8972
   63MOL    H7720041   4.832   4.613   8.434 -0.9794 -1.2164  0.3791
   63MOL    H7820042   4.426   4.701   8.309 -0.3513 -0.7218  1.0342
   63MOL    H7920043   4.480   4.946   8.361  0.5745  0.8875 -1.2687
   63MOL    H8020044   4.642   5.132   8.278  0.0501  1.1859 -0.2658
   63MOL    H8120045   4.725   5.248   8.379  1.6181  0.0992 -0.0796
   63MOL    C8220046   4.857   5.126   8.261  0.6244 -0.3382  0.1209
   63MOL    C8320047   4.867   4.988   8.184  0.2657 -0.0384  0.0231
   63MOL    C8420048   4.986   4.915   8.184 -0.0945  0.5156  0.2986
   63MOL    C8520049   4.999   4.803   8.107 -0.4833  0.9066  0.6539
   63MOL    C8620050   4.895   4.752   8.028 -0.1341 -0.3944 -0.0041
   63MOL   Cl8720051   4.917   4.617   7.921 -0.0100  0.0609  0.0831
   63MOL    C8820052   4.772   4.824   8.030 -0.3828  0.5082 -0.1640
   63MOL    C8920053   4.757   4.942   8.107  0.4048 -0.1275  0.4003
   63MOL    C9020054   4.879   5.243   8.167 -0.4281 -0.2569  0.3145
   63MOL    H9120055   4.940   5.125   8.333 -0.3134 -0.9507  1.2041
   63MOL    H9220056   5.067   4.950   8.247  0.8095 -2.5216  0.8752
   63MOL    H9320057   5.096   4.754   8.111 -1.4693 -1.2457 -0.8805
   63MOL    H9420058   4.695   4.791   7.961  0.2838 -1.8906  0.1977
   63MOL    H9520059   4.663   4.994   8.099 -1.3008 -2.9053  1.6760
   63MOL    H9620060   4.802   5.233   8.090 -0.4517  1.4350  0.1100
   63MOL    H9720061   4.862   5.338   8.218  2.8994  0.7438 -0.3571
   63MOL    C9820062   5.015   5.247   8.097 -0.3031  0.0517 -0.0939
   63MOL    C9920063   5.001   5.330   7.974  0.5979 -0.6323  0.6082
   63MOL   C10020064   5.028   5.269   7.847  0.3129  0.1025 -0.5335
   63MOL   C10120065   4.996   5.342   7.731 -0.4723  0.3704  0.2557
   63MOL   C10220066   4.944   5.473   7.741  0.0905 -0.8144 -0.4301
   63MOL  Cl10320067   4.889   5.542   7.589  0.5473  0.0213  0.2386
   63MOL   C10420068   4.928   5.536   7.863 -0.3765  0.4562 -0.3078
   63MOL   C10520069   4.952   5.463   7.979  0.2698  0.0007 -0.3375
   63MOL   C10620070   5.127   5.308   8.194 -0.0766  0.9431  0.8190
   63MOL   H10720071   5.037   5.148   8.059 -0.3484 -0.1996  0.5322
   63MOL   H10820072   5.071   5.171   7.836 -1.5746 -0.7801 -0.2261
   63MOL   H10920073   5.021   5.290   7.640 -0.0142 -0.4522  0.8352
   63MOL   H11020074   4.876   5.630   7.865  0.1510  0.7376  1.3649
   63MOL   H11120075   4.932   5.496   8.079 -0.1191 -1.8687  0.2277
   63MOL   H11220076   5.140   5.415   8.176 -1.3328  0.5410 -2.7709
   63MOL   H11320077   5.091   5.298   8.297 -3.0319 -0.0226 -0.2628
   63MOL   C11420078   5.266   5.255   8.161  0.2676 -0.2595 -0.9102
   63MOL   C11520079   5.323   5.280   8.018 -0.3382  0.4033 -0.2279
   63MOL   C11620080   5.346   5.412   7.985  0.0888 -0.1964  0.2439
   63MOL   C11720081   5.413   5.431   7.862  0.2124 -0.0430  0.6029
   63MOL   C11820082   5.452   5.325   7.776  0.5298 -0.3332 -0.6542
   63MOL  Cl11920083   5.513   5.350   7.617 -0.1728 -0.2352  0.1244
   63MOL   C12020084   5.430   5.193   7.815  0.6566  0.4256 -0.2384
   63MOL   C12120085   5.359   5.171   7.934  0.2533  0.4857 -0.7058
   63MOL   C12220086   5.369   5.305   8.269 -0.1575 -0.2178  0.1941
   63MOL   H12320087   5.264   5.146   8.169  0.3950 -0.1388  1.1613
   63MOL   H12420088   5.314   5.494   8.047 -2.2351  0.2127 -1.4027
   63MOL   H12520089   5.447   5.528   7.827 -1.9413  0.3950 -0.3530
   63MOL   H12620090   5.463   5.120   7.743 -0.3563  1.3570 -1.6682
   63MOL   H12720091   5.339   5.069   7.963 -3.3819  2.0326  2.6590
   63MOL   H12820092   5.469   5.267   8.245 -0.1976 -1.4692  1.8896
   63MOL   H12920093   5.371   5.413   8.254 -2.9034 -0.6183 -3.5927
   63MOL   C13020094   5.348   5.260   8.415 -0.1374 -0.5643  0.2179
   63MOL   C13120095   5.310   5.111   8.436 -0.3777  0.0764  0.2452
   63MOL   C13220096   5.191   5.063   0.055 -0.4479 -0.4932 -0.3908
   63MOL   C13320097   5.164   4.930   0.078  0.0272 -0.2000 -1.0119
   63MOL   C13420098   5.258   4.832   0.046 -0.2452  0.0071 -0.7166
   63MOL  Cl13520099   5.208   4.671   0.070  0.1675 -0.3376 -0.1111
   63MOL   C13620100   5.381   4.872   8.430  0.6831  0.8295 -0.2455
   63MOL   C13720101   5.405   5.011   8.399 -0.1825 -0.2170  0.0031
   63MOL   C13820102   5.454   5.303   0.076 -0.1334  0.2891 -0.1307
   63MOL   H13920103   5.262   5.314   0.010  1.0246  0.7777  0.9667
   63MOL   H14020104   5.119   5.137   0.089 -1.0843 -1.5863  0.6729
   63MOL   H14120105   5.071   4.916   0.130  2.2014 -0.3978  3.0291
   63MOL   H14220106   5.454   4.799   8.397 -0.8693  0.0326 -1.9807
   63MOL   H14320107   5.499   5.035   8.350 -0.9487  0.2500 -1.2440
   63MOL   H14420108   5.443   5.272   0.179 -0.6470  2.3272  0.4603
   63MOL   H14520109   5.546   5.252   0.047 -1.0317 -0.3374 -2.0057
   63MOL   C14620110   5.475   5.455   0.071  0.0294 -1.0053 -0.0346
   63MOL   C14720111   5.347   5.538   0.101  0.0585  0.2187  0.4153
   63MOL   C14820112   5.287   5.623   0.002 -0.1601  0.2129 -0.0553
   63MOL   C14920113   5.178   5.707   0.031  0.2952  0.4846 -0.1821
   63MOL   C15020114   5.123   5.703   0.166 -0.2794  0.4956 -0.1731
   63MOL  Cl15120115   5.000   5.801   0.224 -0.0108  0.0020  0.0087
   63MOL   C15220116   5.179   5.608   0.259  0.6707 -0.2148 -0.0030
   63MOL   C15320117   5.291   5.528   0.228  0.4220 -0.5862 -0.1216
   63MOL   C15420118   5.597   5.501   0.161  0.3062 -0.0142 -0.5329
   63MOL   H15520119   5.499   5.478   8.410 -1.5995  0.1913 -0.1710
   63MOL   H15620120   5.330   5.624   8.346  1.4854 -0.1211  0.6396
   63MOL   H15720121   5.134   5.777   8.404 -0.2145 -0.9882 -1.3624
   63MOL   H15820122   5.140   5.608   0.360  0.6393 -1.6997 -0.0075
   63MOL   H15920123   5.326   5.460   0.304  0.7446 -0.0113  0.2488
   63MOL   H16020124   5.587   5.606   0.132 -1.0311  0.0777  0.2104
   63MOL   H16120125   5.574   5.490   0.267 -0.4243 -2.8448 -0.9489
   63MOL   C16220126   5.739   5.452   0.117 -0.2950  0.4623 -0.3165
   63MOL   C16320127   5.745   5.434   8.410 -0.3800 -0.5302 -0.5481
   63MOL   C16420128   5.728   5.547   8.327  0.4507  0.5414 -0.0955
   63MOL   C16520129   5.732   5.534   8.184  0.2771  0.0455 -0.1769
   63MOL   C16620130   5.753   5.403   8.132  0.4899 -0.4475 -0.2428
   63MOL  Cl16720131   5.763   5.397   7.957  0.4031 -0.1139 -0.1386
   63MOL   C16820132   5.768   5.289   8.216 -0.4212  0.3005  0.4797
   63MOL   C16920133   5.767   5.310   8.356  1.0214 -0.7418  1.0941
   63MOL   C17020134   5.867   5.523   0.173 -0.5499 -0.0795 -0.3899
   63MOL   H17120135   5.748   5.349   0.150 -0.3608  0.8296  0.8800
   63MOL   H17220136   5.716   5.644   8.374 -2.9753 -0.7360  1.8745
   63MOL   H17320137   5.723   5.620   8.119  0.6753 -0.6984 -1.2495
   63MOL   H17420138   5.780   5.194   8.167  2.3394  1.1296 -0.5823
   63MOL   H17520139   5.770   5.218   8.414 -0.5099 -0.3555  1.8194
   63MOL   H17620140   5.956   5.467   0.146 -0.7188 -0.8565  0.6147
   63MOL   H17720141   5.872   5.621   0.126  0.2805  0.6376  1.1440
   63MOL   C17820142   5.866   5.536   0.332 -1.1792 -0.4616 -0.0456
   63MOL   C17920143   5.902   5.403   0.401  0.6012 -0.7733  0.7248
   63MOL   C18020144   5.798   5.331   0.454 -0.8446 -0.4037 -0.4167
   63MOL   C18120145   5.823   5.211   0.520 -0.0129  0.2549  0.2627
   63MOL   C18220146   5.956   5.162   0.523 -0.2259 -0.5027  0.1228
   63MOL  Cl18320147   5.992   5.002   0.579  0.2499 -0.2094  0.2821
   63MOL   C18420148   6.060   5.228   0.462  0.0408  0.7474 -0.1991
   63MOL   C18520149   6.033   5.351   0.403 -0.3758  0.3372  0.1032
   63MOL   C18620150   5.948   5.653   0.392  0.9303 -0.1184 -0.1499
   63MOL   H18720151   5.762   5.557   0.359 -1.1868  1.1595 -1.2522
   63MOL   H18820152   5.697   5.369   0.443 -0.6659 -0.2670 -1.6310
   63MOL   H18920153   5.747   5.151   0.568 -0.2136  1.0406  0.9399
   63MOL   H19020154   6.155   5.176   0.461 -1.3392 -1.8005 -0.9707
   63MOL   H19120155   6.112   5.413   0.363  0.4633 -0.7679  0.0198
   63MOL   H19220156   5.951   5.626   0.497  1.1261  1.2339  0.1968
   63MOL   H19320157   6.052   5.658   0.359  0.7218 -1.1407 -1.0139
   63MOL   C19420158   5.889   5.794   0.369  0.0885 -1.1083  0.7170
   63MOL   C19520159   5.848   5.861   0.499  0.2140 -0.7125 -0.5576
   63MOL   C19620160   5.951   5.878   0.595 -0.2716  0.1626  0.5908
   63MOL   C19720161   5.923   5.952   0.714 -0.5309 -0.0267  0.0742
   63MOL   C19820162   5.791   5.990   0.750 -0.4097  0.6939 -0.2481
   63MOL  Cl19920163   5.761   6.075   0.897 -0.3541 -0.0584  0.0875
   63MOL   C20020164   5.690   5.971   0.647 -0.5677  0.2475  0.3854
   63MOL   C20120165   5.719   5.911   0.524  0.0663  0.6461 -0.1820
   63MOL   C20220166   5.975   5.881   0.276  0.9444 -0.0091  0.3256
   63MOL   H20320167   5.796   5.764   0.321  0.0382  1.1542 -0.6851
   63MOL   H20420168   6.050   5.841   0.576  0.3535  2.1233 -0.1446
   63MOL   H20520169   5.999   5.972   0.788  0.5677 -1.9604 -0.5192
   63MOL   H20620170   5.587   5.989   0.671 -0.0780  0.8695  2.0872
   63MOL   H20720171   5.646   5.884   0.450  1.3261 -1.3434 -0.7319
   63MOL   H20820172   6.054   5.912   0.344  0.0203 -1.2309  1.9996
   63MOL   H20920173   6.008   5.819   0.193 -0.8537 -0.8928  0.2513
   63MOL   C21020174   5.889   5.999   0.216  0.1166  0.0223 -0.4330
   63MOL   C21120175   5.984   6.112   0.192 -0.5238  0.1006 -0.6824
   63MOL   C21220176   6.085   6.102   0.091  0.3055  0.4768 -0.7751
   63MOL   C21320177   6.155   6.219   0.060 -0.1843 -0.1584  0.0659
   63MOL   C21420178   6.121   6.343   0.116 -0.1483  0.0922  0.4687
   63MOL  Cl21520179   6.210   6.486   0.067  0.3228  0.1404  0.1603
   63MOL   C21620180   6.029   6.347   0.223  0.1831  0.7970  0.1188
   63MOL   C21720181   5.963   6.233   0.266 -0.4702  0.1733 -0.3213
   63MOL   C21820182   5.814   5.959   0.083 -0.4876  0.2339 -0.5441
   63MOL   H21920183   5.815   6.035   0.287  2.1281  1.4042  1.0447
   63MOL   H22020184   6.115   6.009   0.045 -1.2186 -1.5351  2.1626
   63MOL   H22120185   6.236   6.217   8.432 -2.0489  0.2553 -2.1628
   63MOL   H22220186   5.998   6.443   0.262 -2.6782 -0.7827  1.8562
   63MOL   H22320187   5.879   6.248   0.333 -0.0659  1.5441 -0.1212
   63MOL   H22420188   5.881   5.900   0.020 -1.3072  0.3171 -1.5049
   63MOL   H22520189   5.740   5.887   0.117 -0.4926  0.3742 -0.2603
   63MOL   C22620190   5.733   6.062   8.441  0.3186 -0.2900 -0.1254
   63MOL   C22720191   5.671   6.013   8.310 -0.0884 -0.1246 -0.2977
   63MOL   C22820192   5.602   5.887   8.311 -1.2695  0.4512 -0.8405
   63MOL   C22920193   5.545   5.839   8.191 -0.2173  0.1692  0.5779
   63MOL   C23020194   5.560   5.905   8.070  0.2962  0.3692  0.1852
   63MOL  Cl23120195   5.511   5.827   7.920  0.1524  0.1866 -0.0089
   63MOL   C23220196   5.625   6.031   8.065  0.0804 -0.2366  0.3445
   63MOL   C23320197   5.680   6.084   8.184 -0.3203 -0.5459 -0.3202
   63MOL   C23420198   5.622   6.122   0.078  0.4408 -0.0536  0.1029
   63MOL   H23520199   5.806   6.138   8.414  2.4865 -2.6590 -1.2123
   63MOL   H23620200   5.592   5.826   8.400  1.1182 -0.4489 -1.1521
   63MOL   H23720201   5.502   5.740   8.194 -2.0694  0.8269 -1.9854
   63MOL   H23820202   5.636   6.079   7.969 -0.3240 -1.8222 -0.5219
   63MOL   H23920203   5.736   6.176   8.181 -0.1129 -0.6847 -0.8885
   63MOL   H24020204   5.521   6.094   0.048 -0.3276  1.2135  1.4654
   63MOL   H24120205   5.624   6.075   0.176  0.6983 -1.3602 -0.5156
   63MOL   C24220206   5.624   6.273   0.088  0.1525  0.0989 -0.4273
   63MOL   C24320207   5.603   6.336   8.393 -0.4730 -0.2582  0.5975
   63MOL   C24420208   5.473   6.355   8.336 -0.8010 -0.1127 -0.0535
   63MOL   C24520209   5.458   6.422   8.212  0.9602  0.2622 -0.0267
   63MOL   C24620210   5.568   6.471   8.145 -0.0284 -0.2462  0.0985
   63MOL  Cl24720211   5.543   6.554   7.997  0.2013 -0.0760 -0.1623
   63MOL   C24820212   5.697   6.458   8.199 -1.2073 -0.3183 -0.0596
   63MOL   C24920213   5.712   6.399   8.326 -0.0431 -0.1841  0.6967
   63MOL   C25020214   5.533   6.318   0.198 -0.3726  0.4980 -0.1359
   63MOL   H25120215   5.726   6.289   0.125  0.1316 -0.1208 -0.2679
   63MOL   H25220216   5.386   6.328   8.394 -1.5053 -0.4609 -1.2498
   63MOL   H25320217   5.358   6.416   8.172  2.0094 -1.2729 -2.6344
   63MOL   H25420218   5.787   6.492   8.150 -1.5385 -0.4387 -0.7656
   63MOL   H25520219   5.810   6.393   8.369 -0.6274  2.4106  2.4796
   63MOL   H25620220   5.427   6.310   0.175 -0.4306 -0.4904  0.4766
   63MOL   H25720221   5.543   6.248   0.281  1.9036  0.7017 -0.2133
   63MOL   C25820222   5.549   6.456   0.266 -0.2944 -0.2737 -0.2522
   63MOL   C25920223   5.542   6.572   0.161 -0.0979  1.3886  0.0749
   63MOL   C26020224   5.419   6.609   0.102  0.0389 -1.5011  0.6933
   63MOL   C26120225   5.421   6.711   0.001  0.8906 -0.0186  0.4934
   63MOL   C26220226   5.539   6.774   8.411 -0.5956 -0.3966  0.1283
   63MOL  Cl26320227   5.535   6.904   8.300 -0.1720 -0.2229  0.1977
   63MOL   C26420228   5.661   6.730   0.022  0.3526  0.1065  0.3285
   63MOL   C26520229   5.662   6.635   0.125  0.2525  0.0496  0.0478
   63MOL   C26620230   5.437   6.479   0.376 -0.0556  0.2986 -0.0435
   63MOL   H26720231   5.649   6.463   0.308  0.0018  1.0786 -1.1852
   63MOL   H26820232   5.325   6.558   0.116 -1.2281  0.3095 -0.9940
   63MOL   H26920233   5.329   6.741   8.397 -0.1714 -1.8368  1.3768
   63MOL   H27020234   5.749   6.788   8.440 -0.0447  0.6486  0.1706
   63MOL   H27120235   5.751   6.599   0.175 -0.4430  2.6311  3.2905
   63MOL   H27220236   5.450   6.577   0.422  1.7545 -0.5135  1.1931
   63MOL   H27320237   5.338   6.471   0.329 -0.3438  0.9558  0.4407
   63MOL   C27420238   5.434   6.387   0.501  1.1510 -0.3782  0.6491
   63MOL   C27520239   5.568   6.399   0.573 -0.8448 -0.0569 -0.5227
   63MOL   C27620240   5.658   6.291   0.563 -0.5504  0.8345 -0.2706
   63MOL   C27720241   5.787   6.306   0.621 -0.5551  0.5077 -0.1911
   63MOL   C27820242   5.821   6.421   0.690 -0.2064 -0.0824  0.2054
   63MOL  Cl27920243   5.967   6.429   0.779 -0.0606  0.2228  0.3046
   63MOL   C28020244   5.727   6.523   0.709 -0.5144  0.3087  0.9450
   63MOL   C28120245   5.602   6.512   0.646  0.4485 -0.1137 -0.3372
   63MOL   C28220246   5.311   6.412   0.588  0.3453  0.5032 -0.7288
   63MOL   H28320247   5.414   6.288   0.460  0.0134  0.2456 -0.3539
   63MOL   H28420248   5.634   6.195   0.518  1.7512 -0.6390  1.4807
   63MOL   H28520249   5.851   6.220   0.627 -2.0196 -0.5462  0.6426
   63MOL   H28620250   5.755   6.598   0.782  1.9319 -0.7798  1.1724
   63MOL   H28720251   5.526   6.586   0.666  0.0819 -0.3410 -0.8789
   63MOL   H28820252   5.330   6.503   0.645 -1.8993  0.6181 -0.1102
   63MOL   H28920253   5.227   6.451   0.530  0.4375  1.9934  0.0951
   63MOL   C29020254   5.283   6.293   0.684  0.3933 -0.2006  0.8838
   63MOL   C29120255   5.336   6.319   0.820  0.4320  0.2931 -0.3132
   63MOL   C29220256   5.458   6.264   0.866 -0.1407  0.1434  0.3359
   63MOL   C29320257   5.496   6.281   1.004  0.1601  0.7442  0.4286
   63MOL   C29420258   5.420   6.367   1.083 -0.4857  0.4350 -0.2839
   63MOL  Cl29520259   5.474   6.405   1.246  0.0463 -0.0603 -0.1305
   63MOL   C29620260   5.308   6.434   1.033 -0.3965  0.4492  0.3709
   63MOL   C29720261   5.259   6.398   0.910  0.5350  0.5846  0.3826
   63MOL   C29820262   5.137   6.260   0.688  0.9010  0.5537  0.1322
   63MOL   H29920263   5.336   6.208   0.641 -1.3599 -1.1769  0.6174
   63MOL   H30020264   5.525   6.206   0.804 -0.7375  0.0168 -0.1891
   63MOL   H30120265   5.580   6.229   1.048  1.4629  0.4452 -2.2951
   63MOL   H30220266   5.260   6.505   1.100 -2.0161 -0.1386 -0.1409
   63MOL   H30320267   5.169   6.443   0.872 -0.2977 -1.3533 -0.0329
   63MOL   H30420268   5.127   6.183   0.765 -2.1104 -1.1850 -1.8748
   63MOL   H30520269   5.075   6.344   0.718 -3.4479 -2.9681  1.5943
   63MOL   C30620270   5.074   6.210   0.557 -0.1021  0.1227  0.0933
   63MOL   C30720271   5.161   6.115   0.484 -0.1456 -0.2729 -0.2738
   63MOL   C30820272   5.222   5.997   0.537  0.7349 -0.0784  0.0480
   63MOL   C30920273   5.308   5.912   0.462 -0.4719  0.3136 -0.4140
   63MOL   C31020274   5.338   5.946   0.330  0.6416 -0.1044 -0.8994
   63MOL  Cl31120275   5.457   5.847   0.252  0.2637 -0.0344  0.2393
   63MOL   C31220276   5.289   6.064   0.277  0.3716  0.3531  0.5728
   63MOL   C31320277   5.199   6.142   0.352  0.1233  0.9381  0.5892
   63MOL   C31420278   4.947   6.131   0.598  0.4795 -0.0906 -0.0148
   63MOL   H31520279   5.031   6.282   0.487  1.9267  1.5868  0.3161
   63MOL   H31620280   5.196   5.979   0.640  1.7411 -1.4965  0.0570
   63MOL   H31720281   5.353   5.829   0.515 -0.3673  1.4840  1.3941
   63MOL   H31820282   5.313   6.097   0.177 -0.5643  0.4983  0.3920
   63MOL   H31920283   5.163   6.237   0.316 -1.0938 -0.3475 -1.7133
   63MOL   H32020284   4.870   6.201   0.630 -1.6466 -1.1890 -2.4773
   63MOL   H32120285   4.903   6.081   0.511  2.9504 -0.8417 -0.8625
   63MOL   H32220286   4.963   6.056   0.675 -0.4424 -1.0163 -0.7132
   64MOL     C120287   6.251   1.357   6.808 -0.5248 -0.1401  0.5904
   64MOL     C220288   6.223   1.430   6.936 -0.2051 -0.3025  0.3306
   64MOL     C320289   6.198   1.356   7.053 -0.6721  0.0014 -0.3391
   64MOL     C420290   6.169   1.424   7.171 -0.3776  0.5423  0.1259
   64MOL     C520291   6.157   1.563   7.170 -0.9901  0.7594  0.5427
   64MOL    Cl620292   6.112   1.652   7.316 -0.1679 -0.2454 -0.1980
   64MOL     C720293   6.186   1.634   7.055  0.3753 -0.6550 -1.2392
   64MOL     C820294   6.213   1.572   6.931  0.3953  0.5554  0.2107
   64MOL     C920295   6.135   1.366   6.704 -1.0018  0.0423 -0.3155
   64MOL    H1020296   6.292   1.260   6.835  0.1660  0.7799  2.9756
   64MOL    H1120297   6.206   1.249   7.041  0.3703 -0.0021  0.3512
   64MOL    H1220298   6.148   1.363   7.258 -3.1574 -1.9575 -2.2039
   64MOL    H1320299   6.168   1.740   7.067  3.1503 -0.5433  3.0769
   64MOL    H1420300   6.231   1.630   6.841 -1.6868  1.0588  0.0839
   64MOL    H1520301   6.039   1.341   6.750 -0.0663 -0.5495  1.3501
   64MOL    H1620302   6.115   1.465   6.664 -1.5768  0.4193  0.8674
   64MOL    H1720303   6.335   1.411   6.764 -1.5565  0.0728 -1.1590
   64MOL    C1820304   6.168   1.269   6.587 -0.3971 -0.3595 -0.0928
   64MOL    C1920305   6.050   1.239   6.496  0.9901  0.8027 -0.3286
   64MOL    C2020306   5.961   1.343   6.459 -0.3319 -0.0890  0.3605
   64MOL    C2120307   5.848   1.306   6.383  0.0422 -0.2470  1.0788
   64MOL    C2220308   5.826   1.174   6.337  0.6647 -0.2283  0.3082
   64MOL   Cl2320309   5.690   1.128   6.236  0.5994 -0.0287 -0.1385
   64MOL    C2420310   5.918   1.073   6.375 -0.3005 -0.7474  0.3551
   64MOL    C2520311   6.027   1.101   6.455  0.2717  0.1494  0.0714
   64MOL    C2620312   6.283   1.321   6.498 -0.6323  0.0388  0.5154
   64MOL    H2720313   6.207   1.179   6.634  0.4316  0.2692  0.4624
   64MOL    H2820314   5.976   1.444   6.494 -0.8082  0.3262 -0.5998
   64MOL    H2920315   5.790   1.384   6.334  0.7057 -0.3682  0.0849
   64MOL    H3020316   5.912   0.967   6.352  0.1829 -0.8585  0.7192
   64MOL    H3120317   6.095   1.023   6.486 -1.3908 -0.9864  0.9237
   64MOL    H3220318   6.233   1.406   6.453 -0.4790  0.1273  0.5136
   64MOL    H3320319   6.367   1.357   6.556 -0.0950 -0.0189 -0.2169
   64MOL    C3420320   6.334   1.226   6.384  0.1769  0.9947 -0.0229
   64MOL    C3520321   6.409   1.294   6.276 -0.1813 -0.3783  0.3385
   64MOL    C3620322   6.470   1.422   6.295  0.3387  0.4809  0.0483
   64MOL    C3720323   6.548   1.484   6.195 -0.1237 -0.0401 -0.0622
   64MOL    C3820324   6.565   1.421   6.070 -0.0088  0.5906  0.4540
   64MOL   Cl3920325   6.663   1.489   5.947 -0.0408  0.1753 -0.2488
   64MOL    C4020326   6.510   1.296   6.060 -0.0702  0.4501  0.3741
   64MOL    C4120327   6.432   1.229   6.153  0.4831 -0.4233 -0.4065
   64MOL    C4220328   6.410   1.094   6.437 -0.5751 -0.1844 -0.1693
   64MOL    H4320329   6.249   1.187   6.328  1.6410 -1.1084 -0.8404
   64MOL    H4420330   6.455   1.469   6.391  0.1748  1.7236 -0.5812
   64MOL    H4520331   6.589   1.583   6.208  1.4714 -0.7482  0.4732
   64MOL    H4620332   6.536   1.243   5.969 -3.0950  1.0402 -0.9187
   64MOL    H4720333   6.385   1.134   6.133 -0.5313  0.1471 -0.8225
   64MOL    H4820334   6.346   1.045   6.510  2.8582 -3.2010  0.8991
   64MOL    H4920335   6.405   1.024   6.354  1.9179  0.4054 -0.8646
   64MOL    C5020336   6.553   1.100   6.479 -0.2651 -0.4419 -0.4750
   64MOL    C5120337   6.576   1.181   6.599  0.2266  0.0743 -0.1931
   64MOL    C5220338   6.536   1.139   6.728  0.3481  0.3926  0.6090
   64MOL    C5320339   6.556   1.226   6.836  0.5627  0.0125  0.6609
   64MOL    C5420340   6.617   1.352   6.824 -0.3073  0.0903 -0.0482
   64MOL   Cl5520341   6.638   1.450   6.965 -0.1617  0.3212  0.0807
   64MOL    C5620342   6.664   1.389   6.698 -0.6123  0.1111 -0.8851
   64MOL    C5720343   6.642   1.303   6.584 -0.2192  0.2383 -0.2111
   64MOL    C5820344   6.628   0.958   6.494 -0.1004 -0.0079 -0.5526
   64MOL    H5920345   6.606   1.150   6.398 -0.4808  0.5200 -0.0353
   64MOL    H6020346   6.494   1.041   6.739  0.2571  0.4501  0.7725
   64MOL    H6120347   6.526   1.185   6.931  1.0690 -1.9052  0.0218
   64MOL    H6220348   6.696   1.490   6.678  1.1250 -0.2915 -0.1948
   64MOL    H6320349   6.664   1.340   6.485  1.3282  3.0175  1.1207
   64MOL    H6420350   6.714   0.966   6.561 -0.8802  0.0564  0.4344
   64MOL    H6520351   6.571   0.886   6.552 -2.0621  1.3217 -0.7879
   64MOL    C6620352   6.668   0.909   6.358 -0.8674  0.0863 -0.7897
   64MOL    C6720353   6.810   0.953   6.315 -0.1452 -0.5311  0.0761
   64MOL    C6820354   6.840   1.026   6.196  0.6533  0.7793  0.1995
   64MOL    C6920355   6.976   1.036   6.161  0.9256  0.5476  0.5282
   64MOL    C7020356   7.079   0.984   6.243  0.0731 -0.6566 -0.0720
   64MOL   Cl7120357   7.243   1.013   6.194  0.0310 -0.2054  0.3810
   64MOL    C7220358   7.053   0.911   6.359  0.6051 -0.0843 -0.6579
   64MOL    C7320359   6.913   0.901   6.396  0.2931  0.0304  0.5292
   64MOL    C7420360   6.646   0.761   6.333 -0.6469 -0.3568  0.3225
   64MOL    H7520361   6.604   0.955   6.283 -0.7507  0.6920 -0.5159
   64MOL    H7620362   6.761   1.064   6.133  1.4754 -0.7147 -1.7593
   64MOL    H7720363   7.000   1.087   6.070  0.3651 -1.2836 -0.6734
   64MOL    H7820364   7.126   0.859   6.421 -1.4214 -3.8224 -1.2593
   64MOL    H7920365   6.896   0.838   6.483  0.0915  1.5076  1.5796
   64MOL    H8020366   6.677   0.742   6.231 -0.0368  2.0095  0.0435
   64MOL    H8120367   6.726   0.707   6.384 -0.1165 -0.7620 -0.9166
   64MOL    C8220368   6.510   0.697   6.355  0.0088 -0.2257  0.5072
   64MOL    C8320369   6.390   0.757   6.275 -0.1050  0.2329 -0.0024
   64MOL    C8420370   6.264   0.750   6.338  0.3620  0.0366 -0.4115
   64MOL    C8520371   6.151   0.803   6.275  0.1388  0.4781 -0.5209
   64MOL    C8620372   6.158   0.848   6.135  0.5687 -0.1019 -1.2519
   64MOL   Cl8720373   6.014   0.891   6.054  0.0773  0.2123  0.2138
   64MOL    C8820374   6.286   0.854   6.072  0.4908  0.2814 -0.2682
   64MOL    C8920375   6.402   0.811   6.139 -0.1356  0.2289  0.3599
   64MOL    C9020376   6.513   0.542   6.331 -0.0317  0.1073  0.9657
   64MOL    H9120377   6.482   0.699   6.460 -0.2626 -1.0347  0.4512
   64MOL    H9220378   6.265   0.713   6.440  0.5633 -0.8375 -0.7297
   64MOL    H9320379   6.058   0.804   6.330 -0.0462  1.0648 -0.8300
   64MOL    H9420380   6.296   0.898   5.973  2.7080 -2.9330 -1.5632
   64MOL    H9520381   6.491   0.815   6.078 -0.4943  0.6325 -0.1442
   64MOL    H9620382   6.411   0.503   6.328  0.0913 -0.0875 -1.6603
   64MOL    H9720383   6.537   0.537   6.225 -2.1284 -1.5496  0.5236
   64MOL    C9820384   6.593   0.457   6.436 -0.0784 -0.4036 -0.1908
   64MOL    C9920385   6.582   0.496   6.579 -0.2206 -0.9673 -0.0928
   64MOL   C10020386   6.683   0.578   6.639 -0.9176  1.3457  0.1641
   64MOL   C10120387   6.665   0.618   6.775 -0.7472  0.1381 -0.3384
   64MOL   C10220388   6.549   0.572   6.842 -0.4523  0.2472  0.3376
   64MOL  Cl10320389   6.534   0.600   7.009 -0.2194  0.1248  0.1685
   64MOL   C10420390   6.448   0.506   6.784 -0.0109 -0.2965 -0.2650
   64MOL   C10520391   6.463   0.467   6.650 -0.4764  0.4449 -0.1444
   64MOL   C10620392   6.569   0.311   6.410 -0.6421 -0.4683  0.6001
   64MOL   H10720393   6.699   0.471   6.416 -0.6482  2.3905 -1.4376
   64MOL   H10820394   6.773   0.611   6.589  0.2556  0.0634  1.3882
   64MOL   H10920395   6.739   0.674   6.829  0.8295 -1.1177 -1.1392
   64MOL   H11020396   6.363   0.480   6.845  0.0242  1.1930  0.4372
   64MOL   H11120397   6.382   0.410   6.606  0.3254  0.2197 -1.3275
   64MOL   H11220398   6.613   0.242   6.482 -1.1179 -3.2452 -1.6730
   64MOL   H11320399   6.462   0.299   6.427 -0.4894 -1.5049  0.8838
   64MOL   C11420400   6.619   0.255   6.278  0.2956 -0.9318  0.4592
   64MOL   C11520401   6.770   0.245   6.272 -0.6816 -0.6695  0.1066
   64MOL   C11620402   6.840   0.146   6.342 -0.5480 -0.1370  0.4918
   64MOL   C11720403   6.982   0.136   6.334  0.0897 -0.0222  0.3693
   64MOL   C11820404   7.050   0.232   6.253 -0.7963  0.0669 -0.2736
   64MOL  Cl11920405   7.220   0.210   6.234  0.3971 -0.4012 -0.3046
   64MOL   C12020406   6.984   0.345   6.190  0.3792  0.2740 -0.0280
   64MOL   C12120407   6.840   0.344   6.198  0.4153  0.7976  0.3202
   64MOL   C12220408   6.539   0.124   6.247  0.1612  0.3148  0.8514
   64MOL   H12320409   6.603   0.321   6.193  1.1791  0.4184  1.3067
   64MOL   H12420410   6.791   0.081   6.413 -0.8001  1.0472  1.4117
   64MOL   H12520411   7.047   0.064   6.381  1.0503  1.7717  1.8852
   64MOL   H12620412   7.040   0.422   6.139 -1.2605  2.4005  1.2991
   64MOL   H12720413   6.771   0.416   6.156  0.6832  1.2809  0.7054
   64MOL   H12820414   6.590   0.071   6.167  0.8627 -0.0225  1.5169
   64MOL   H12920415   6.551   0.059   6.334  2.4833 -0.7538 -0.2268
   64MOL   C13020416   6.391   0.131   6.217  0.4142  0.1229 -0.0970
   64MOL   C13120417   6.355   0.251   6.130 -0.1281 -0.3553  1.1279
   64MOL   C13220418   6.403   0.264   5.996 -0.0904  0.9377 -0.0611
   64MOL   C13320419   6.361   0.368   5.911 -0.0461 -0.4252  0.1648
   64MOL   C13420420   6.270   0.464   5.955 -0.4041  0.0449 -0.2217
   64MOL  Cl13520421   6.208   0.582   5.847 -0.0655 -0.1008  0.2664
   64MOL   C13620422   6.228   0.458   6.088 -0.5089  0.0218  0.3578
   64MOL   C13720423   6.272   0.355   6.174  0.2069  0.5157 -0.1704
   64MOL   C13820424   6.334   8.439   6.159 -0.1467 -0.6205 -0.7424
   64MOL   H13920425   6.331   0.146   6.307  1.1391  1.3232  0.1928
   64MOL   H14020426   6.462   0.187   5.947 -1.9393  0.6260 -1.8674
   64MOL   H14120427   6.383   0.373   5.806 -0.4532 -1.7435  0.0118
   64MOL   H14220428   6.158   0.532   6.125 -0.0963  0.2270  0.7308
   64MOL   H14320429   6.233   0.354   6.274 -3.9183  1.8493 -1.6747
   64MOL   H14420430   6.238   0.017   6.110 -1.0317 -1.0032  0.7915
   64MOL   H14520431   6.408   8.426   6.080 -0.4526 -0.4314 -1.0660
   64MOL   C14620432   6.313   8.310   6.239 -0.4902 -0.0063 -0.2835
   64MOL   C14720433   6.193   8.305   6.331 -0.1741  0.1117 -0.6952
   64MOL   C14820434   6.065   8.271   6.283 -0.0069 -0.6744 -0.0162
   64MOL   C14920435   5.958   8.259   6.371 -0.3395 -0.2674 -0.3091
   64MOL   C15020436   5.977   8.268   6.512 -0.2255  0.0913 -0.2191
   64MOL  Cl15120437   5.848   8.242   6.621 -0.3395 -0.1149  0.0707
   64MOL   C15220438   6.105   8.299   6.563  0.1825 -0.2426  0.5198
   64MOL   C15320439   6.213   8.322   6.472 -1.0884 -0.1534  0.7685
   64MOL   C15420440   6.332   8.181   6.157  0.4677  0.5983 -0.0607
   64MOL   H15520441   6.396   8.312   6.309  0.4126 -1.1837 -1.2991
   64MOL   H15620442   6.046   8.251   6.179  2.8285  0.1291 -0.7506
   64MOL   H15720443   5.870   8.212   6.332  0.6656 -2.0382 -0.5214
   64MOL   H15820444   6.125   8.314   6.669  0.6919  1.1253  0.2378
   64MOL   H15920445   6.309   8.353   6.509 -0.4389 -0.7461 -0.3928
   64MOL   H16020446   6.264   8.201   6.075  0.8678 -1.8658 -1.0385
   64MOL   H16120447   6.431   8.186   6.111  0.5549  2.0732  0.2726
   64MOL   C16220448   6.313   8.041   6.217  0.1735  0.4484  0.0018
   64MOL   C16320449   6.214   7.948   6.135 -0.1688  0.1099  0.2450
   64MOL   C16420450   6.248   7.924   5.997  0.0719 -0.6736  0.0018
   64MOL   C16520451   6.151   7.862   5.916 -0.4710  0.2939  0.1446
   64MOL   C16620452   6.028   7.825   5.967  0.3596 -0.2166 -1.4860
   64MOL  Cl16720453   5.912   7.749   5.866 -0.1382 -0.0736 -0.2644
   64MOL   C16820454   5.990   7.853   6.102 -0.2158  0.0245  0.5220
   64MOL   C16920455   6.086   7.916   6.188 -0.1956  0.1682 -0.1654
   64MOL   C17020456   6.451   7.968   6.239 -0.4972  0.3228  0.2549
   64MOL   H17120457   6.267   8.053   6.315 -0.4945  0.5285 -0.3168
   64MOL   H17220458   6.345   7.939   5.954  0.1535  1.7125  0.9194
   64MOL   H17320459   6.180   7.827   5.818 -0.6973  1.4553 -0.3415
   64MOL   H17420460   5.894   7.824   6.141 -0.7507  0.7357 -0.2461
   64MOL   H17520461   6.060   7.939   6.290 -1.0680  1.0205 -0.5648
   64MOL   H17620462   6.446   7.864   6.270  5.0172 -0.1901 -0.0694
   64MOL   H17720463   6.493   7.969   6.139 -3.4070  0.5386 -1.0217
   64MOL   C17820464   6.555   8.045   6.335  0.0734  0.0619 -0.4159
   64MOL   C17920465   6.495   8.082   6.472  1.1000  0.0297  1.1430
   64MOL   C18020466   6.392   8.002   6.530  0.2998 -0.0834  0.8675
   64MOL   C18120467   6.334   8.049   6.650  0.4214  0.1363  0.9701
   64MOL   C18220468   6.376   8.166   6.715  1.0280 -0.0129  0.6814
   64MOL  Cl18320469   6.305   8.219   6.865  0.1077 -0.1399  0.1957
   64MOL   C18420470   6.475   8.237   6.657 -0.8775 -0.4725 -0.9240
   64MOL   C18520471   6.537   8.200   6.534 -0.2825 -0.5773 -0.0112
   64MOL   C18620472   6.678   7.965   6.367 -0.6043 -0.2764 -0.0874
   64MOL   H18720473   6.593   8.133   6.282  3.9035 -0.7607  0.7764
   64MOL   H18820474   6.366   7.907   6.486  1.1698 -0.5372  1.3064
   64MOL   H18920475   6.250   7.992   6.688 -0.5791 -0.7359 -2.4171
   64MOL   H19020476   6.518   8.319   6.711 -1.0241 -2.4445  2.3153
   64MOL   H19120477   6.610   8.260   6.483 -0.3760 -0.5242 -0.0839
   64MOL   H19220478   6.739   8.035   6.424 -0.9939 -1.5810  1.9856
   64MOL   H19320479   6.650   7.872   6.416 -0.5092 -1.5207 -2.3356
   64MOL   C19420480   6.768   7.921   6.255  0.1828 -0.1925 -0.3584
   64MOL   C19520481   6.847   8.027   6.176 -0.2209  0.9235 -0.0635
   64MOL   C19620482   6.917   7.993   6.054  0.0203 -0.1051 -0.2568
   64MOL   C19720483   6.992   8.090   5.985  0.4487  0.0979  0.2271
   64MOL   C19820484   7.003   8.222   6.030 -0.2980  0.0049 -0.5270
   64MOL  Cl19920485   7.093   8.349   5.938  0.0357  0.3545 -0.1122
   64MOL   C20020486   6.940   8.254   6.151  0.4291  0.5119 -0.3868
   64MOL   C20120487   6.870   8.156   6.228  0.0921 -0.2019 -0.5815
   64MOL   C20220488   6.867   7.810   6.297 -0.3885 -0.3313  0.3051
   64MOL   H20320489   6.700   7.869   6.188  0.5334 -0.2295 -0.6896
   64MOL   H20420490   6.906   7.894   6.013 -0.6588  0.2563 -0.9588
   64MOL   H20520491   7.041   8.075   5.890 -1.1648 -1.7173 -0.3396
   64MOL   H20620492   6.953   8.353   6.190  2.3822 -0.5602  1.7914
   64MOL   H20720493   6.835   8.182   6.327  0.8124 -0.6695 -0.1991
   64MOL   H20820494   6.941   7.792   6.219 -0.5762 -2.0115  0.5027
   64MOL   H20920495   6.925   7.846   6.382 -0.4835  1.7102 -0.4601
   64MOL   C21020496   6.798   7.669   6.309  0.3304 -0.4147 -0.0158
   64MOL   C21120497   6.730   7.626   6.178 -0.1568  1.4300 -0.0082
   64MOL   C21220498   6.589   7.630   6.181  0.4422 -0.0988  0.1847
   64MOL   C21320499   6.519   7.607   6.059 -0.3083  0.1038 -0.1327
   64MOL   C21420500   6.591   7.592   5.932  0.4120 -0.1100 -0.2920
   64MOL  Cl21520501   6.503   7.594   5.787 -0.2189 -0.2516  0.0513
   64MOL   C21620502   6.729   7.581   5.936  0.1477 -0.4836  0.1741
   64MOL   C21720503   6.800   7.607   6.055  0.6376 -0.0911 -0.6774
   64MOL   C21820504   6.916   7.565   6.349 -0.8977  0.1494  0.6507
   64MOL   H21920505   6.722   7.666   6.387 -0.2416 -0.5510 -0.5685
   64MOL   H22020506   6.544   7.654   6.276  0.6680 -2.0138  0.8144
   64MOL   H22120507   6.411   7.611   6.052 -0.5854 -1.7100  2.3843
   64MOL   H22220508   6.785   7.580   5.844  1.2877 -0.3842  0.8527
   64MOL   H22320509   6.908   7.613   6.057  0.5865  2.0741 -2.7406
   64MOL   H22420510   6.879   7.462   6.343 -0.8296  0.1542  0.0559
   64MOL   H22520511   7.001   7.567   6.280 -3.7251 -0.4648 -2.9901
   64MOL   C22620512   6.962   7.582   6.495 -0.0578 -0.4756  0.6771
   64MOL   C22720513   6.855   7.631   6.597 -0.8116  0.5349 -0.6218
   64MOL   C22820514   6.749   7.540   6.626 -0.3013  0.3544 -0.4337
   64MOL   C22920515   6.644   7.584   6.710  0.1555  0.5292  0.7296
   64MOL   C23020516   6.635   7.720   6.754 -0.2684  0.0029  0.7580
   64MOL  Cl23120517   6.492   7.781   6.833  0.0098 -0.2441  0.1007
   64MOL   C23220518   6.742   7.803   6.733 -0.3774  0.8079 -0.3972
   64MOL   C23320519   6.852   7.764   6.652 -0.3300  0.1639 -0.5798
   64MOL   C23420520   7.046   7.454   6.529  0.2486  0.6998  0.6143
   64MOL   H23520521   7.021   7.673   6.492  0.4393 -0.7838  1.1175
   64MOL   H23620522   6.751   7.439   6.589  0.5410 -0.9866  3.0593
   64MOL   H23720523   6.562   7.519   6.737 -0.6153 -0.1212 -2.8818
   64MOL   H23820524   6.738   7.906   6.764 -3.2034  1.1026 -1.6178
   64MOL   H23920525   6.929   7.836   6.628 -0.3813  0.8057  1.1347
   64MOL   H24020526   6.975   7.371   6.532 -1.8326  2.3133 -1.4696
   64MOL   H24120527   7.100   7.422   6.440 -2.9109 -0.7803 -0.8720
   64MOL   C24220528   7.135   7.467   6.655  0.4271 -0.2329 -0.2785
   64MOL   C24320529   7.056   7.457   6.781 -0.2275  0.2976 -0.0021
   64MOL   C24420530   6.972   7.350   6.814  0.3933 -0.3971  0.2587
   64MOL   C24520531   6.901   7.346   6.935 -0.1880  0.4816  0.2882
   64MOL   C24620532   6.926   7.448   7.030 -0.2138 -0.3779 -0.1886
   64MOL  Cl24720533   6.862   7.419   7.184 -0.0772 -0.1222 -0.4228
   64MOL   C24820534   7.010   7.561   7.000  0.4090  0.3835 -0.9452
   64MOL   C24920535   7.069   7.562   6.872 -0.0808  0.7954 -0.5228
   64MOL   C25020536   7.257   7.368   6.670  0.2463 -0.2857  0.7446
   64MOL   H25120537   7.180   7.565   6.641 -0.4148 -0.1213 -2.5551
   64MOL   H25220538   6.950   7.266   6.750  0.6187 -0.4575  0.2625
   64MOL   H25320539   6.833   7.266   6.961  0.8376  0.1082  1.8302
   64MOL   H25420540   7.031   7.644   7.066 -0.3163 -0.4598  0.3669
   64MOL   H25520541   7.140   7.641   6.853  0.2119  0.3879 -1.1323
   64MOL   H25620542   7.320   7.390   6.756 -0.1199 -1.0939  1.2281
   64MOL   H25720543   7.209   7.273   6.691  0.8563 -0.4902  1.2203
   64MOL   C25820544   7.346   7.337   6.545 -0.1565 -1.0596 -0.2452
   64MOL   C25920545   7.406   7.466   6.488  0.1608 -0.1592 -0.0464
   64MOL   C26020546   7.500   7.547   6.569 -0.0661  0.9242  0.4709
   64MOL   C26120547   7.553   7.667   6.522  0.4892 -0.4366 -0.0796
   64MOL   C26220548   7.508   7.708   6.390 -0.2489  0.2158  0.1025
   64MOL  Cl26320549   7.577   7.853   6.325  0.3222 -0.0380  0.1769
   64MOL   C26420550   7.417   7.637   6.308 -0.4336  0.0050 -0.2494
   64MOL   C26520551   7.369   7.511   6.357 -0.1315 -0.5783  0.4416
   64MOL   C26620552   7.452   7.231   6.566 -1.1191 -0.1651  0.1563
   64MOL   H26720553   7.290   7.304   6.458 -1.7067 -1.6182  0.9526
   64MOL   H26820554   7.516   7.511   6.670 -1.7152  0.6953  0.6644
   64MOL   H26920555   7.604   7.740   6.582  1.5858 -1.0818 -0.2106
   64MOL   H27020556   7.399   7.670   6.206 -0.2510  1.3994  0.1613
   64MOL   H27120557   7.305   7.464   6.284  0.5412 -0.6479 -0.1106
   64MOL   H27220558   7.509   7.248   6.658 -1.4640  0.1432  0.3135
   64MOL   H27320559   7.391   7.145   6.596 -0.6575  0.0168  1.6581
   64MOL   C27420560   7.529   7.176   6.448 -0.3973  0.4353  0.0715
   64MOL   C27520561   7.677   7.203   6.471 -0.0286 -0.1741  0.0007
   64MOL   C27620562   7.733   7.324   6.423  0.6106  0.2802  0.2398
   64MOL   C27720563   7.870   7.347   6.438  0.7593 -0.4709 -0.5127
   64MOL   C27820564   7.953   7.253   6.484 -0.0703  0.1334 -0.3885
   64MOL  Cl27920565   8.119   7.293   6.506  0.2020  0.0089 -0.1272
   64MOL   C28020566   7.905   7.125   6.524 -0.0393 -0.1924 -0.6454
   64MOL   C28120567   7.766   7.108   6.525  0.4992  0.8069  0.5317
   64MOL   C28220568   7.495   7.027   6.403  0.4563 -0.4386  0.2575
   64MOL   H28320569   7.519   7.245   6.365  1.2703 -0.5196 -0.9682
   64MOL   H28420570   7.674   7.402   6.376  1.9546  0.0414 -1.8725
   64MOL   H28520571   7.909   7.445   6.412 -1.7115  0.4116 -1.1154
   64MOL   H28620572   7.972   7.053   6.568  0.0384  0.2441 -0.0482
   64MOL   H28720573   7.722   7.015   6.558  1.4647 -0.3683 -1.4420
   64MOL   H28820574   7.519   6.951   6.477 -1.2558 -0.8291  0.4341
   64MOL   H28920575   7.387   7.023   6.388  0.8091 -0.5926 -2.5440
   64MOL   C29020576   7.548   7.000   6.264  0.2391 -0.0109 -0.0833
   64MOL   C29120577   7.699   6.960   6.259  0.3261 -0.4791 -0.5129
   64MOL   C29220578   7.793   7.019   6.176 -0.1249  0.1014 -0.1650
   64MOL   C29320579   7.927   6.984   6.183 -0.8599 -0.5846 -0.1155
   64MOL   C29420580   7.964   6.879   6.272 -0.1313  0.6165 -0.2799
   64MOL  Cl29520581   8.132   6.816   6.283  0.5171 -0.0639 -0.0370
   64MOL   C29620582   7.870   6.818   6.353 -0.0166 -0.6818  0.3100
   64MOL   C29720583   7.738   6.856   6.345  0.2563 -0.1103  0.2666
   64MOL   C29820584   7.460   6.887   6.203  0.4491 -0.2671  0.2387
   64MOL   H29920585   7.538   7.089   6.203  1.8116 -2.1260 -3.5828
   64MOL   H30020586   7.767   7.109   6.122 -0.7052 -0.3893 -0.7166
   64MOL   H30120587   8.000   7.028   6.117 -0.5607 -0.8996  0.0049
   64MOL   H30220588   7.903   6.730   6.406 -1.5715 -1.7224 -0.4215
   64MOL   H30320589   7.666   6.799   6.402 -1.1325  2.3882  1.1162
   64MOL   H30420590   7.469   6.801   6.268 -0.1760  0.0121  0.6945
   64MOL   H30520591   7.356   6.919   6.197  0.2649 -1.0850 -1.0994
   64MOL   C30620592   7.496   6.843   6.058  0.1795  0.1266  0.4375
   64MOL   C30720593   7.465   6.703   6.014  0.8286  0.0361  0.3103
   64MOL   C30820594   7.530   6.641   5.904 -0.9703  0.9459 -0.7998
   64MOL   C30920595   7.487   6.512   5.857  0.6717  0.3884  0.2639
   64MOL   C31020596   7.402   6.439   5.935  0.2468  0.4822 -1.1148
   64MOL  Cl31120597   7.382   6.267   5.895 -0.3563  0.3592  0.1624
   64MOL   C31220598   7.336   6.492   6.047 -0.7054 -0.5680  0.3365
   64MOL   C31320599   7.371   6.622   6.083 -0.4515  0.3329 -0.5054
   64MOL   C31420600   7.417   6.939   5.965 -0.4267  0.0817  0.0833
   64MOL   H31520601   7.602   6.853   6.035 -0.1066  0.7018 -0.6768
   64MOL   H31620602   7.612   6.694   5.859 -0.0932 -0.0583 -0.4113
   64MOL   H31720603   7.536   6.477   5.767  0.6314  0.6817  0.1251
   64MOL   H31820604   7.271   6.438   6.114  0.8078 -1.1783  1.3334
   64MOL   H31920605   7.319   6.671   6.165 -0.4235  1.5123 -1.1811
   64MOL   H32020606   7.447   6.935   5.861  1.2426  0.0810  0.5525
   64MOL   H32120607   7.309   6.939   5.980 -0.2173 -2.3635  2.1392
   64MOL   H32220608   7.453   7.039   5.989 -0.0749 -0.1812  0.6739
   65MOL     C120609   5.583   2.683   5.628 -0.2495  0.0601 -0.1397
   65MOL     C220610   5.437   2.656   5.606 -0.7154 -0.1330 -1.0188
   65MOL     C320611   5.387   2.532   5.647 -0.2110  0.1366  0.2235
   65MOL     C420612   5.248   2.509   5.636  0.5238  0.4907 -0.2198
   65MOL     C520613   5.158   2.609   5.581  0.1210  0.0757 -0.0792
   65MOL    Cl620614   4.990   2.591   5.580  0.0460  0.2544 -0.2236
   65MOL     C720615   5.220   2.722   5.529  0.3633 -0.8680  0.1868
   65MOL     C820616   5.357   2.753   5.542 -0.1022  0.7329  0.6871
   65MOL     C920617   5.600   2.728   5.779 -0.2539  0.2234 -0.0404
   65MOL    H1020618   5.626   2.764   5.569  0.1814 -0.2891 -0.3124
   65MOL    H1120619   5.451   2.454   5.683  1.5609  1.4590  0.0073
   65MOL    H1220620   5.212   2.414   5.672  1.9317 -0.8315 -2.1814
   65MOL    H1320621   5.157   2.796   5.482 -0.8859 -1.2455  1.2413
   65MOL    H1420622   5.404   2.846   5.513  1.7916 -0.0512  1.1956
   65MOL    H1520623   5.554   2.826   5.775 -0.1888  0.2310 -0.5778
   65MOL    H1620624   5.533   2.659   5.830 -1.5428  1.2695 -0.3027
   65MOL    H1720625   5.636   2.587   5.619 -0.4832 -0.3013  2.1685
   65MOL    C1820626   5.747   2.746   5.827 -0.0592  0.0107  1.0086
   65MOL    C1920627   5.825   2.840   5.731 -0.4734  0.2823  0.5133
   65MOL    C2020628   5.780   2.961   5.667 -0.5873  0.3018 -0.0799
   65MOL    C2120629   5.858   3.029   5.576 -0.3116  0.8096 -0.4345
   65MOL    C2220630   5.985   2.987   5.545 -0.9757 -0.1166 -0.5232
   65MOL   Cl2320631   6.078   3.075   5.426 -0.1657 -0.7294 -0.2186
   65MOL    C2420632   6.048   2.881   5.618 -0.3871 -0.1703 -0.4593
   65MOL    C2520633   5.959   2.806   5.703  0.5251 -0.2393  0.9406
   65MOL    C2620634   5.749   2.790   5.971  0.0861  0.5597 -0.1609
   65MOL    H2720635   5.792   2.647   5.829 -1.4379 -0.7230 -1.9049
   65MOL    H2820636   5.692   3.015   5.699  0.4469  1.1249  1.4743
   65MOL    H2920637   5.814   3.111   5.522  0.3955  2.0205  0.7794
   65MOL    H3020638   6.151   2.859   5.595 -0.7815  1.1284 -3.8789
   65MOL    H3120639   6.003   2.718   5.746 -0.5238 -0.4662  1.5652
   65MOL    H3220640   5.855   2.794   5.995 -0.1242 -0.5939  0.9825
   65MOL    H3320641   5.730   2.897   5.984 -2.9732  0.0705 -0.1885
   65MOL    C3420642   5.656   2.719   6.070 -0.3683 -0.1002 -0.7253
   65MOL    C3520643   5.689   2.570   6.076 -0.5994 -0.2268  0.5963
   65MOL    C3620644   5.589   2.472   6.068  0.2351  0.3249 -0.3608
   65MOL    C3720645   5.618   2.333   6.078 -0.0944 -0.0085 -0.1733
   65MOL    C3820646   5.755   2.292   6.102 -0.3581 -0.3936 -0.5219
   65MOL   Cl3920647   5.786   2.125   6.128 -0.2899 -0.4280  0.1136
   65MOL    C4020648   5.855   2.390   6.109  0.0880  0.5193  0.5188
   65MOL    C4120649   5.823   2.528   6.098  0.9005 -0.7292  0.1487
   65MOL    C4220650   5.677   2.778   6.210  0.6937  0.3588  0.1920
   65MOL    H4320651   5.554   2.731   6.035  0.1972 -0.9766 -2.7733
   65MOL    H4420652   5.489   2.510   6.052  0.1341  0.2654  0.1192
   65MOL    H4520653   5.538   2.263   6.059 -0.6616 -0.0428  2.2026
   65MOL    H4620654   5.961   2.374   6.118  0.0404 -0.4777 -0.5530
   65MOL    H4720655   5.897   2.606   6.100 -0.4510  0.6041 -0.6335
   65MOL    H4820656   5.671   2.702   6.288 -0.7370  1.8026  1.5065
   65MOL    H4920657   5.776   2.822   6.211  2.2218 -2.9213  0.4258
   65MOL    C5020658   5.567   2.885   6.238  0.2897 -0.3825 -0.0746
   65MOL    C5120659   5.418   2.826   6.259 -0.1307  0.6744 -0.7001
   65MOL    C5220660   5.394   2.731   6.364  0.1136 -0.3574 -0.5208
   65MOL    C5320661   5.275   2.650   6.356  0.3901  0.5949 -0.0022
   65MOL    C5420662   5.174   2.694   6.265  0.0536 -0.0829  0.4665
   65MOL   Cl5520663   5.024   2.605   6.251 -0.2996  0.1646 -0.0351
   65MOL    C5620664   5.193   2.800   6.180  0.2169  0.1943  0.2522
   65MOL    C5720665   5.315   2.870   6.179  0.0041 -0.1052  0.3418
   65MOL    C5820666   5.611   2.969   6.360  1.0961  0.3676 -0.1514
   65MOL    H5920667   5.553   2.950   6.151 -1.2512 -0.7149 -0.0832
   65MOL    H6020668   5.472   2.708   6.434  0.4331 -0.8228 -1.0271
   65MOL    H6120669   5.255   2.566   6.421 -0.2486  0.3204 -0.5493
   65MOL    H6220670   5.115   2.822   6.109  0.6971  2.7949  0.4493
   65MOL    H6320671   5.325   2.948   6.106 -0.3340  2.3934  2.8715
   65MOL    H6420672   5.627   2.899   6.441 -5.2162 -0.7873  0.3446
   65MOL    H6520673   5.702   3.028   6.345  0.5963  1.4924  1.1613
   65MOL    C6620674   5.506   3.074   6.406 -0.4633  0.6448  0.5079
   65MOL    C6720675   5.552   3.121   6.545  0.4542 -0.1790 -0.6800
   65MOL    C6820676   5.666   3.207   6.558 -0.3550 -0.3962  0.3450
   65MOL    C6920677   5.702   3.261   6.686  0.3602  0.0175 -0.3551
   65MOL    C7020678   5.639   3.212   6.802  0.2449  0.0224 -0.7371
   65MOL   Cl7120679   5.689   3.253   6.958 -0.0646 -0.0676  0.3372
   65MOL    C7220680   5.539   3.118   6.783  0.2475 -0.2458  0.2139
   65MOL    C7320681   5.489   3.071   6.659  0.2648 -0.1353  0.2461
   65MOL    C7420682   5.478   3.179   6.295  0.4881 -0.2377  0.4260
   65MOL    H7520683   5.417   3.014   6.427 -0.5601  0.9860  1.0805
   65MOL    H7620684   5.718   3.234   6.467  0.7793 -0.0994  1.0850
   65MOL    H7720685   5.784   3.331   6.699  2.9702 -2.4178 -2.8369
   65MOL    H7820686   5.500   3.077   6.875  1.2698 -3.5492 -0.7600
   65MOL    H7920687   5.404   3.005   6.650  0.4352 -0.5147  1.2784
   65MOL    H8020688   5.575   3.176   6.247  0.1231  0.5324 -0.3816
   65MOL    H8120689   5.408   3.132   6.225  0.4372 -0.9038  0.9154
   65MOL    C8220690   5.450   3.321   6.337 -0.5557  0.4588 -0.0524
   65MOL    C8320691   5.443   3.415   6.220 -0.0563  0.5095 -0.2276
   65MOL    C8420692   5.507   3.541   6.225  0.8892  0.2295 -0.2158
   65MOL    C8520693   5.515   3.621   6.110  0.0136 -0.3292  0.3886
   65MOL    C8620694   5.452   3.578   5.994 -0.3240 -0.8942 -0.7974
   65MOL   Cl8720695   5.452   3.674   5.851  0.2651  0.2029 -0.1967
   65MOL    C8820696   5.385   3.455   5.988 -0.0721  0.4057 -0.1810
   65MOL    C8920697   5.381   3.370   6.102  0.1268 -0.1011  0.8103
   65MOL    C9020698   5.319   3.320   6.415  0.4946  0.7183  0.3960
   65MOL    H9120699   5.536   3.353   6.396  0.2744  1.8647 -1.9746
   65MOL    H9220700   5.546   3.579   6.318 -0.0798  0.6950  0.0138
   65MOL    H9320701   5.563   3.718   6.114  1.6156 -1.0405 -1.1725
   65MOL    H9420702   5.343   3.425   5.893  1.8657  0.6977 -1.1532
   65MOL    H9520703   5.322   3.279   6.098  1.4825 -1.1937  4.0069
   65MOL    H9620704   5.248   3.275   6.346 -0.5839  2.6377  0.2324
   65MOL    H9720705   5.322   3.249   6.497  0.5806 -0.7336 -0.8383
   65MOL    C9820706   5.262   3.448   6.481 -0.0339 -0.6331  0.4275
   65MOL    C9920707   5.112   3.423   6.517  0.8415 -0.3258  0.0277
   65MOL   C10020708   5.062   3.354   6.628 -0.1611 -0.2504  0.0790
   65MOL   C10120709   4.926   3.339   6.652  0.2306 -0.5861  0.0230
   65MOL   C10220710   4.828   3.393   6.571 -0.5304 -0.2702  0.3997
   65MOL  Cl10320711   4.661   3.384   6.612 -0.2886  0.2899 -0.4976
   65MOL   C10420712   4.873   3.465   6.457 -0.2294  0.2516 -0.3904
   65MOL   C10520713   5.013   3.475   6.435 -0.4323 -0.1761 -0.3838
   65MOL   C10620714   5.344   3.487   6.607 -0.0120 -0.2903  0.0045
   65MOL   H10720715   5.282   3.531   6.413  0.6690 -0.2868  1.0520
   65MOL   H10820716   5.129   3.321   6.706  0.2566  1.4682  0.4596
   65MOL   H10920717   4.896   3.295   6.746  1.1643 -0.3377  0.4505
   65MOL   H11020718   4.808   3.512   6.385 -2.2113 -3.0601 -0.8748
   65MOL   H11120719   5.037   3.523   6.342 -0.2885 -0.6023 -0.5689
   65MOL   H11220720   5.355   3.399   6.670 -0.4580  1.5136  2.6738
   65MOL   H11320721   5.446   3.511   6.576 -0.2101 -0.7071 -0.9894
   65MOL   C11420722   5.295   3.602   6.697  0.8501 -0.8498  0.1667
   65MOL   C11520723   5.370   3.580   6.829 -0.2486  0.2986  0.2543
   65MOL   C11620724   5.510   3.615   6.838  0.6511 -0.4419 -0.3013
   65MOL   C11720725   5.586   3.596   6.957  0.7675 -0.2791 -0.4504
   65MOL   C11820726   5.521   3.540   7.069  0.3045  0.0846 -0.3331
   65MOL  Cl11920727   5.589   3.511   7.225 -0.3641 -0.2048  0.5087
   65MOL   C12020728   5.383   3.506   7.064 -0.0344 -0.2298 -0.1382
   65MOL   C12120729   5.315   3.516   6.943 -0.2216  0.8388  0.6612
   65MOL   C12220730   5.308   3.749   6.633  0.0547  0.1519 -0.5732
   65MOL   H12320731   5.189   3.587   6.720  1.1934 -0.7367  1.8645
   65MOL   H12420732   5.560   3.661   6.754 -1.8939  0.5646 -1.2936
   65MOL   H12520733   5.689   3.629   6.960  0.2366  1.5601 -1.4011
   65MOL   H12620734   5.339   3.458   7.151  1.1926 -0.7275  0.2287
   65MOL   H12720735   5.212   3.484   6.937 -0.1364  0.8957 -1.3095
   65MOL   H12820736   5.405   3.768   6.589  0.2969 -0.8599 -0.4879
   65MOL   H12920737   5.243   3.758   6.546 -0.0565  1.3775 -0.3704
   65MOL   C13020738   5.277   3.862   6.738  0.7194  0.9696  0.2966
   65MOL   C13120739   5.401   3.898   6.810  0.1582 -0.4827 -0.4192
   65MOL   C13220740   5.396   3.893   6.957 -0.4845  0.0693 -0.4526
   65MOL   C13320741   5.521   3.912   7.028 -0.2660  0.0556 -0.3810
   65MOL   C13420742   5.642   3.943   6.953 -0.3672  0.5293 -1.1151
   65MOL  Cl13520743   5.793   3.965   7.037 -0.0658  0.3220 -0.0747
   65MOL   C13620744   5.642   3.949   6.816  0.4426 -0.0494  0.0356
   65MOL   C13720745   5.527   3.931   6.742 -0.2740  0.5113 -0.7347
   65MOL   C13820746   5.209   3.985   6.675  0.1357  0.5466 -0.2931
   65MOL   H13920747   5.213   3.804   6.805 -1.2777  0.7920 -1.6936
   65MOL   H14020748   5.305   3.863   7.006  0.3233 -2.4316 -0.4006
   65MOL   H14120749   5.526   3.896   7.135  0.4710  2.7825  0.0399
   65MOL   H14220750   5.729   3.956   6.753  0.6689  0.7979  0.4287
   65MOL   H14320751   5.522   3.951   6.636  2.8144  1.1595 -0.8150
   65MOL   H14420752   5.294   4.031   6.625  1.3224 -0.6061  0.6194
   65MOL   H14520753   5.125   3.954   6.612 -1.2133  0.7844  1.3406
   65MOL   C14620754   5.145   4.082   6.768 -0.3716 -0.0310 -0.7355
   65MOL   C14720755   5.175   4.229   6.721 -0.7099  0.3586 -0.8213
   65MOL   C14820756   5.256   4.313   6.804  0.4296  0.3174 -0.0646
   65MOL   C14920757   5.292   4.444   6.758  0.5292  0.2676 -0.6304
   65MOL   C15020758   5.238   4.494   6.643  0.2017  0.1294  0.5922
   65MOL  Cl15120759   5.295   4.651   6.578 -0.3224  0.1100 -0.3760
   65MOL   C15220760   5.153   4.408   6.560  0.3916 -0.5275 -0.2863
   65MOL   C15320761   5.135   4.275   6.594  0.4910  0.6508  0.1181
   65MOL   C15420762   4.993   4.055   6.777  0.8602 -0.3576 -0.5982
   65MOL   H15520763   5.184   4.066   6.869  1.7358  0.9681 -1.3727
   65MOL   H15620764   5.302   4.281   6.896 -2.0280  2.5338  2.0297
   65MOL   H15720765   5.359   4.504   6.817 -1.3565  1.4450  0.3334
   65MOL   H15820766   5.113   4.444   6.467 -0.1837  1.3203  0.6469
   65MOL   H15920767   5.077   4.206   6.535  0.7364 -0.7782  1.5112
   65MOL   H16020768   4.938   4.108   6.699 -0.8314  0.2802  0.9912
   65MOL   H16120769   4.960   3.952   6.767 -3.5145  0.8717  0.1678
   65MOL   C16220770   4.920   4.112   6.910  0.3370  0.3688 -0.7836
   65MOL   C16320771   4.928   4.262   6.925  0.3559 -0.0034 -0.3036
   65MOL   C16420772   5.008   4.319   7.020 -0.0984 -0.0627  0.1846
   65MOL   C16520773   5.008   4.459   7.026 -0.1468  0.3455  0.1144
   65MOL   C16620774   4.944   4.542   6.928  0.1147 -0.1102  0.4109
   65MOL  Cl16720775   4.956   4.711   6.956  0.4825  0.1772 -0.3234
   65MOL   C16820776   4.862   4.482   6.832  0.2817  0.1493  0.7797
   65MOL   C16920777   4.849   4.342   6.832 -0.0456 -0.8148 -0.4454
   65MOL   C17020778   4.782   4.050   6.912 -0.0818 -0.3685 -0.5316
   65MOL   H17120779   4.967   4.057   6.991  1.8711 -0.6337 -2.3103
   65MOL   H17220780   5.074   4.270   7.089 -0.6266  0.1354  0.8359
   65MOL   H17320781   5.058   4.506   7.109  1.1222 -0.9793  0.1088
   65MOL   H17420782   4.800   4.543   6.768 -0.1070  1.2113  2.1590
   65MOL   H17520783   4.777   4.293   6.769 -2.2335  1.9726 -0.2145
   65MOL   H17620784   4.746   4.070   6.811  0.8243  2.2230 -0.4072
   65MOL   H17720785   4.781   3.942   6.907  0.8295 -0.3744 -0.7584
   65MOL   C17820786   4.658   4.106   6.994  1.3107  0.4198  0.1484
   65MOL   C17920787   4.528   4.113   6.905  0.0224 -0.3975 -0.3879
   65MOL   C18020788   4.480   3.996   6.844  0.0347  0.0722 -0.1211
   65MOL   C18120789   4.356   3.998   6.778 -0.4375  0.9334 -0.1525
   65MOL   C18220790   4.283   4.111   6.775 -0.4055 -0.2139 -0.7875
   65MOL  Cl18320791   4.123   4.105   6.714  0.2247 -0.0066  0.0782
   65MOL   C18420792   4.330   4.228   6.837  0.0575 -0.3765  0.1208
   65MOL   C18520793   4.449   4.228   6.908 -0.0625  0.0764 -0.0994
   65MOL   C18620794   4.617   4.034   7.126  0.0368 -0.4569  0.1689
   65MOL   H18720795   4.671   4.210   7.023 -0.9948  1.0396 -0.9669
   65MOL   H18820796   4.529   3.902   6.865 -0.3032 -0.2168 -0.6081
   65MOL   H18920797   4.328   3.906   6.729 -0.7885 -0.1713  2.0496
   65MOL   H19020798   4.266   4.315   6.839  0.7885  0.1521  0.9260
   65MOL   H19120799   4.488   4.323   6.941 -0.3107 -0.6372  2.3248
   65MOL   H19220800   4.535   4.089   7.172  0.5361  0.7843 -0.4174
   65MOL   H19320801   4.587   3.935   7.090 -0.9081 -0.0131 -0.2727
   65MOL   C19420802   4.725   4.008   7.233  0.1828  0.8872 -0.0730
   65MOL   C19520803   4.793   4.135   7.285 -0.5392  0.2932  0.0770
   65MOL   C19620804   4.931   4.154   7.283 -0.6297 -0.0290  0.8862
   65MOL   C19720805   4.997   4.263   7.346 -0.1404 -0.1301  0.2199
   65MOL   C19820806   4.915   4.368   7.390  0.4630  0.4667  0.0077
   65MOL  Cl19920807   4.986   4.516   7.442  0.0587 -0.0028  0.0811
   65MOL   C20020808   4.772   4.361   7.387 -0.3453  0.0071  0.2596
   65MOL   C20120809   4.713   4.244   7.338  0.7974  0.0970  0.1006
   65MOL   C20220810   4.653   3.932   7.347 -0.3656  1.1038  0.3489
   65MOL   H20320811   4.799   3.941   7.190  0.8098  1.5953 -0.1059
   65MOL   H20420812   4.990   4.088   7.221 -1.6257 -0.4789  0.4094
   65MOL   H20520813   5.103   4.280   7.334 -0.2773  0.3086 -0.4009
   65MOL   H20620814   4.717   4.449   7.416 -2.1056 -0.6069 -1.1179
   65MOL   H20720815   4.605   4.245   7.341  0.7752  0.3649 -0.6133
   65MOL   H20820816   4.578   3.991   7.400 -1.5949  0.5798 -0.7603
   65MOL   H20920817   4.590   3.852   7.308  1.1189  0.1087 -0.0575
   65MOL   C21020818   4.750   3.859   7.439 -0.0176 -0.4480  0.1553
   65MOL   C21120819   4.805   3.933   7.564  0.4743 -0.3416  0.0096
   65MOL   C21220820   4.946   3.930   7.591  0.7230  0.5298 -0.3490
   65MOL   C21320821   5.001   4.003   7.698 -0.2375  0.1183  0.2300
   65MOL   C21420822   4.909   4.072   7.785 -0.5155  0.3969 -0.6381
   65MOL  Cl21520823   4.972   4.167   7.922 -0.2319  0.0024  0.0438
   65MOL   C21620824   4.770   4.066   7.761  0.6363  0.4259  0.1846
   65MOL   C21720825   4.722   3.995   7.652 -0.9182 -0.7084  0.6735
   65MOL   C21820826   4.704   3.721   7.479  0.1625 -0.2376 -1.0934
   65MOL   H21920827   4.836   3.845   7.374 -0.0856 -0.4893  0.0743
   65MOL   H22020828   5.022   3.882   7.532  1.5307  0.1925  0.9476
   65MOL   H22120829   5.109   4.005   7.706 -0.4250  3.3486  3.0148
   65MOL   H22220830   4.694   4.124   7.812  1.0427  0.6962  0.4796
   65MOL   H22320831   4.616   3.990   7.629 -0.8211  0.4110 -0.0719
   65MOL   H22420832   4.787   3.687   7.541 -0.4037 -0.0846 -0.2319
   65MOL   H22520833   4.623   3.727   7.553  1.0206  1.1428 -0.2358
   65MOL   C22620834   4.678   3.611   7.377 -0.1869  0.0492  0.2542
   65MOL   C22720835   4.753   3.620   7.241 -0.4552  0.8254  0.5269
   65MOL   C22820836   4.673   3.638   7.129 -0.7978  0.0348  0.0042
   65MOL   C22920837   4.738   3.659   7.006  0.1569 -0.6197 -0.0049
   65MOL   C23020838   4.879   3.652   6.995  0.3054  0.5591  0.0649
   65MOL  Cl23120839   4.965   3.673   6.848 -0.4919  0.2565 -0.2017
   65MOL   C23220840   4.954   3.631   7.110  0.1954  0.3939  0.5942
   65MOL   C23320841   4.896   3.608   7.236  0.2991  0.2279  0.3982
   65MOL   C23420842   4.685   3.465   7.434  0.1277  0.0733  0.6578
   65MOL   H23520843   4.571   3.617   7.355 -0.2875  0.5822  0.8985
   65MOL   H23620844   4.565   3.642   7.126 -0.8937 -0.7734  2.0228
   65MOL   H23720845   4.671   3.666   6.922 -0.9801  0.3994  0.9528
   65MOL   H23820846   5.062   3.622   7.107  0.2239  1.1130 -2.3755
   65MOL   H23920847   4.965   3.604   7.319 -0.5507  2.4256  1.2423
   65MOL   H24020848   4.780   3.444   7.484 -0.2855 -1.6151  0.7648
   65MOL   H24120849   4.605   3.458   7.508 -0.2733  0.8344  0.2991
   65MOL   C24220850   4.681   3.345   7.332 -0.1255 -0.3410  0.0302
   65MOL   C24320851   4.696   3.220   7.418  0.2938 -0.3331 -0.4259
   65MOL   C24420852   4.592   3.184   7.506 -0.6351  0.0710  0.8447
   65MOL   C24520853   4.598   3.054   7.564  0.0977 -0.1209  0.0313
   65MOL   C24620854   4.703   2.968   7.539  0.6491  0.0967 -0.7298
   65MOL  Cl24720855   4.694   2.824   7.630  0.0779  0.0676  0.3089
   65MOL   C24820856   4.807   2.999   7.448 -0.3096 -0.6181  0.5103
   65MOL   C24920857   4.806   3.131   7.396 -0.2593  0.2691  0.1276
   65MOL   C25020858   4.546   3.351   7.249 -0.3992  0.3198 -0.0778
   65MOL   H25120859   4.768   3.344   7.267 -0.6183 -1.9361 -0.6316
   65MOL   H25220860   4.507   3.245   7.530  0.6436  2.9687 -1.7845
   65MOL   H25320861   4.515   3.022   7.626  0.2934  0.7647  0.7534
   65MOL   H25420862   4.894   2.940   7.426 -0.0299  0.2693 -0.8118
   65MOL   H25520863   4.882   3.166   7.329 -0.1603  1.3489  0.7810
   65MOL   H25620864   4.469   3.332   7.324 -0.9106  0.0000 -0.6798
   65MOL   H25720865   4.522   3.455   7.227 -1.6319  0.3953  1.4789
   65MOL   C25820866   4.533   3.264   7.122  0.0670 -0.5173  0.6731
   65MOL   C25920867   4.510   3.114   7.153  0.3181 -0.2015  0.2595
   65MOL   C26020868   4.593   3.020   7.089  0.3659  0.3152 -0.0124
   65MOL   C26120869   4.589   2.889   7.129  0.7214  0.7779  0.3231
   65MOL   C26220870   4.509   2.850   7.234 -0.1163  0.3968  0.3346
   65MOL  Cl26320871   4.522   2.687   7.286 -0.4701  0.1706  0.1082
   65MOL   C26420872   4.422   2.939   7.301  0.1880 -0.6324  0.0163
   65MOL   C26520873   4.421   3.074   7.256 -0.0421 -0.0305 -0.1944
   65MOL   C26620874   4.437   3.335   7.025 -0.3647  0.1207 -1.0026
   65MOL   H26720875   4.630   3.268   7.072 -0.7997 -1.8963 -1.1290
   65MOL   H26820876   4.658   3.048   7.008  0.3487 -0.1386 -0.1809
   65MOL   H26920877   4.641   2.814   7.070 -1.8759  2.1399 -3.9043
   65MOL   H27020878   4.373   2.902   7.390 -0.7765  1.5445  0.4192
   65MOL   H27120879   4.359   3.147   7.306 -0.1642  0.6677 -1.3566
   65MOL   H27220880   4.485   3.420   6.977 -0.1713  0.2789 -0.5235
   65MOL   H27320881   4.415   3.260   6.948 -0.0030 -0.2716 -0.7281
   65MOL   C27420882   4.290   3.373   7.070 -0.0133  0.4618 -0.0154
   65MOL   C27520883   4.286   3.512   7.134 -0.5029  0.6873 -0.1211
   65MOL   C27620884   4.321   3.630   7.051  0.9202  0.7435  1.1813
   65MOL   C27720885   4.323   3.756   7.111  0.1561  0.1892 -0.2271
   65MOL   C27820886   4.284   3.775   7.245 -0.1800  0.5396 -0.4755
   65MOL  Cl27920887   4.287   3.927   7.326 -0.3497  0.4799 -0.0924
   65MOL   C28020888   4.237   3.663   7.318 -0.3889  0.6075  0.0103
   65MOL   C28120889   4.249   3.532   7.270  0.1212  0.3785  0.2622
   65MOL   C28220890   4.181   3.361   6.959  0.3225  0.2589  0.2180
   65MOL   H28320891   4.259   3.300   7.145  0.4123  2.1407  1.8297
   65MOL   H28420892   4.339   3.611   6.946 -1.4139 -1.5077  1.1541
   65MOL   H28520893   4.348   3.845   7.055  1.3893 -1.4999 -2.4205
   65MOL   H28620894   4.214   3.677   7.423  0.7771 -0.1804  0.3785
   65MOL   H28720895   4.213   3.451   7.332 -2.4086  2.8258  2.1155
   65MOL   H28820896   4.099   3.427   6.987  1.4453  2.5903 -1.8439
   65MOL   H28920897   4.226   3.400   6.868  1.0901  0.3792  0.6373
   65MOL   C29020898   4.127   3.220   6.928  0.4967  0.2184 -0.8099
   65MOL   C29120899   4.071   3.153   7.055 -0.3355 -0.0295  0.0516
   65MOL   C29220900   4.127   3.028   7.094 -0.0389  1.1844 -0.0686
   65MOL   C29320901   4.069   2.963   7.206 -0.0215  0.0909 -0.3469
   65MOL   C29420902   3.961   3.025   7.278 -0.4999  0.0594  0.4937
   65MOL  Cl29520903   3.889   2.952   7.411  0.0397 -0.0220  0.1879
   65MOL   C29620904   3.908   3.149   7.239 -0.2873  0.3199  0.3622
   65MOL   C29720905   3.970   3.215   7.132 -0.2706  0.1093  0.9651
   65MOL   C29820906   4.021   3.225   6.818 -0.4035  0.3359  0.1510
   65MOL   H29920907   4.219   3.170   6.897  2.4499  2.2681  1.5868
   65MOL   H30020908   4.210   2.979   7.045 -2.3100 -2.5115 -0.4239
   65MOL   H30120909   4.107   2.866   7.236 -0.3320  0.4031  1.0861
   65MOL   H30220910   3.825   3.195   7.290 -1.9670  0.6903 -2.6348
   65MOL   H30320911   3.936   3.315   7.106 -0.3582 -0.6303 -1.9636
   65MOL   H30420912   3.931   3.262   6.868  0.5140  1.6916  0.8495
   65MOL   H30520913   4.059   3.304   6.753  2.5589 -0.5756  0.6689
   65MOL   C30620914   4.020   3.099   6.731  0.1198  0.2488  0.0580
   65MOL   C30720915   3.952   2.978   6.788  0.8779 -0.4295 -0.4088
   65MOL   C30820916   4.005   2.851   6.758 -0.4812  0.5479  0.0616
   65MOL   C30920917   3.944   2.735   6.808 -0.6897 -0.0341 -0.0438
   65MOL   C31020918   3.821   2.741   6.873 -0.7348  0.1425 -0.7671
   65MOL  Cl31120919   3.730   2.604   6.941 -0.2092 -0.4853  0.3738
   65MOL   C31220920   3.762   2.870   6.892  0.2964  0.2676 -0.5077
   65MOL   C31320921   3.826   2.991   6.851  0.1016  0.4230 -0.0655
   65MOL   C31420922   3.949   3.136   6.598 -1.4462 -0.5057  0.0518
   65MOL   H31520923   4.123   3.071   6.706  0.7426  1.6046  1.0455
   65MOL   H31620924   4.091   2.846   6.693  1.3844 -1.6390  2.5863
   65MOL   H31720925   3.992   2.646   6.771  2.9892  1.9662 -0.3704
   65MOL   H31820926   3.668   2.882   6.944 -1.1038  0.1735 -2.9157
   65MOL   H31920927   3.795   3.087   6.890  0.5314  1.0709 -1.2782
   65MOL   H32020928   3.954   3.054   6.526  0.5452 -1.2432  0.9993
   65MOL   H32120929   3.849   3.178   6.608 -1.0257  0.9678 -1.5940
   65MOL   H32220930   4.009   3.219   6.560  0.1156 -2.4830 -2.0050
   66MOL     C120931   7.078   1.431   6.756  0.4319 -0.1864  0.3237
   66MOL     C220932   7.030   1.297   6.805 -0.4844  0.2580 -0.3032
   66MOL     C320933   6.980   1.194   6.723 -0.3966  0.3996  1.1001
   66MOL     C420934   6.930   1.073   6.781 -0.0702  0.0976 -0.2256
   66MOL     C520935   6.959   1.049   6.914 -0.1301 -0.6823 -0.7099
   66MOL    Cl620936   6.907   0.896   6.974 -0.2264 -0.0601 -0.3939
   66MOL     C720937   7.015   1.149   6.999  0.4668  0.5061 -0.3121
   66MOL     C820938   7.040   1.281   6.945 -0.3952  0.0102 -0.3546
   66MOL     C920939   7.230   1.459   6.785  0.3224 -0.3844  0.2795
   66MOL    H1020940   7.009   1.507   6.794  0.6151  1.0295 -1.6941
   66MOL    H1120941   6.974   1.210   6.616 -0.5224 -0.3338  0.9891
   66MOL    H1220942   6.874   1.000   6.723  0.3948 -1.1642  0.8692
   66MOL    H1320943   7.012   1.125   7.104  0.5294 -3.9440 -1.2674
   66MOL    H1420944   7.065   1.370   7.001  1.8841 -0.3168 -0.7790
   66MOL    H1520945   7.244   1.489   6.889  0.5435 -2.5751  0.9105
   66MOL    H1620946   7.286   1.366   6.778  1.0105  0.1118 -0.9651
   66MOL    H1720947   7.066   1.431   6.648 -0.9008  1.3389  0.4619
   66MOL    C1820948   7.290   1.569   6.698 -0.7444 -0.3597 -0.0508
   66MOL    C1920949   7.276   1.713   6.748  0.1940 -0.0364  0.3084
   66MOL    C2020950   7.365   1.786   6.825  0.2818  0.4763 -0.1572
   66MOL    C2120951   7.331   1.916   6.866 -0.1797 -0.0698  1.1350
   66MOL    C2220952   7.207   1.974   6.839  0.5971  0.1615 -0.7216
   66MOL   Cl2320953   7.186   2.145   6.868  0.7565 -0.2248  0.0058
   66MOL    C2420954   7.111   1.902   6.767 -0.6950  0.8275  0.6495
   66MOL    C2520955   7.152   1.774   6.721 -0.1311 -0.7960  0.1925
   66MOL    C2620956   7.437   1.531   6.665  0.3071  0.2110  0.0543
   66MOL    H2720957   7.232   1.562   6.606 -0.5151 -1.1110 -0.1413
   66MOL    H2820958   7.459   1.752   6.865 -0.2048  0.2550  0.8277
   66MOL    H2920959   7.405   1.975   6.918  1.5767 -1.6364  0.4971
   66MOL    H3020960   7.017   1.948   6.739 -1.1571 -1.5744 -1.8950
   66MOL    H3120961   7.093   1.722   6.647  0.1490 -0.9976  0.1116
   66MOL    H3220962   7.476   1.619   6.614  0.3858 -0.3951 -0.9434
   66MOL    H3320963   7.497   1.513   6.754 -0.0888 -2.2481 -0.1504
   66MOL    C3420964   7.454   1.410   6.566  0.0410 -0.1313  0.2450
   66MOL    C3520965   7.349   1.402   6.456 -0.1183 -0.2055 -0.4306
   66MOL    C3620966   7.238   1.311   6.463 -0.9050  0.1226  0.3826
   66MOL    C3720967   7.136   1.315   6.372 -0.4222 -0.5799  0.0615
   66MOL    C3820968   7.139   1.410   6.264  1.1863 -0.3020 -0.4085
   66MOL   Cl3920969   7.011   1.433   6.156  0.1613 -0.1183  0.1357
   66MOL    C4020970   7.258   1.485   6.243 -0.1003  0.3848  0.0644
   66MOL    C4120971   7.360   1.487   6.340 -0.0453  0.3497 -0.0386
   66MOL    C4220972   7.602   1.393   6.519 -0.1413  0.6874 -0.5507
   66MOL    H4320973   7.446   1.325   6.634 -0.9252  1.0289  1.6089
   66MOL    H4420974   7.235   1.243   6.547 -1.5388 -0.2770  0.0437
   66MOL    H4520975   7.051   1.252   6.393  1.6634 -3.6173 -0.3189
   66MOL    H4620976   7.263   1.559   6.164 -1.1858  0.6144  0.2083
   66MOL    H4720977   7.442   1.554   6.321  1.5076 -0.9137  2.0882
   66MOL    H4820978   7.604   1.462   6.435 -1.8632 -1.2432 -2.2589
   66MOL    H4920979   7.660   1.433   6.602  0.3678  0.9022 -1.0105
   66MOL    C5020980   7.639   1.254   6.469  0.8275 -0.4787 -0.0987
   66MOL    C5120981   7.768   1.272   6.385  0.7309  0.3333 -0.3063
   66MOL    C5220982   7.780   1.221   6.249 -0.6801  0.7659 -0.0428
   66MOL    C5320983   7.907   1.215   6.184 -0.1698  0.5334  0.2015
   66MOL    C5420984   8.023   1.257   6.251  0.7627  0.3957 -0.2744
   66MOL   Cl5520985   8.176   1.244   6.172  0.2411 -0.0658  0.0473
   66MOL    C5620986   8.011   1.328   6.375 -0.4667 -0.2243 -0.4101
   66MOL    C5720987   7.883   1.337   6.441  0.6898  0.2535 -0.5104
   66MOL    C5820988   7.669   1.157   6.584 -0.8346 -0.0019  0.3571
   66MOL    H5920989   7.565   1.220   6.397  2.2592 -2.7311 -0.5790
   66MOL    H6020990   7.707   1.163   6.195  1.2169 -0.4896 -1.2855
   66MOL    H6120991   7.921   1.158   6.093  1.1941  1.1121  0.0266
   66MOL    H6220992   8.090   1.376   6.429 -0.7372  1.5012 -1.5225
   66MOL    H6320993   7.872   1.380   6.540 -1.0386  0.0623 -0.6082
   66MOL    H6420994   7.775   1.155   6.608 -0.8510 -0.2159  0.4115
   66MOL    H6520995   7.631   1.207   6.673 -0.1906 -0.9698  1.1783
   66MOL    C6620996   7.620   1.020   6.580  0.6042  0.0977  0.6275
   66MOL    C6720997   7.658   0.958   6.448 -0.2577  0.5549  0.6258
   66MOL    C6820998   7.562   0.939   6.342 -0.3689  1.1097  0.1056
   66MOL    C6920999   7.603   0.907   6.211 -0.0607  0.3345  0.5312
   66MOL    C7021000   7.736   0.877   6.188 -0.3354 -0.3347  0.6109
   66MOL   Cl7121001   7.783   0.838   6.022  0.2484 -0.0295 -0.0922
   66MOL    C7221002   7.835   0.892   6.288  0.4617  0.4170 -1.2566
   66MOL    C7321003   7.793   0.926   6.416  0.3522  0.3744  0.1838
   66MOL    C7421004   7.660   0.934   6.703 -0.3133 -0.5296 -0.4052
   66MOL    H7521005   7.512   1.027   6.567  0.7740  2.9239  0.5655
   66MOL    H7621006   7.461   0.967   6.369 -0.5604 -0.6750  1.3367
   66MOL    H7721007   7.530   0.915   6.132  1.2252  3.9652 -0.4046
   66MOL    H7821008   7.937   0.869   6.262  0.7000 -0.1700  0.2021
   66MOL    H7921009   7.874   0.927   6.487  0.2974 -2.1413  0.3169
   66MOL    H8021010   7.679   0.834   6.662 -1.2408 -0.6709 -0.4897
   66MOL    H8121011   7.753   0.970   6.746 -0.1243 -1.3193 -0.1429
   66MOL    C8221012   7.550   0.927   6.812  0.3598  0.1348 -0.1927
   66MOL    C8321013   7.423   0.848   6.772 -0.3146 -0.1160 -0.3597
   66MOL    C8421014   7.308   0.922   6.737 -0.1178  0.0926  0.1378
   66MOL    C8521015   7.186   0.858   6.716  0.4118 -0.2227 -0.1316
   66MOL    C8621016   7.178   0.720   6.727  0.1741  0.9284 -0.4435
   66MOL   Cl8721017   7.022   0.644   6.720  0.4517 -0.0689 -0.3601
   66MOL    C8821018   7.293   0.641   6.747 -0.1422 -0.3097 -0.0561
   66MOL    C8921019   7.415   0.710   6.769  0.2401 -0.2714 -0.5009
   66MOL    C9021020   7.605   0.891   6.958  0.2439  0.1558  0.0387
   66MOL    H9121021   7.505   1.027   6.811 -3.2968 -1.4366 -1.3149
   66MOL    H9221022   7.319   1.029   6.728 -0.2673  0.2451  1.6280
   66MOL    H9321023   7.098   0.920   6.705  0.8798  0.3994 -0.4125
   66MOL    H9421024   7.281   0.534   6.740 -4.3296  0.0372  0.6853
   66MOL    H9521025   7.506   0.659   6.797 -0.3560 -1.2215 -0.2684
   66MOL    H9621026   7.519   0.860   7.018  0.8997 -1.1351  0.3204
   66MOL    H9721027   7.665   0.803   6.937 -0.5781  0.1299 -2.4538
   66MOL    C9821028   7.703   0.999   7.026  0.6163  0.0590  0.1859
   66MOL    C9921029   7.637   1.138   7.028 -0.5781 -0.1417  0.1699
   66MOL   C10021030   7.728   1.251   7.010  0.1116  0.3393 -0.8589
   66MOL   C10121031   7.673   1.381   7.015  0.2968  0.2647  0.2203
   66MOL   C10221032   7.537   1.394   7.049 -0.0676 -0.7904 -0.0887
   66MOL  Cl10321033   7.473   1.547   7.057 -0.3599 -0.3782  0.5132
   66MOL   C10421034   7.452   1.290   7.078 -0.0120  0.0164 -0.2184
   66MOL   C10521035   7.504   1.163   7.061  0.5906 -0.0082  0.6324
   66MOL   C10621036   7.753   0.964   7.169 -0.1577 -0.2602  0.1398
   66MOL   H10721037   7.791   1.003   6.962  1.3368  1.0898  1.2198
   66MOL   H10821038   7.833   1.233   6.994 -0.1995 -2.1046 -0.3315
   66MOL   H10921039   7.736   1.467   7.000  0.4770  0.2260  0.7372
   66MOL   H11021040   7.350   1.308   7.109 -0.3106 -0.3996 -0.9375
   66MOL   H11121041   7.436   1.081   7.084 -1.8417  2.1299  1.3259
   66MOL   H11221042   7.809   1.054   7.195 -0.1826 -0.1546 -0.1614
   66MOL   H11321043   7.666   0.965   7.234 -0.4530  0.0025 -0.2548
   66MOL   C11421044   7.830   0.832   7.192  0.5421 -0.2406  0.1765
   66MOL   C11521045   7.933   0.798   7.086  0.0677  0.3461  0.2862
   66MOL   C11621046   8.049   0.874   7.082  1.0977  0.4123 -0.5905
   66MOL   C11721047   8.152   0.833   7.000 -0.1149  0.5335 -0.2954
   66MOL   C11821048   8.138   0.719   6.917 -0.1486 -0.3408 -0.2374
   66MOL  Cl11921049   8.264   0.666   6.817 -0.1190  0.1839 -0.0372
   66MOL   C12021050   8.018   0.647   6.921  0.6506  0.0908 -0.2036
   66MOL   C12121051   7.914   0.693   7.000  0.0420  0.4596  0.4704
   66MOL   C12221052   7.882   0.817   7.340 -0.0260 -0.5254 -0.4826
   66MOL   H12321053   7.759   0.751   7.177  0.2597  0.0820 -0.2655
   66MOL   H12421054   8.064   0.965   7.139 -0.3673  1.2936 -1.5710
   66MOL   H12521055   8.234   0.902   6.986  1.7761 -1.5448  0.3552
   66MOL   H12621056   8.010   0.557   6.862  0.1767 -1.4533  2.1752
   66MOL   H12721057   7.822   0.637   7.012  1.4955 -1.4474  3.1909
   66MOL   H12821058   7.968   0.884   7.350 -0.6829  0.2288  0.2955
   66MOL   H12921059   7.800   0.865   7.394 -1.6516 -1.8759 -1.7044
   66MOL   C13021060   7.896   0.673   7.400 -0.4241  0.2300  0.1907
   66MOL   C13121061   8.020   0.610   7.340  0.8657 -0.4839  0.5531
   66MOL   C13221062   7.998   0.504   7.253  0.3313  0.8702 -0.1425
   66MOL   C13321063   8.106   0.432   7.201 -0.3014 -0.7863  0.2906
   66MOL   C13421064   8.238   0.487   7.218  0.3330 -0.3218 -0.6195
   66MOL  Cl13521065   8.379   0.419   7.141  0.0736 -0.4014  0.3960
   66MOL   C13621066   8.254   0.609   7.287 -0.1517 -0.2159  0.7474
   66MOL   C13721067   8.150   0.658   7.359 -0.0048  0.0800  0.1820
   66MOL   C13821068   7.897   0.671   7.552  0.0355 -0.1021  0.1767
   66MOL   H13921069   7.808   0.615   7.375  0.3733 -1.0260  0.2715
   66MOL   H14021070   7.901   0.460   7.235  0.2789  2.1597 -3.3948
   66MOL   H14121071   8.075   0.343   7.149  0.4004 -1.0151  0.2680
   66MOL   H14221072   8.348   0.659   7.304  0.4286 -0.7273 -0.9124
   66MOL   H14321073   8.178   0.736   7.428 -1.2376  0.7660 -0.0697
   66MOL   H14421074   7.950   0.580   7.582  2.2640  0.6257 -1.4739
   66MOL   H14521075   7.967   0.744   7.590  0.1257 -1.2277  2.2829
   66MOL   C14621076   7.760   0.693   7.621  0.3946  0.3884 -0.4819
   66MOL   C14721077   7.677   0.565   7.622  0.1200  0.1106  0.3550
   66MOL   C14821078   7.708   0.459   7.714  0.1462  0.0859 -0.1845
   66MOL   C14921079   7.626   0.341   7.712  0.2944 -0.2903  0.1332
   66MOL   C15021080   7.527   0.329   7.616 -0.4462  0.5028 -0.4517
   66MOL  Cl15121081   7.437   0.192   7.607 -0.5051  0.2549 -0.0040
   66MOL   C15221082   7.497   0.428   7.533 -0.1139  0.9104  0.4070
   66MOL   C15321083   7.571   0.547   7.530  0.9047  0.1639  0.5317
   66MOL   C15421084   7.782   0.744   7.764  0.3055  0.2582 -0.6269
   66MOL   H15521085   7.698   0.771   7.578  0.7702  0.0949 -1.5901
   66MOL   H15621086   7.784   0.479   7.789  0.1457 -0.1715 -0.1172
   66MOL   H15721087   7.651   0.275   7.793 -0.7023 -2.5410 -1.3500
   66MOL   H15821088   7.408   0.410   7.473 -0.9007 -1.9142  2.3248
   66MOL   H15921089   7.549   0.623   7.456  0.3580 -0.4024  0.1111
   66MOL   H16021090   7.688   0.725   7.817  0.1791 -0.6033 -1.1373
   66MOL   H16121091   7.857   0.687   7.819  0.2106  1.0855  0.3741
   66MOL   C16221092   7.817   0.895   7.774  0.3974 -0.5465  0.2373
   66MOL   C16321093   7.728   0.978   7.685 -0.1751  0.4754 -0.2743
   66MOL   C16421094   7.792   1.061   7.591 -0.1366  0.0457  1.2741
   66MOL   C16521095   7.713   1.144   7.512  0.3791 -0.3265  0.1127
   66MOL   C16621096   7.575   1.142   7.527  0.2672  0.6234  0.1045
   66MOL  Cl16721097   7.484   1.244   7.414 -0.0814 -0.0290  0.0096
   66MOL   C16821098   7.513   1.043   7.604  0.5707  0.1861  0.4691
   66MOL   C16921099   7.590   0.973   7.695 -0.1009  0.5485 -0.3908
   66MOL   C17021100   7.828   0.938   7.919  0.5761  0.2335 -0.1837
   66MOL   H17121101   7.917   0.903   7.732 -0.7282  1.3871 -2.2134
   66MOL   H17221102   7.899   1.067   7.588 -0.0941 -0.7252  1.1449
   66MOL   H17321103   7.770   1.217   7.455 -0.1464  0.0130  0.0196
   66MOL   H17421104   7.406   1.025   7.601  0.2311  2.3033 -0.4742
   66MOL   H17521105   7.538   0.895   7.749 -0.8173 -0.1450 -2.0584
   66MOL   H17621106   7.734   0.910   7.967  1.5238 -2.6202  0.1200
   66MOL   H17721107   7.910   0.884   7.967 -0.7586  0.4053  2.3635
   66MOL   C17821108   7.859   1.091   7.943 -0.5181 -0.1855 -0.5541
   66MOL   C17921109   7.815   1.132   8.086 -0.3440 -0.1027 -0.3402
   66MOL   C18021110   7.709   1.220   8.099  0.1267 -0.7988 -0.3885
   66MOL   C18121111   7.675   1.285   8.216  0.2292  0.4639  0.3708
   66MOL   C18221112   7.741   1.246   8.333 -0.1121  0.8427 -0.5457
   66MOL  Cl18321113   7.695   1.310   0.046  0.0589 -0.0894 -0.1386
   66MOL   C18421114   7.844   1.145   8.329 -0.2392 -0.5757  0.0733
   66MOL   C18521115   7.877   1.086   8.205  0.8675  0.1882 -0.4815
   66MOL   C18621116   8.013   1.127   7.917 -0.3236 -0.6255  0.3424
   66MOL   H18721117   7.801   1.150   7.872 -0.1490  2.1658  1.0372
   66MOL   H18821118   7.649   1.246   8.013  0.3457 -1.3731 -0.7249
   66MOL   H18921119   7.600   1.363   8.224  0.0037  0.2771  0.0564
   66MOL   H19021120   7.888   1.112   8.422 -1.7400 -1.8120  0.3736
   66MOL   H19121121   7.956   1.013   8.194  2.0166  1.4284 -0.5887
   66MOL   H19221122   8.072   1.092   8.002  2.3272  0.0839 -1.1661
   66MOL   H19321123   8.048   1.076   7.827  0.1922 -0.3012  0.3603
   66MOL   C19421124   8.042   1.282   7.909 -0.1576 -0.7590  0.2039
   66MOL   C19521125   8.194   1.309   7.918 -0.3078 -0.3722 -0.2855
   66MOL   C19621126   8.239   1.407   8.014  0.5989  0.8707 -0.1911
   66MOL   C19721127   8.377   1.425   8.028  0.2319 -0.7276 -0.0529
   66MOL   C19821128   0.029   1.360   7.952  0.5426  0.2420  0.0127
   66MOL  Cl19921129   0.202   1.390   7.981  0.2650 -0.1926  0.0080
   66MOL   C20021130   8.426   1.282   7.846 -0.3657  0.5120  1.1118
   66MOL   C20121131   8.287   1.254   7.825 -0.9189 -0.1836 -0.0769
   66MOL   C20221132   7.980   1.345   7.783  0.1290 -0.0555 -0.5887
   66MOL   H20321133   7.995   1.327   7.997  3.4689  3.5858  0.0508
   66MOL   H20421134   8.175   1.456   8.086 -1.6056  0.4901 -1.8709
   66MOL   H20521135   8.403   1.499   8.102 -0.5960 -1.1642  0.6908
   66MOL   H20621136   0.060   1.241   7.782  1.9423  3.2304  2.0397
   66MOL   H20721137   8.239   1.202   7.743 -0.9593 -1.6608  0.8619
   66MOL   H20821138   8.028   1.283   7.707  0.3084  0.5805 -0.9957
   66MOL   H20921139   7.878   1.309   7.765 -0.6522  1.0125  1.5457
   66MOL   C21021140   7.995   1.493   7.757  0.1742 -0.4820 -0.2041
   66MOL   C21121141   7.988   1.509   7.602 -0.3376 -0.0469 -0.2656
   66MOL   C21221142   8.097   1.569   7.535  0.2620  1.0672 -0.0058
   66MOL   C21321143   8.096   1.585   7.394 -0.3931  0.4683  0.0378
   66MOL   C21421144   7.979   1.543   7.324 -0.0701 -0.6942 -0.1277
   66MOL  Cl21521145   7.978   1.568   7.155 -0.1655  0.0617 -0.2195
   66MOL   C21621146   7.863   1.506   7.390  0.1396 -1.0687 -0.4010
   66MOL   C21721147   7.871   1.482   7.532  0.2232  0.5534 -0.3870
   66MOL   C21821148   7.904   1.583   7.845 -0.3794  0.1883  0.3923
   66MOL   H21921149   8.096   1.524   7.784  0.4647  0.5892 -2.4368
   66MOL   H22021150   8.189   1.600   7.584  0.6086 -1.9038  1.3672
   66MOL   H22121151   8.184   1.624   7.345  0.3160  0.8640  1.5574
   66MOL   H22221152   7.767   1.493   7.343 -0.2607 -2.2941  0.7096
   66MOL   H22321153   7.780   1.451   7.581  2.0916  0.4196  3.1914
   66MOL   H22421154   7.818   1.600   7.780  0.6244 -0.0297 -1.0102
   66MOL   H22521155   7.880   1.535   7.940  1.9614  3.2811  2.6348
   66MOL   C22621156   7.963   1.719   7.898 -0.1186  1.4215  0.5411
   66MOL   C22721157   8.016   1.808   7.785  0.5151  0.0676  0.6984
   66MOL   C22821158   7.921   1.855   7.690 -0.3318 -0.2384  0.9472
   66MOL   C22921159   7.963   1.940   7.585  0.6047 -0.3472  0.2334
   66MOL   C23021160   8.099   1.971   7.573 -0.1574 -0.1103  0.6760
   66MOL  Cl23121161   8.149   2.085   7.456 -0.2345  0.1989 -0.2876
   66MOL   C23221162   8.195   1.923   7.665 -0.3869 -0.1160  0.4398
   66MOL   C23321163   8.155   1.840   7.774 -0.3325  0.4549 -0.6645
   66MOL   C23421164   7.863   1.799   7.980 -0.5584  0.2333 -0.0309
   66MOL   H23521165   8.054   1.699   7.955  1.3538  1.1047 -1.8405
   66MOL   H23621166   7.816   1.831   7.698 -0.6324  0.7488  0.0070
   66MOL   H23721167   7.900   1.987   7.511 -0.0729 -1.6268 -0.0292
   66MOL   H23821168   8.298   1.953   7.654 -0.3439 -0.6245 -0.6183
   66MOL   H23921169   8.219   1.788   7.843 -2.3802  1.3785  2.0041
   66MOL   H24021170   7.902   1.899   7.998 -0.7958  0.2870  0.1920
   66MOL   H24121171   7.774   1.818   7.919 -0.3886  1.7465  0.1647
   66MOL   C24221172   7.816   1.733   8.113  0.0408  0.2395 -0.5549
   66MOL   C24321173   7.927   1.701   8.208 -0.6919  0.0576  0.4567
   66MOL   C24421174   7.962   1.569   8.248 -0.4799 -0.0830 -0.1152
   66MOL   C24521175   8.067   1.537   8.335 -0.6231 -0.8094  0.2412
   66MOL   C24621176   8.151   1.642   8.382 -0.3806  0.1559  0.0726
   66MOL  Cl24721177   8.297   1.607   0.027 -0.0037  0.3728  0.3223
   66MOL   C24821178   8.128   1.773   8.343  0.2286  0.2252  0.3271
   66MOL   C24921179   8.013   1.805   8.264  0.2068 -0.8992 -0.0221
   66MOL   C25021180   7.705   1.817   8.176 -0.2406 -0.2477  0.4548
   66MOL   H25121181   7.771   1.637   8.088  2.0612 -1.0595  0.6189
   66MOL   H25221182   7.912   1.484   8.202  1.2059 -0.5136 -1.2151
   66MOL   H25321183   8.091   1.433   8.350  1.0876 -0.5197 -0.2672
   66MOL   H25421184   8.194   1.855   8.366 -1.8785  1.4842  2.0807
   66MOL   H25521185   7.988   1.908   8.239  2.3140 -0.1218  0.9525
   66MOL   H25621186   7.694   1.780   8.278  1.3995 -1.1329  0.3293
   66MOL   H25721187   7.747   1.915   8.197 -0.3163 -0.0126 -0.4610
   66MOL   C25821188   7.573   1.830   8.099  0.1824  0.0036  0.3126
   66MOL   C25921189   7.486   1.704   8.115  0.1970 -0.0372 -0.7502
   66MOL   C26021190   7.471   1.627   8.235 -0.0165 -0.5224 -0.6342
   66MOL   C26121191   7.380   1.518   8.236  0.0259 -0.0062 -0.4357
   66MOL   C26221192   7.307   1.493   8.120  0.0420  0.9643 -0.8318
   66MOL  Cl26321193   7.220   1.347   8.117  0.2316  0.0620 -0.3946
   66MOL   C26421194   7.312   1.571   8.008  0.7036  0.1680  0.0915
   66MOL   C26521195   7.406   1.675   8.004  0.1103  0.6522 -0.2031
   66MOL   C26621196   7.483   1.956   8.143  0.4557 -0.0680 -0.1687
   66MOL   H26721197   7.594   1.850   7.994 -1.4883 -0.2224 -0.0682
   66MOL   H26821198   7.526   1.650   8.325 -0.4938 -1.4308 -0.1065
   66MOL   H26921199   7.377   1.457   8.325 -1.7504 -0.8610 -1.0585
   66MOL   H27021200   7.245   1.552   7.926  0.1087  0.0312  0.6085
   66MOL   H27121201   7.414   1.748   7.925 -1.6545 -0.1776 -1.1601
   66MOL   H27221202   7.382   1.950   8.102  0.1597  0.5768  0.4563
   66MOL   H27321203   7.460   1.953   8.249 -5.1474 -3.2089 -1.2901
   66MOL   C27421204   7.537   2.102   8.120  0.1631  1.0280 -0.2550
   66MOL   C27521205   7.583   2.113   7.973 -0.6739  0.0310  0.0373
   66MOL   C27621206   7.486   2.095   7.875  1.3567  0.5054 -0.2972
   66MOL   C27721207   7.517   2.126   7.744 -0.0026 -0.0947  0.6900
   66MOL   C27821208   7.650   2.159   7.702 -0.3146 -0.7807  0.0439
   66MOL  Cl27921209   7.688   2.177   7.529  0.1366 -0.3522 -0.3984
   66MOL   C28021210   7.750   2.173   7.799  0.4840 -0.3969 -0.1105
   66MOL   C28121211   7.716   2.150   7.930 -0.2972  0.4270  0.3654
   66MOL   C28221212   7.436   2.217   8.156  0.0609  0.3121  0.9420
   66MOL   H28321213   7.627   2.133   8.173  0.1783 -1.1149  1.0134
   66MOL   H28421214   7.384   2.073   7.903  1.4533 -0.5648 -0.7716
   66MOL   H28521215   7.446   2.119   7.664  0.7367  2.6280 -0.2425
   66MOL   H28621216   7.853   2.191   7.773  1.1327 -0.7771  2.0878
   66MOL   H28721217   7.792   2.177   8.002 -0.4231  2.1302 -0.1273
   66MOL   H28821218   7.372   2.238   8.070  1.9295  0.3078 -0.4745
   66MOL   H28921219   7.374   2.186   8.240  0.3354  0.4291  1.1862
   66MOL   C29021220   7.501   2.341   8.217 -0.2428  0.3922  0.1040
   66MOL   C29121221   7.571   2.418   8.112  0.1067 -0.2129 -0.0868
   66MOL   C29221222   7.524   2.442   7.981  0.4367  0.2181 -0.1746
   66MOL   C29321223   7.594   2.511   7.880 -0.8117  0.4680 -0.7412
   66MOL   C29421224   7.722   2.551   7.913  0.5396  0.3964  0.3947
   66MOL  Cl29521225   7.816   2.631   7.792  0.5846  0.3020  0.3567
   66MOL   C29621226   7.778   2.525   8.038  0.4122 -0.0501 -0.1557
   66MOL   C29721227   7.702   2.461   8.139  0.3930 -0.1353 -0.7599
   66MOL   C29821228   7.397   2.420   8.299  0.4912 -0.2934  0.2182
   66MOL   H29921229   7.562   2.295   8.294 -0.7169 -1.0084 -0.3425
   66MOL   H30021230   7.426   2.404   7.955  0.3176  0.2586  0.2204
   66MOL   H30121231   7.535   2.533   7.792 -1.4540  0.7406 -0.2513
   66MOL   H30221232   7.878   2.551   8.067 -0.3181  0.3118  2.1282
   66MOL   H30321233   7.734   2.449   8.242 -1.1700  0.8928 -0.1333
   66MOL   H30421234   7.420   2.527   8.298 -2.0425  0.2642 -0.9624
   66MOL   H30521235   7.296   2.410   8.262 -0.5594  3.6986  1.7210
   66MOL   C30621236   7.390   2.388   0.006 -0.3088  0.2781  0.1869
   66MOL   C30721237   7.526   2.387   0.079  0.0109  0.4487  0.8872
   66MOL   C30821238   7.591   2.269   0.121  0.0375 -0.5629  0.2647
   66MOL   C30921239   7.710   2.269   0.195 -0.0533  0.3971 -0.1164
   66MOL   C31021240   7.768   2.390   0.228 -1.1458  0.0747 -0.2822
   66MOL  Cl31121241   7.912   2.379   0.322  0.3944 -0.0685 -0.2799
   66MOL   C31221242   7.702   2.509   0.201 -0.4751 -0.5824  0.1840
   66MOL   C31321243   7.582   2.511   0.125 -0.0009 -0.7516  0.4139
   66MOL   C31421244   7.290   2.491   0.065 -0.3236 -0.2317 -0.3517
   66MOL   H31521245   7.346   2.290   0.025  0.2281 -0.2919 -1.5148
   66MOL   H31621246   7.562   2.175   0.076  0.4949 -0.3727 -0.4210
   66MOL   H31721247   7.745   2.173   0.231 -2.0277 -0.5703 -0.7216
   66MOL   H31821248   7.738   2.607   0.229 -1.0569 -0.5668  0.8858
   66MOL   H31921249   7.532   2.601   0.092  1.1326 -0.7184 -1.2501
   66MOL   H32021250   7.314   2.597   0.060  0.7860 -0.3556  1.6688
   66MOL   H32121251   7.192   2.469   0.022 -0.6654 -0.1087  0.3456
   66MOL   H32221252   7.278   2.471   0.172 -0.4053 -2.7542 -0.8036
   67MOL     C121253   5.627   1.658   6.125  0.3462  0.0638 -0.5091
   67MOL     C221254   5.772   1.623   6.122 -0.9507  0.7349 -0.0718
   67MOL     C321255   5.871   1.717   6.161  1.0674  0.5583 -0.2354
   67MOL     C421256   6.007   1.694   6.152 -0.2007  0.6858  0.5114
   67MOL     C521257   6.044   1.569   6.099  0.0583  0.6478 -0.2025
   67MOL    Cl621258   6.211   1.528   6.090 -0.3232 -0.5601  0.1612
   67MOL     C721259   5.949   1.465   6.072  0.2055  0.3990 -0.1216
   67MOL     C821260   5.812   1.492   6.090 -0.9842  0.5208 -0.3302
   67MOL     C921261   5.581   1.721   6.255  0.0317  0.1550 -0.5869
   67MOL    H1021262   5.566   1.570   6.105 -2.1130  0.8882  2.9559
   67MOL    H1121263   5.835   1.814   6.194  0.0877  0.0961  0.0802
   67MOL    H1221264   6.075   1.777   6.168 -0.3758  0.6372  1.5468
   67MOL    H1321265   5.983   1.370   6.033 -0.7703  0.8113 -1.9966
   67MOL    H1421266   5.751   1.403   6.089 -1.9324  1.0900  2.2650
   67MOL    H1521267   5.588   1.648   6.335  3.2324 -1.2140 -2.0355
   67MOL    H1621268   5.639   1.808   6.285 -0.7169  0.2134  0.7439
   67MOL    H1721269   5.612   1.735   6.049  0.0629 -1.9897 -2.6049
   67MOL    C1821270   5.430   1.766   6.251  0.4075 -0.3885  0.4021
   67MOL    C1921271   5.389   1.788   6.394  0.4754 -0.1918  0.2220
   67MOL    C2021272   5.311   1.693   6.459  0.4975 -0.2394  0.2553
   67MOL    C2121273   5.265   1.725   6.587  0.0431 -0.1980  0.7875
   67MOL    C2221274   5.291   1.846   6.649  0.0418  0.3168 -1.0911
   67MOL   Cl2321275   5.235   1.871   6.810 -0.0909  0.1885  0.1716
   67MOL    C2421276   5.368   1.944   6.582 -0.5324 -0.1889 -0.8826
   67MOL    C2521277   5.424   1.909   6.460 -0.3431 -0.4784 -0.2787
   67MOL    C2621278   5.398   1.879   6.151  0.1836  0.2024  0.1565
   67MOL    H2721279   5.371   1.681   6.216 -1.6687  0.3458  2.0352
   67MOL    H2821280   5.274   1.610   6.401  2.1414 -0.4876 -0.4471
   67MOL    H2921281   5.217   1.653   6.652  2.4690 -1.9546  0.6830
   67MOL    H3021282   5.394   2.035   6.635 -1.5755 -0.1673 -0.3852
   67MOL    H3121283   5.491   1.970   6.401 -2.3495  0.6033 -1.4865
   67MOL    H3221284   5.477   1.953   6.165  1.4582 -0.4604 -3.2099
   67MOL    H3321285   5.416   1.846   6.049  0.1460 -0.2126  0.2851
   67MOL    C3421286   5.260   1.949   6.161 -0.4556  0.0468  0.0315
   67MOL    C3521287   5.256   2.086   6.107 -0.3654 -0.7187 -0.3424
   67MOL    C3621288   5.258   2.109   5.971 -0.0514 -0.2445 -0.0005
   67MOL    C3721289   5.268   2.241   5.922 -0.1501 -0.6988 -0.4134
   67MOL    C3821290   5.268   2.352   6.005 -0.5898  0.6258 -0.3580
   67MOL   Cl3921291   5.246   2.512   5.943 -0.2095  0.2369  0.0307
   67MOL    C4021292   5.265   2.329   6.145  0.2639 -0.2258 -0.4366
   67MOL    C4121293   5.258   2.194   6.195  0.0554  0.1451  0.0776
   67MOL    C4221294   5.147   1.847   6.136  0.2750  0.5152 -0.2482
   67MOL    H4321295   5.252   1.965   6.269  1.6216 -0.2072  0.2467
   67MOL    H4421296   5.241   2.021   5.910 -0.5475  0.1135 -0.3773
   67MOL    H4521297   5.267   2.261   5.816  1.2123  1.7050 -0.0159
   67MOL    H4621298   5.261   2.411   6.214 -2.2073 -0.9692  0.3468
   67MOL    H4721299   5.239   2.184   6.301  3.5516  1.2734  0.8669
   67MOL    H4821300   5.165   1.791   6.044  0.3557 -1.1079  0.7281
   67MOL    H4921301   5.151   1.774   6.217 -2.3010  0.3718 -0.2134
   67MOL    C5021302   5.001   1.909   6.136 -0.1495  0.7346 -0.9544
   67MOL    C5121303   4.967   1.983   6.008 -0.1712 -0.2757 -0.2129
   67MOL    C5221304   4.961   1.914   5.887 -0.4682  0.8686 -0.1408
   67MOL    C5321305   4.950   1.978   5.766 -0.6209 -0.0773 -0.3373
   67MOL    C5421306   4.936   2.119   5.759  0.1801  0.9606 -0.6897
   67MOL   Cl5521307   4.927   2.192   5.610  0.3120 -0.2462  0.1255
   67MOL    C5621308   4.931   2.192   5.881 -0.3056  0.4323 -0.1542
   67MOL    C5721309   4.943   2.121   6.005  0.0894 -0.3945 -1.0545
   67MOL    C5821310   4.890   1.813   6.169  0.1126  0.2297 -0.1711
   67MOL    H5921311   4.994   1.982   6.216  0.0675 -0.7723  0.4474
   67MOL    H6021312   4.964   1.807   5.892  0.1920  0.9024  0.3875
   67MOL    H6121313   4.946   1.924   5.672  0.4369  1.0289 -1.0376
   67MOL    H6221314   4.918   2.298   5.897 -1.1328  0.3850 -0.4882
   67MOL    H6321315   4.955   2.185   6.091  2.7984  2.8585 -3.6956
   67MOL    H6421316   4.795   1.864   6.152 -0.7925 -0.5770  2.2648
   67MOL    H6521317   4.887   1.728   6.100 -1.5861  1.0887 -1.1869
   67MOL    C6621318   4.883   1.760   6.311  0.8023 -0.2267  1.2154
   67MOL    C6721319   4.836   1.854   6.418  0.0490  0.1253 -0.1095
   67MOL    C6821320   4.716   1.921   6.404 -0.5196  0.3107 -0.3814
   67MOL    C6921321   4.666   1.998   6.508 -0.9304 -0.3695  0.4623
   67MOL    C7021322   4.739   2.016   6.626  0.2830 -0.4335  0.7695
   67MOL   Cl7121323   4.674   2.127   6.746 -0.0543 -0.0780  0.3043
   67MOL    C7221324   4.870   1.953   6.635  0.0227  0.2910 -0.2735
   67MOL    C7321325   4.915   1.872   6.532 -0.1247  0.2585  0.2127
   67MOL    C7421326   4.789   1.631   6.319 -0.4973  0.0495 -0.2416
   67MOL    H7521327   4.983   1.728   6.342  0.8920 -1.7473 -0.5056
   67MOL    H7621328   4.653   1.893   6.321  0.9457 -2.4600 -0.6233
   67MOL    H7721329   4.565   2.031   6.491 -0.6060 -0.8013 -2.5442
   67MOL    H7821330   4.922   1.962   6.729 -2.0668 -0.9070  1.0494
   67MOL    H7921331   5.008   1.820   6.546 -0.2333 -0.1577 -0.5801
   67MOL    H8021332   4.775   1.605   6.424  2.0980 -0.3376  0.0424
   67MOL    H8121333   4.690   1.658   6.283  0.3064 -0.3853 -2.9096
   67MOL    C8221334   4.820   1.501   6.243  0.8320 -0.1292  0.0034
   67MOL    C8321335   4.967   1.461   6.267  0.5907  0.1171  0.1002
   67MOL    C8421336   5.069   1.492   6.176 -0.9452 -0.1708  0.8457
   67MOL    C8521337   5.202   1.449   6.197  1.2988 -0.4864  0.2061
   67MOL    C8621338   5.237   1.382   6.308  0.4977 -0.1704  0.0364
   67MOL   Cl8721339   5.405   1.352   6.346 -0.0680 -0.3651  0.0772
   67MOL    C8821340   5.135   1.350   6.404 -0.3120  0.2621 -0.3795
   67MOL    C8921341   5.002   1.385   6.381  0.0481  0.7853  0.0270
   67MOL    C9021342   4.719   1.378   6.259 -0.0120 -0.6757 -0.1869
   67MOL    H9121343   4.803   1.537   6.142  1.4538 -1.9121 -0.7650
   67MOL    H9221344   5.050   1.525   6.075 -1.4427  0.6059  1.1860
   67MOL    H9321345   5.279   1.476   6.126 -0.0922 -0.2090 -1.2018
   67MOL    H9421346   5.163   1.286   6.487 -1.2481  2.6088  1.8286
   67MOL    H9521347   4.925   1.353   6.451  0.1019 -2.1104 -1.1705
   67MOL    H9621348   4.705   1.370   6.367  2.5861 -0.2404  0.2068
   67MOL    H9721349   4.620   1.412   6.227 -0.0893  0.2371  0.9601
   67MOL    C9821350   4.765   1.246   6.201 -0.4257  0.3468  0.4737
   67MOL    C9921351   4.690   1.120   6.250 -0.3247  0.1045  0.5056
   67MOL   C10021352   4.765   1.030   6.322 -0.3535 -0.1948 -0.1944
   67MOL   C10121353   4.706   0.897   6.349 -0.1077  0.6896 -0.4205
   67MOL   C10221354   4.569   0.878   6.308  0.6619 -0.2846 -0.3537
   67MOL  Cl10321355   4.506   0.727   6.334 -0.4701  0.1134 -0.4314
   67MOL   C10421356   4.495   0.981   6.248  0.0953 -0.4386 -0.0618
   67MOL   C10521357   4.553   1.102   6.224  1.0136  0.8709  0.6741
   67MOL   C10621358   4.762   1.245   6.045 -0.2872 -0.4251 -0.2807
   67MOL   H10721359   4.871   1.239   6.225 -0.2102  1.4130 -0.1100
   67MOL   H10821360   4.869   1.051   6.343 -0.0451 -1.7727 -0.1307
   67MOL   H10921361   4.762   0.815   6.390 -2.0936  0.1726  1.3372
   67MOL   H11021362   4.390   0.981   6.225 -0.0061  1.3174  0.2861
   67MOL   H11121363   4.497   1.175   6.166  0.0074 -1.6633 -1.6685
   67MOL   H11221364   4.666   1.211   6.004  0.2470 -1.3261 -0.8108
   67MOL   H11321365   4.755   1.351   6.023 -1.1861 -0.0825  1.5199
   67MOL   C11421366   4.881   1.178   5.980 -0.0988 -0.5361  0.4486
   67MOL   C11521367   4.873   1.028   5.992 -0.7814  0.0746  0.2631
   67MOL   C11621368   4.767   0.956   5.943 -0.0316 -0.2618  0.1242
   67MOL   C11721369   4.747   0.821   5.970  0.1054 -0.7968  0.3763
   67MOL   C11821370   4.844   0.752   6.041  0.2559 -0.5466 -0.2201
   67MOL  Cl11921371   4.830   0.587   6.071  0.2019  0.2756 -0.1378
   67MOL   C12021372   4.963   0.819   6.083 -0.5516 -0.2550 -1.2650
   67MOL   C12121373   4.975   0.958   6.063  0.2089  0.0256 -0.1833
   67MOL   C12221374   4.882   1.223   5.830  0.0104  0.3533 -0.3094
   67MOL   H12321375   4.973   1.218   6.021  0.7947  0.0174 -2.0083
   67MOL   H12421376   4.687   1.004   5.887  1.3143  0.5187 -1.1781
   67MOL   H12521377   4.652   0.779   5.942 -0.8485  1.0676  0.7459
   67MOL   H12621378   5.040   0.771   6.141  1.1866  0.8259 -2.6319
   67MOL   H12721379   5.054   1.020   6.104 -2.4759  2.9031  0.8931
   67MOL   H12821380   4.920   1.140   5.771 -0.1664 -0.1638  0.2959
   67MOL   H12921381   4.781   1.221   5.789 -0.2071 -2.8316  0.2582
   67MOL   C13021382   4.955   1.358   5.802  0.0359 -1.5318  0.2387
   67MOL   C13121383   5.106   1.358   5.820 -0.0451  0.1359  0.1352
   67MOL   C13221384   5.180   1.476   5.830  0.6209 -0.3439 -0.0585
   67MOL   C13321385   5.313   1.488   5.851 -0.0546 -0.1208 -0.2879
   67MOL   C13421386   5.393   1.372   5.869 -0.2374 -0.7562 -0.6932
   67MOL  Cl13521387   5.560   1.390   5.902 -0.0420 -0.2375 -0.2223
   67MOL   C13621388   5.327   1.251   5.861 -0.9923  0.3747 -0.4128
   67MOL   C13721389   5.188   1.241   5.843  0.5029  0.1428  0.8011
   67MOL   C13821390   4.910   1.413   5.666 -0.4430  0.7616  0.2535
   67MOL   H13921391   4.902   1.427   5.867 -1.8943 -0.4379 -2.3806
   67MOL   H14021392   5.126   1.568   5.816 -1.2386 -1.4797 -0.4888
   67MOL   H14121393   5.357   1.586   5.857 -0.2681 -0.0177 -0.3713
   67MOL   H14221394   5.385   1.162   5.881 -1.5051 -0.3087 -1.8883
   67MOL   H14321395   5.149   1.140   5.843  3.4610 -1.0327  0.2154
   67MOL   H14421396   4.953   1.512   5.651  1.9464 -0.3120 -0.1920
   67MOL   H14521397   4.955   1.342   5.596  0.2099  0.2316  1.1964
   67MOL   C14621398   4.758   1.427   5.633  0.2616 -0.1591  0.4642
   67MOL   C14721399   4.688   1.527   5.719 -0.1434  0.2558 -0.6047
   67MOL   C14821400   4.715   1.661   5.699 -0.0548 -0.4803 -0.1409
   67MOL   C14921401   4.664   1.754   5.798 -1.1447 -0.3377  0.3012
   67MOL   C15021402   4.601   1.711   5.912 -0.5080  0.5956 -0.0141
   67MOL  Cl15121403   4.554   1.822   6.034  0.0225  0.0430 -0.1879
   67MOL   C15221404   4.573   1.573   5.929 -0.2262 -0.0015 -0.2068
   67MOL   C15321405   4.619   1.483   5.834 -0.3977  0.2180  0.4521
   67MOL   C15421406   4.741   1.440   5.482 -0.7152  0.2253  0.1324
   67MOL   H15521407   4.708   1.332   5.652 -1.0471  0.2503 -0.8510
   67MOL   H15621408   4.761   1.700   5.610  2.1376  0.6363  1.4302
   67MOL   H15721409   4.669   1.862   5.791  2.3776 -0.3292  1.9267
   67MOL   H15821410   4.522   1.541   6.018 -0.2757 -0.4803 -0.4097
   67MOL   H15921411   4.605   1.376   5.841  0.9949 -0.0680 -0.8654
   67MOL   H16021412   4.809   1.518   5.449 -1.6902 -0.6439 -4.3786
   67MOL   H16121413   4.784   1.346   5.446  1.2539  1.3233 -0.4516
   67MOL   C16221414   4.592   1.447   5.428  0.1362 -0.2032  0.1560
   67MOL   C16321415   4.583   1.537   5.304  0.5123  0.3088  0.4718
   67MOL   C16421416   4.639   1.501   5.181  0.1731 -0.0996 -0.0521
   67MOL   C16521417   4.647   1.598   5.077  0.2911 -0.2757 -0.0887
   67MOL   C16621418   4.578   1.722   5.091 -0.1455  0.3503  0.3387
   67MOL  Cl16721419   4.571   1.823   4.951  0.3439 -0.4939 -0.1378
   67MOL   C16821420   4.510   1.750   5.211  0.9479 -0.3000 -0.5689
   67MOL   C16921421   4.510   1.654   5.317  0.2554 -0.5177 -0.0264
   67MOL   C17021422   4.540   1.311   5.387 -0.0236  0.2479  0.3195
   67MOL   H17121423   4.525   1.491   5.501 -1.5029  2.0624 -2.5790
   67MOL   H17221424   4.707   1.420   5.164  0.7845  0.3592  0.1801
   67MOL   H17321425   4.690   1.598   4.978  0.9693 -0.5315  0.1958
   67MOL   H17421426   4.454   1.842   5.221 -0.6667 -1.5252  1.7530
   67MOL   H17521427   4.461   1.678   5.410  0.9439  0.8087 -0.0039
   67MOL   H17621428   4.466   1.317   5.307  1.1209 -3.1898 -1.1021
   67MOL   H17721429   4.615   1.263   5.324  1.6249  1.6047  1.2203
   67MOL   C17821430   4.474   1.231   5.513 -0.1246  0.0289 -0.5533
   67MOL   C17921431   4.354   1.301   5.575 -0.0449 -0.2741  0.4193
   67MOL   C18021432   4.248   1.364   5.504 -1.5097 -0.5312 -0.3042
   67MOL   C18121433   4.140   1.424   5.574 -0.2735 -0.1418  0.3570
   67MOL   C18221434   4.131   1.416   5.714 -0.5052  0.3475 -0.0159
   67MOL  Cl18321435   4.004   1.505   5.800 -0.1391 -0.3569 -0.3303
   67MOL   C18421436   4.229   1.346   5.784  0.2270 -0.1217 -1.3744
   67MOL   C18521437   4.339   1.289   5.718  0.2802  0.6965  0.0747
   67MOL   C18621438   4.426   1.088   5.481 -0.5036 -0.1981 -0.3046
   67MOL   H18721439   4.553   1.220   5.586 -1.2362  1.4832  0.9089
   67MOL   H18821440   4.253   1.378   5.397 -1.7456  1.2013 -0.1126
   67MOL   H18921441   4.062   1.478   5.522 -1.7239 -0.8812  1.7133
   67MOL   H19021442   4.214   1.343   5.891  2.3770 -1.9625 -1.0751
   67MOL   H19121443   4.412   1.234   5.776  1.4899  0.8711 -1.2657
   67MOL   H19221444   4.385   1.045   5.573 -2.4379  2.0834 -0.0732
   67MOL   H19321445   4.331   1.085   5.429 -1.1122 -0.7735  0.8076
   67MOL   C19421446   4.533   0.995   5.417  0.2589 -0.4697 -0.2419
   67MOL   C19521447   4.653   0.954   5.505  0.5586  0.5652  0.4425
   67MOL   C19621448   4.661   0.839   5.586  0.8520  0.0590  0.2711
   67MOL   C19721449   4.783   0.789   5.643  0.5397  0.2300 -0.5338
   67MOL   C19821450   4.895   0.867   5.630 -0.5369  0.0147 -0.1116
   67MOL  Cl19921451   5.040   0.848   5.722 -0.1487  0.3000  0.4311
   67MOL   C20021452   4.888   0.987   5.556  0.4397  0.2885 -0.2937
   67MOL   C20121453   4.770   1.029   5.494  0.8149  0.3225 -0.4836
   67MOL   C20221454   4.474   0.870   5.350  0.0306 -0.3499 -0.2585
   67MOL   H20321455   4.575   1.050   5.333  0.4691 -0.9865 -0.4787
   67MOL   H20421456   4.568   0.785   5.597  0.0057  0.7705 -3.0425
   67MOL   H20521457   4.790   0.693   5.693 -0.0331  1.7463  2.6059
   67MOL   H20621458   4.971   1.052   5.536  0.6091  0.2521  0.2826
   67MOL   H20721459   4.771   1.125   5.444  0.6016  0.1467 -0.8258
   67MOL   H20821460   4.558   0.805   5.325  1.0513  0.4199  1.1628
   67MOL   H20921461   4.416   0.819   5.427 -1.1706  0.3347 -0.6888
   67MOL   C21021462   4.389   0.899   5.223  0.9990 -0.1259  0.2984
   67MOL   C21121463   4.467   0.992   5.120 -0.0920  0.6131  0.2522
   67MOL   C21221464   4.405   1.111   5.077  0.1231  0.7563  0.1125
   67MOL   C21321465   4.473   1.194   4.983  0.5634 -0.0208  0.3074
   67MOL   C21421466   4.603   1.153   4.939 -0.6835  1.0017  0.2243
   67MOL  Cl21521467   4.697   1.262   4.846  0.3027 -0.3880 -0.0605
   67MOL   C21621468   4.663   1.029   4.975 -0.0272  0.3511  0.0376
   67MOL   C21721469   4.599   0.953   5.075  0.4725  0.2398 -0.4119
   67MOL   C21821470   4.343   0.764   5.165  0.2471 -0.8859  0.0758
   67MOL   H21921471   4.302   0.960   5.245 -0.2965 -1.0004 -2.1730
   67MOL   H22021472   4.309   1.143   5.114  0.7242  1.9187  0.6903
   67MOL   H22121473   4.425   1.286   4.953  2.7939  1.1924  0.3551
   67MOL   H22221474   4.761   0.996   4.943  0.0544 -0.7833  1.4472
   67MOL   H22321475   4.652   0.872   5.123  0.8136 -0.1939 -1.5085
   67MOL   H22421476   4.357   0.773   5.057  0.1962 -0.3700  0.1103
   67MOL   H22521477   4.420   0.688   5.181  1.8976  0.9570  1.0788
   67MOL   C22621478   4.198   0.711   5.185 -0.6489 -0.1036  0.1008
   67MOL   C22721479   4.204   0.576   5.122 -0.9862 -0.3404  0.1447
   67MOL   C22821480   4.267   0.474   5.194  0.4130 -0.4863  0.3769
   67MOL   C22921481   4.289   0.349   5.131 -0.3033 -0.5585  0.0981
   67MOL   C23021482   4.250   0.325   4.998  0.2190 -0.5178 -1.0286
   67MOL  Cl23121483   4.275   0.172   4.925 -0.5686  0.1712 -0.0114
   67MOL   C23221484   4.190   0.429   4.928  0.3510  0.1299 -0.1032
   67MOL   C23321485   4.173   0.553   4.994 -0.1286  0.0941  0.8206
   67MOL   C23421486   4.162   0.714   5.334 -0.2446  0.0085 -0.7199
   67MOL   H23521487   4.131   0.772   5.124  1.2840 -0.9446 -2.9586
   67MOL   H23621488   4.292   0.494   5.297  2.0088  0.4962 -0.1840
   67MOL   H23721489   4.332   0.268   5.188 -2.5035 -0.4255  2.0377
   67MOL   H23821490   4.162   0.412   4.826  0.5874  4.1218 -0.9203
   67MOL   H23921491   4.129   0.633   4.937  0.2406  0.8036  1.5205
   67MOL   H24021492   4.248   0.675   5.390  0.8155  0.0153 -2.3044
   67MOL   H24121493   4.163   0.817   5.370 -0.7497 -0.0948 -0.4073
   67MOL   C24221494   4.026   0.653   5.375 -0.7831  0.4840  0.2886
   67MOL   C24321495   4.032   0.501   5.390  0.5189 -0.2732 -0.0282
   67MOL   C24421496   3.942   0.426   5.305 -0.2911  0.0956 -0.2195
   67MOL   C24521497   3.953   0.289   5.303  0.2478 -0.0829  0.2060
   67MOL   C24621498   4.046   0.227   5.391 -0.4997 -0.3373 -0.2164
   67MOL  Cl24721499   4.061   0.058   5.398  0.3797  0.0720 -0.0335
   67MOL   C24821500   4.133   0.299   5.474 -0.1029 -0.3178 -0.5745
   67MOL   C24921501   4.119   0.439   5.476 -0.4645  0.6457  0.7244
   67MOL   C25021502   3.939   0.738   5.473  0.0158  0.6505  0.5296
   67MOL   H25121503   3.965   0.664   5.286 -1.6489  0.8561  0.9285
   67MOL   H25221504   3.876   0.481   5.239 -0.5707 -0.4927 -0.4276
   67MOL   H25321505   3.877   0.237   5.246  0.3520  1.9860 -1.8744
   67MOL   H25421506   4.190   0.238   5.543 -2.6652 -3.9967 -1.6063
   67MOL   H25521507   4.188   0.498   5.535  0.6656 -0.1322  0.1880
   67MOL   H25621508   3.957   0.844   5.458  3.5671  0.0845  0.3322
   67MOL   H25721509   3.833   0.721   5.451  0.1812  0.4389 -0.1209
   67MOL   C25821510   3.946   0.698   5.623 -0.0576 -0.8940 -0.4185
   67MOL   C25921511   4.065   0.762   5.693 -0.7836  0.5559  0.6575
   67MOL   C26021512   4.167   0.678   5.746 -0.2932 -0.0007  0.0341
   67MOL   C26121513   4.276   0.734   5.812 -0.3575 -0.3702  0.9917
   67MOL   C26221514   4.286   0.879   5.825  0.7094  0.3073 -0.6669
   67MOL  Cl26321515   4.426   0.941   5.892 -0.2091  0.2352  0.4088
   67MOL   C26421516   4.186   0.958   5.778 -0.0768 -0.6657  0.8521
   67MOL   C26521517   4.065   0.904   5.717 -0.2352 -0.2595  1.2855
   67MOL   C26621518   3.811   0.722   5.695 -0.6153 -0.4704  0.3879
   67MOL   H26721519   3.963   0.590   5.615 -0.1969 -1.3151  3.9579
   67MOL   H26821520   4.147   0.573   5.734  1.5651 -0.4159  0.3427
   67MOL   H26921521   4.351   0.676   5.865 -1.6744 -3.0481 -0.0155
   67MOL   H27021522   4.197   1.062   5.803 -2.1559 -0.0352 -0.7995
   67MOL   H27121523   3.982   0.970   5.699  0.4991 -0.2852 -2.8675
   67MOL   H27221524   3.783   0.827   5.680  0.8419 -0.0152  0.7939
   67MOL   H27321525   3.722   0.679   5.649 -0.4728  1.0772 -1.3830
   67MOL   C27421526   3.806   0.700   5.849 -0.2995  0.7979  0.2037
   67MOL   C27521527   3.669   0.732   5.896 -0.3280 -0.4759 -0.5608
   67MOL   C27621528   3.639   0.856   5.941  0.0229 -0.1940 -0.9947
   67MOL   C27721529   3.510   0.896   5.979  0.1340  0.1788 -0.0161
   67MOL   C27821530   3.412   0.799   5.988  0.7412  0.4164 -0.5102
   67MOL  Cl27921531   3.259   0.835   6.053 -0.3569  0.1261  0.2102
   67MOL   C28021532   3.440   0.667   5.945 -0.5088 -0.1924 -0.5992
   67MOL   C28121533   3.565   0.635   5.890 -0.0081  0.0598 -0.2651
   67MOL   C28221534   3.864   0.567   5.900 -0.2982 -0.2423 -0.3629
   67MOL   H28321535   3.867   0.778   5.893 -1.4935  0.9909  1.5504
   67MOL   H28421536   3.725   0.921   5.938  1.0683 -1.5058 -0.3414
   67MOL   H28521537   3.491   0.993   6.021  2.0813  0.8531 -0.6543
   67MOL   H28621538   3.367   0.587   5.949  0.1479 -0.7862 -0.2647
   67MOL   H28721539   3.582   0.534   5.857 -0.3470  0.2426 -1.0091
   67MOL   H28821540   3.805   0.485   5.859  0.7111 -2.1497  1.9201
   67MOL   H28921541   3.964   0.542   5.866 -0.2931  0.1545 -0.6381
   67MOL   C29021542   3.857   0.547   6.058  0.1965  0.0021 -0.9284
   67MOL   C29121543   3.806   0.409   6.099  0.3634  0.3215 -0.7946
   67MOL   C29221544   3.718   0.386   6.205 -0.5725  0.5916  0.1944
   67MOL   C29321545   3.667   0.264   6.234 -0.6635  0.2566 -0.8978
   67MOL   C29421546   3.685   0.156   6.152  0.0820 -1.3267 -0.7788
   67MOL  Cl29521547   3.609   0.009   6.194  0.1625 -0.0543 -0.3697
   67MOL   C29621548   3.768   0.172   6.037 -0.9223  0.6632 -0.3258
   67MOL   C29721549   3.835   0.293   6.023  0.4156  0.2188 -0.2003
   67MOL   C29821550   4.002   0.557   6.116  0.1313  0.0475  0.3378
   67MOL   H29921551   3.790   0.619   6.105 -1.6324 -0.5753 -2.5762
   67MOL   H30021552   3.683   0.467   6.267 -0.4201 -1.3885  2.9620
   67MOL   H30121553   3.600   0.247   6.317 -2.2797  0.9119 -2.0487
   67MOL   H30221554   3.787   0.092   5.967 -1.4636  2.1816 -2.2343
   67MOL   H30321555   3.897   0.302   5.935 -0.4675 -0.4342 -0.8958
   67MOL   H30421556   4.010   0.507   6.212 -0.4905  0.2859  0.5138
   67MOL   H30521557   4.074   0.501   6.056  0.0558  0.1680  0.1343
   67MOL   C30621558   4.050   0.706   6.143  0.0391  0.5556  0.0931
   67MOL   C30721559   3.953   0.777   6.238 -0.2276  0.0473 -0.1557
   67MOL   C30821560   3.955   0.918   6.228  0.3646 -0.1036  0.2437
   67MOL   C30921561   3.875   0.990   6.316  0.5282  0.3180 -0.8686
   67MOL   C31021562   3.788   0.924   6.399  0.7988  0.6043 -0.6494
   67MOL  Cl31121563   3.682   1.016   6.501  0.0350 -0.0237 -0.0447
   67MOL   C31221564   3.783   0.788   6.410  0.0557 -0.0988 -0.0398
   67MOL   C31321565   3.875   0.714   6.335  0.8402  0.2126 -0.0572
   67MOL   C31421566   4.193   0.706   6.192 -0.1602 -0.4683  0.2932
   67MOL   H31521567   4.046   0.759   6.047 -0.6790 -0.3056 -0.3548
   67MOL   H31621568   4.016   0.954   6.147  0.6799 -3.4477 -1.0558
   67MOL   H31721569   3.881   1.098   6.323  0.4744  0.1361  2.6405
   67MOL   H31821570   3.709   0.729   6.462 -0.2598 -0.6163 -1.0665
   67MOL   H31921571   3.868   0.607   6.347 -1.0570  0.3237 -0.0738
   67MOL   H32021572   4.259   0.664   6.116  1.0535  1.4098  0.2655
   67MOL   H32121573   4.240   0.804   6.185  0.6546 -0.8195  0.7117
   67MOL   H32221574   4.207   0.666   6.292 -2.3060  1.9353  1.5851
   68MOL     C121575   0.969   3.844   2.012  0.0690 -0.6628 -0.5218
   68MOL     C221576   0.904   3.916   1.889 -0.2502 -0.8637  0.5976
   68MOL     C321577   0.766   3.932   1.895  0.0567  0.1828 -0.1294
   68MOL     C421578   0.697   3.987   1.786 -0.8364  0.4995 -0.3681
   68MOL     C521579   0.770   4.037   1.672  0.0349  0.8310  0.1538
   68MOL    Cl621580   0.678   4.117   1.543 -0.2470 -0.0750  0.2394
   68MOL     C721581   0.910   4.029   1.674 -0.5581 -0.1675 -0.8227
   68MOL     C821582   0.986   3.975   1.782 -0.2754  0.5376 -0.2974
   68MOL     C921583   1.087   3.753   1.974 -0.3362 -0.1656  0.2898
   68MOL    H1021584   0.890   3.781   2.052 -0.6728 -0.1808 -1.2131
   68MOL    H1121585   0.707   3.891   1.975 -2.3702  3.3873 -0.1332
   68MOL    H1221586   0.589   3.988   1.787 -0.8636 -0.9138  2.3660
   68MOL    H1321587   0.960   4.058   1.583 -1.1470  4.5448  0.2475
   68MOL    H1421588   1.094   3.975   1.776 -0.2180 -0.7704  0.4812
   68MOL    H1521589   1.078   3.664   2.037 -3.2282  0.3254  0.6352
   68MOL    H1621590   1.067   3.707   1.877  1.1696 -1.9586  0.7887
   68MOL    H1721591   1.003   3.917   2.085  0.9211  0.3884 -1.9327
   68MOL    C1821592   1.227   3.812   2.001 -0.9478  0.0873 -1.0330
   68MOL    C1921593   1.268   3.808   2.151  0.0950 -0.1921  0.3511
   68MOL    C2021594   1.283   3.935   2.221 -0.2171  0.4948 -0.3247
   68MOL    C2121595   1.330   3.934   2.357 -0.1308  0.1098 -0.5970
   68MOL    C2221596   1.356   3.811   2.419 -0.1916  0.3348  0.3371
   68MOL   Cl2321597   1.418   3.814   2.585  0.4141  0.3373 -0.0256
   68MOL    C2421598   1.332   3.692   2.351  0.1870 -0.2099 -0.2424
   68MOL    C2521599   1.285   3.685   2.217 -0.8650  0.0559 -0.4324
   68MOL    C2621600   1.335   3.751   1.909 -0.6604 -0.6509  0.0012
   68MOL    H2721601   1.218   3.919   1.987 -2.1747 -0.0568 -1.3937
   68MOL    H2821602   1.266   4.030   2.173 -2.0898 -0.5169 -1.7416
   68MOL    H2921603   1.352   4.029   2.404  0.5176 -1.0338  1.4479
   68MOL    H3021604   1.362   3.605   2.408  0.1795  0.6030  1.0248
   68MOL    H3121605   1.278   3.589   2.168  1.0866 -0.3550  0.0453
   68MOL    H3221606   1.374   3.657   1.949 -1.6173 -2.0453 -2.2366
   68MOL    H3321607   1.277   3.721   1.822 -0.1896 -0.5395 -0.3571
   68MOL    C3421608   1.456   3.839   1.867  0.1848  0.5330 -0.2416
   68MOL    C3521609   1.549   3.873   1.992  0.1909 -0.2470  0.1475
   68MOL    C3621610   1.592   3.778   2.082  0.8368  0.3211 -0.7093
   68MOL    C3721611   1.657   3.822   2.202  0.1059 -0.0104 -0.4030
   68MOL    C3821612   1.676   3.959   2.224 -0.8020  0.0499  0.7703
   68MOL   Cl3921613   1.770   4.010   2.360 -0.1279 -0.1818 -0.2879
   68MOL    C4021614   1.632   4.054   2.126 -0.2020  0.3289 -0.4544
   68MOL    C4121615   1.583   4.010   2.008  0.5198 -0.4829  0.0622
   68MOL    C4221616   1.543   3.759   1.767  0.5690  0.0192  0.2847
   68MOL    H4321617   1.420   3.931   1.821 -0.7380  0.2275 -0.1245
   68MOL    H4421618   1.575   3.673   2.065  0.4272 -0.3931  3.5465
   68MOL    H4521619   1.701   3.756   2.276 -0.9450 -3.1485 -2.4685
   68MOL    H4621620   1.646   4.160   2.138 -0.6371  0.4011 -0.5905
   68MOL    H4721621   1.556   4.085   1.935  0.5343 -1.3410 -0.8487
   68MOL    H4821622   1.644   3.787   1.797 -0.3328  2.7228  0.9535
   68MOL    H4921623   1.534   3.653   1.787  3.0631  0.2124  2.7829
   68MOL    C5021624   1.513   3.794   1.621 -0.4981 -0.1629  0.4445
   68MOL    C5121625   1.544   3.939   1.574  0.0867  0.0288 -0.6241
   68MOL    C5221626   1.466   4.001   1.473 -1.0313  0.2821  0.2542
   68MOL    C5321627   1.484   4.137   1.435 -0.1665  0.6047 -0.3936
   68MOL    C5421628   1.594   4.207   1.496 -0.5481 -0.1512  0.4868
   68MOL   Cl5521629   1.629   4.368   1.453  0.0677 -0.2564  0.1695
   68MOL    C5621630   1.670   4.144   1.589 -0.8154  0.1353 -0.2238
   68MOL    C5721631   1.648   4.008   1.630  0.8114  0.2806  0.0502
   68MOL    C5821632   1.574   3.701   1.516 -0.2003 -0.2053  0.4396
   68MOL    H5921633   1.407   3.781   1.600 -0.3382 -2.4080  0.8251
   68MOL    H6021634   1.383   3.944   1.434 -0.3977  0.2722 -1.1406
   68MOL    H6121635   1.417   4.192   1.371  0.5611  1.3764 -0.5043
   68MOL    H6221636   1.751   4.197   1.635 -2.3824  0.2731  2.4938
   68MOL    H6321637   1.714   3.962   1.702  1.4002  0.3560 -0.4393
   68MOL    H6421638   1.538   3.602   1.543  0.1815 -0.4552  0.0322
   68MOL    H6521639   1.525   3.726   1.422  0.3149 -1.5002 -0.1825
   68MOL    C6621640   1.726   3.717   1.482  0.4550  0.0394  0.2324
   68MOL    C6721641   1.813   3.666   1.597 -0.5985 -0.2689  0.5645
   68MOL    C6821642   1.825   3.525   1.615 -0.0030  1.3330 -0.5179
   68MOL    C6921643   1.891   3.483   1.732  0.1068 -0.5405  0.1945
   68MOL    C7021644   1.948   3.573   1.820 -0.9884 -0.0270 -0.2887
   68MOL   Cl7121645   2.026   3.506   1.958 -0.1926 -0.5027 -0.3948
   68MOL    C7221646   1.953   3.708   1.787 -0.2036 -0.1667  0.0428
   68MOL    C7321647   1.884   3.757   1.674  0.4727 -0.0899  0.0998
   68MOL    C7421648   1.770   3.653   1.350  0.6526 -0.1999 -0.3828
   68MOL    H7521649   1.747   3.823   1.471 -2.5319  0.8848  2.2471
   68MOL    H7621650   1.792   3.454   1.541  0.8817 -0.9254  1.2132
   68MOL    H7721651   1.891   3.380   1.764  3.4370 -0.4062  0.8138
   68MOL    H7821652   1.997   3.782   1.852  0.6996 -1.9045  1.4424
   68MOL    H7921653   1.895   3.862   1.652  0.1686  0.3666  2.0266
   68MOL    H8021654   1.878   3.666   1.345  0.8355  1.6394  4.6243
   68MOL    H8121655   1.734   3.551   1.346 -1.7438  0.6167 -0.6092
   68MOL    C8221656   1.713   3.729   1.222  0.4416 -0.2376  0.2998
   68MOL    C8321657   1.722   3.884   1.212  0.1903  0.2137 -0.6680
   68MOL    C8421658   1.617   3.962   1.164  0.4521 -0.9445 -0.3370
   68MOL    C8521659   1.639   4.102   1.142 -0.3355  0.1013  0.8683
   68MOL    C8621660   1.761   4.162   1.157  0.7130 -0.1682 -0.1855
   68MOL   Cl8721661   1.805   4.319   1.101 -0.3056  0.3761 -0.2262
   68MOL    C8821662   1.864   4.079   1.212 -0.1174 -0.0816  0.5298
   68MOL    C8921663   1.846   3.939   1.225  0.7570 -1.0977 -0.5438
   68MOL    C9021664   1.776   3.664   1.101 -1.0682 -0.7887  0.9879
   68MOL    H9121665   1.609   3.701   1.204  0.1956  1.6710 -1.3925
   68MOL    H9221666   1.518   3.927   1.139 -0.2778 -0.6001  1.9372
   68MOL    H9321667   1.560   4.153   1.088 -0.3623 -1.1957 -0.3685
   68MOL    H9421668   1.960   4.125   1.232 -0.1660  0.7420 -1.0564
   68MOL    H9521669   1.931   3.879   1.252  1.3846 -0.3211 -0.7872
   68MOL    H9621670   1.883   3.680   1.093 -1.5266  1.4420 -1.4171
   68MOL    H9721671   1.769   3.556   1.110  0.7100 -1.0548 -0.6525
   68MOL    C9821672   1.723   3.697   0.956 -0.5425  0.0248 -0.1223
   68MOL    C9921673   1.806   3.639   0.844  0.5551 -0.6757 -0.2028
   68MOL   C10021674   1.869   3.515   0.860 -0.6868 -0.8277  0.6255
   68MOL   C10121675   1.967   3.470   0.762  0.1008 -0.1797 -0.2850
   68MOL   C10221676   1.995   3.554   0.657 -0.0115 -0.4799  0.9032
   68MOL  Cl10321677   2.100   3.497   0.533 -0.6572  0.2100  0.1785
   68MOL   C10421678   1.941   3.684   0.643  0.4339  0.4524 -0.3647
   68MOL   C10521679   1.841   3.724   0.734 -0.4322 -0.0436  0.0251
   68MOL   C10621680   1.576   3.657   0.927 -0.4552 -0.2245 -0.0146
   68MOL   H10721681   1.723   3.805   0.936  0.6638  0.0064 -0.2613
   68MOL   H10821682   1.852   3.453   0.946 -1.9946  0.2877  1.1908
   68MOL   H10921683   2.023   3.378   0.765  1.4440  0.6548  0.7359
   68MOL   H11021684   1.958   3.745   0.556 -0.4501 -2.4759 -2.6633
   68MOL   H11121685   1.797   3.822   0.731  1.4630  0.8861  1.4563
   68MOL   H11221686   1.503   3.719   0.979 -2.5675  0.7544 -3.9028
   68MOL   H11321687   1.561   3.680   0.821 -1.6884 -0.2644  0.1401
   68MOL   C11421688   1.529   3.514   0.954  0.4673 -0.4676  0.4285
   68MOL   C11521689   1.469   3.488   1.092 -0.6448  0.3864 -0.0202
   68MOL   C11621690   1.352   3.552   1.130  0.3714  0.1953 -0.5107
   68MOL   C11721691   1.292   3.538   1.258 -0.7487 -0.5015 -0.2673
   68MOL   C11821692   1.355   3.454   1.346  0.2697  0.9132  0.2785
   68MOL  Cl11921693   1.295   3.440   1.510  0.0223 -0.3667 -0.0996
   68MOL   C12021694   1.481   3.384   1.315 -0.2138 -0.2214 -0.0697
   68MOL   C12121695   1.538   3.400   1.184  0.1815  0.0972 -0.6011
   68MOL   C12221696   1.425   3.480   0.849 -0.0333 -0.4772  0.4411
   68MOL   H12321697   1.599   3.433   0.936  1.1278 -0.0221  0.9609
   68MOL   H12421698   1.304   3.624   1.066 -1.4498  0.7349  1.4236
   68MOL   H12521699   1.198   3.583   1.286 -1.4939 -2.3218  0.2813
   68MOL   H12621700   1.534   3.326   1.390  2.9238  0.2298 -1.8324
   68MOL   H12721701   1.630   3.348   1.159  0.3760 -0.0551  0.4237
   68MOL   H12821702   1.369   3.402   0.901 -2.0043  1.8247  1.8808
   68MOL   H12921703   1.349   3.556   0.832  1.2577  0.0116 -3.7301
   68MOL   C13021704   1.479   3.418   0.711  0.1104  0.4077  0.1167
   68MOL   C13121705   1.563   3.292   0.712  0.5636  0.6321 -0.3442
   68MOL   C13221706   1.693   3.298   0.658  0.0208 -0.1792 -0.0131
   68MOL   C13321707   1.773   3.182   0.661 -0.2990 -0.0647 -0.6244
   68MOL   C13421708   1.719   3.066   0.726  0.0936 -0.5409  0.0998
   68MOL  Cl13521709   1.819   2.929   0.751 -0.1373 -0.1352  0.0973
   68MOL   C13621710   1.595   3.059   0.784 -0.8160  0.9124  0.0044
   68MOL   C13721711   1.519   3.177   0.779  0.3157  0.3905  0.1609
   68MOL   C13821712   1.368   3.415   0.602 -0.8147 -0.2198 -0.2277
   68MOL   H13921713   1.548   3.494   0.675  1.6378 -1.4166 -0.9012
   68MOL   H14021714   1.740   3.384   0.611 -1.0112  0.7167  0.5674
   68MOL   H14121715   1.875   3.186   0.624  0.3054  0.0656  1.0020
   68MOL   H14221716   1.552   2.970   0.829  0.6137  0.4042  0.4174
   68MOL   H14321717   1.413   3.178   0.799  0.5470  0.9227  1.3545
   68MOL   H14421718   1.333   3.512   0.567 -2.6330 -0.9534 -0.4983
   68MOL   H14521719   1.415   3.382   0.509  0.8644  1.9034 -0.1662
   68MOL   C14621720   1.241   3.329   0.619  0.6256 -0.1488  0.1511
   68MOL   C14721721   1.159   3.377   0.739  0.0411  0.3561  0.1038
   68MOL   C14821722   1.110   3.505   0.746 -0.6293 -0.5518 -0.5370
   68MOL   C14921723   1.038   3.541   0.864  0.2207 -0.6935 -1.1724
   68MOL   C15021724   1.025   3.453   0.972  0.1184 -0.1275 -0.3510
   68MOL  Cl15121725   0.946   3.506   1.118  0.1578  0.5467  0.1650
   68MOL   C15221726   1.083   3.325   0.962  0.3327  0.2927  0.2630
   68MOL   C15321727   1.143   3.281   0.843  0.5110 -0.2637 -0.4355
   68MOL   C15421728   1.147   3.332   0.496 -0.5517  0.0680  0.3349
   68MOL   H15521729   1.271   3.229   0.649 -2.7886 -1.2895 -0.0813
   68MOL   H15621730   1.127   3.568   0.660 -0.2862 -0.6814 -0.5616
   68MOL   H15721731   1.010   3.645   0.867 -0.2253 -0.8237 -0.7071
   68MOL   H15821732   1.073   3.260   1.048 -0.3459  0.0232 -0.0200
   68MOL   H15921733   1.179   3.179   0.847 -0.5493 -0.6575 -0.7227
   68MOL   H16021734   1.047   3.299   0.521  0.0533 -2.4647 -0.4057
   68MOL   H16121735   1.133   3.438   0.477 -2.4253 -0.3145 -0.5061
   68MOL   C16221736   1.183   3.233   0.381 -0.9656  0.2613 -0.3392
   68MOL   C16321737   1.194   3.092   0.431  0.2461 -0.4368 -1.0063
   68MOL   C16421738   1.076   3.030   0.480  0.1194  0.0150  0.3197
   68MOL   C16521739   1.089   2.906   0.541 -0.2849  0.1918 -0.5644
   68MOL   C16621740   1.216   2.839   0.553  0.5256  0.2415 -0.9118
   68MOL  Cl16721741   1.236   2.683   0.629 -0.3871  0.0265 -0.0766
   68MOL   C16821742   1.330   2.902   0.506 -0.0468 -0.3130  0.2765
   68MOL   C16921743   1.322   3.028   0.434 -0.2988  0.5053  0.3505
   68MOL   C17021744   1.080   3.255   0.267 -0.4067 -0.3774 -0.4279
   68MOL   H17121745   1.278   3.267   0.341 -0.6281  1.6730  1.6112
   68MOL   H17221746   0.981   3.082   0.470  0.7170  1.1425  0.4414
   68MOL   H17321747   0.999   2.861   0.582 -0.0828 -1.2332 -1.6773
   68MOL   H17421748   1.431   2.864   0.511  0.3110  0.6603  0.6600
   68MOL   H17521749   1.407   3.084   0.400 -1.5218  2.3828  0.2879
   68MOL   H17621750   1.109   3.190   0.184  1.4199  1.3596 -1.1879
   68MOL   H17721751   0.983   3.219   0.302 -1.2034  1.2113 -0.9584
   68MOL   C17821752   1.062   3.392   0.208  0.1440 -1.0269  0.2324
   68MOL   C17921753   1.191   3.452   0.162  0.7962 -0.6748  0.3986
   68MOL   C18021754   1.256   3.548   0.240 -0.1202  0.5120  0.2875
   68MOL   C18121755   1.394   3.582   0.212 -0.0786  0.5379  0.4246
   68MOL   C18221756   1.458   3.524   0.102  0.4099  0.4660  1.0450
   68MOL  Cl18321757   1.622   3.580   0.070 -0.0234  0.3155 -0.2114
   68MOL   C18421758   1.390   3.430   0.018  0.2520 -0.2256  0.3504
   68MOL   C18521759   1.255   3.397   0.052 -0.5362  0.7032 -0.3485
   68MOL   C18621760   0.957   3.394   0.096 -0.3721 -0.0798  0.8390
   68MOL   H18721761   1.019   3.450   0.290 -0.8597  1.1207 -1.7259
   68MOL   H18821762   1.208   3.588   0.328 -1.5066 -0.1990 -0.1345
   68MOL   H18921763   1.445   3.642   0.286 -0.3358 -0.2422  1.2343
   68MOL   H19021764   1.438   3.382   8.377 -1.8243  0.5476 -1.3201
   68MOL   H19121765   1.201   3.323   8.438  1.8859 -0.3987 -1.2836
   68MOL   H19221766   0.962   3.489   0.042  0.2260 -0.3527  0.3994
   68MOL   H19321767   0.992   3.328   0.016 -2.4409 -2.7481  2.0732
   68MOL   C19421768   0.810   3.371   0.135 -0.1396  0.3894 -0.0580
   68MOL   C19521769   0.768   3.457   0.244  0.2575 -0.1338  0.0274
   68MOL   C19621770   0.785   3.598   0.236 -0.2378 -0.1656  0.2511
   68MOL   C19721771   0.751   3.676   0.349 -0.5134 -0.2209  0.2758
   68MOL   C19821772   0.692   3.623   0.461  0.0328 -0.0442  0.6987
   68MOL  Cl19921773   0.661   3.711   0.604  0.0852 -0.5445  0.0716
   68MOL   C20021774   0.668   3.482   0.462 -0.9526 -0.1060 -0.4963
   68MOL   C20121775   0.703   3.404   0.355 -0.2823  0.1255  1.0152
   68MOL   C20221776   0.718   3.391   0.014 -0.0537  0.6065  0.3176
   68MOL   H20321777   0.793   3.269   0.171  1.0352 -0.3835 -1.6421
   68MOL   H20421778   0.837   3.642   0.152 -0.0104  0.2927  0.6272
   68MOL   H20521779   0.783   3.779   0.351  4.9935 -1.7607  0.3442
   68MOL   H20621780   0.629   3.439   0.553 -2.2548 -0.2124 -1.0930
   68MOL   H20721781   0.685   3.297   0.357 -0.8928  0.1899 -0.4928
   68MOL   H20821782   0.613   3.375   0.041 -1.0613  0.6001 -3.2342
   68MOL   H20921783   0.729   3.493   8.420  0.1450 -0.7996 -3.7830
   68MOL   C21021784   0.732   3.293   8.344  0.2248 -0.3217 -0.1557
   68MOL   C21121785   0.693   3.151   8.379 -0.0198  0.4975 -0.2961
   68MOL   C21221786   0.796   3.051   8.390  0.4340 -0.9600 -0.2258
   68MOL   C21321787   0.762   2.926   8.437 -0.7925 -0.0563  0.7164
   68MOL   C21421788   0.630   2.886   0.014  0.5482 -0.1349 -1.0717
   68MOL  Cl21521789   0.587   2.736   0.077 -0.0004 -0.4492  0.1324
   68MOL   C21621790   0.527   2.978   8.426 -0.2695  0.4445  0.1299
   68MOL   C21721791   0.555   3.114   8.393  0.2439  0.0606 -0.3307
   68MOL   C21821792   0.674   3.342   8.211 -0.9688 -0.3536 -0.1400
   68MOL   H21921793   0.835   3.279   8.311 -0.3267  0.0626 -2.0961
   68MOL   H22021794   0.900   3.077   8.375 -0.1036  3.0037  2.2678
   68MOL   H22121795   0.843   2.856   0.011  1.0548  0.7040 -3.9476
   68MOL   H22221796   0.422   2.962   0.001 -0.5136 -0.2986 -1.9026
   68MOL   H22321797   0.473   3.178   8.363 -0.5286 -0.4769  0.6122
   68MOL   H22421798   0.664   3.266   8.134  1.2982 -2.6761  1.7520
   68MOL   H22521799   0.572   3.373   8.234 -0.8982  0.5589 -1.0321
   68MOL   C22621800   0.763   3.454   8.145 -0.1661 -0.0665 -0.3297
   68MOL   C22721801   0.900   3.402   8.109 -0.2798 -0.6164 -0.1968
   68MOL   C22821802   0.913   3.284   8.038  0.0738  0.5823 -0.3175
   68MOL   C22921803   1.042   3.221   8.024  0.5717 -0.0145 -0.2697
   68MOL   C23021804   1.153   3.276   8.082 -0.4824 -0.1750  0.0157
   68MOL  Cl23121805   1.315   3.210   8.056  0.0454  0.2111  0.3358
   68MOL   C23221806   1.142   3.400   8.141  0.5355  0.5645  0.1790
   68MOL   C23321807   1.016   3.461   8.162  0.5971  0.1831  0.2885
   68MOL   C23421808   0.704   3.540   8.033 -0.1363 -0.4604  0.3956
   68MOL   H23521809   0.787   3.525   8.224 -0.0161 -0.8001  0.2845
   68MOL   H23621810   0.827   3.224   8.012  0.0928  0.6411 -0.5198
   68MOL   H23721811   1.046   3.126   7.974  0.9462 -0.1056 -0.0678
   68MOL   H23821812   1.228   3.445   8.187 -0.3232 -0.2426  2.6751
   68MOL   H23921813   1.010   3.554   8.217  1.0806  1.1101 -1.2019
   68MOL   H24021814   0.782   3.591   7.977 -0.7707  0.9859  0.7875
   68MOL   H24121815   0.661   3.468   7.963  1.5624 -1.5821  0.4770
   68MOL   C24221816   0.597   3.643   8.070 -0.0717 -0.1712 -0.5400
   68MOL   C24321817   0.641   3.742   8.174  0.4458 -0.4920  0.3963
   68MOL   C24421818   0.772   3.803   8.183  0.3773  0.6944  0.4967
   68MOL   C24521819   0.797   3.897   8.288 -0.2005  0.1253  0.6294
   68MOL   C24621820   0.696   3.944   8.372  0.9755 -0.6158 -0.0557
   68MOL  Cl24721821   0.729   4.056   0.064  0.3685  0.0662  0.0105
   68MOL   C24821822   0.575   3.884   8.363  0.0525 -0.7363 -0.0515
   68MOL   C24921823   0.542   3.788   8.263  0.1892  0.6473  0.2719
   68MOL   C25021824   0.528   3.716   7.946 -0.2830  0.4162 -0.3825
   68MOL   H25121825   0.519   3.584   8.117 -0.6770 -0.0947 -1.4253
   68MOL   H25221826   0.860   3.776   8.127 -0.1803 -0.8617  0.3488
   68MOL   H25321827   0.897   3.934   8.303 -0.6698  0.9824  1.7296
   68MOL   H25421828   0.501   3.914   8.435  0.2782  0.3075 -0.2587
   68MOL   H25521829   0.443   3.745   8.263  1.4340 -2.3448  0.3595
   68MOL   H25621830   0.475   3.807   7.974 -1.4766 -0.2728 -0.3483
   68MOL   H25721831   0.610   3.752   7.884 -0.1693  0.9399  0.0698
   68MOL   C25821832   0.425   3.626   7.872  0.4460 -0.1743  0.1669
   68MOL   C25921833   0.324   3.556   7.958  0.1819  0.6762 -1.2524
   68MOL   C26021834   0.258   3.625   8.058 -0.0757 -0.2296 -0.7988
   68MOL   C26121835   0.169   3.560   8.137 -0.1462  0.2001 -0.4346
   68MOL   C26221836   0.134   3.425   8.118 -0.5526  0.6636  0.3788
   68MOL  Cl26321837   0.016   3.343   8.207 -0.1748 -0.0151 -0.1716
   68MOL   C26421838   0.212   3.351   8.020 -0.8087 -0.1051  0.2114
   68MOL   C26521839   0.311   3.415   7.946 -0.0814  0.0796 -0.0003
   68MOL   C26621840   0.351   3.702   7.764 -0.3103 -0.0453  0.2444
   68MOL   H26721841   0.481   3.544   7.826  2.4261  0.7227  0.9520
   68MOL   H26821842   0.265   3.731   8.081 -3.3763  0.1834 -1.4285
   68MOL   H26921843   0.110   3.599   8.219 -0.4849 -1.9307  0.3882
   68MOL   H27021844   0.200   3.244   8.012  1.2126 -0.2700 -0.8450
   68MOL   H27121845   0.374   3.366   7.874 -0.3340 -1.4643  0.8100
   68MOL   H27221846   0.303   3.787   7.813  0.9343  2.0066 -1.9676
   68MOL   H27321847   0.423   3.738   7.690 -1.2581  2.8159  0.6376
   68MOL   C27421848   0.241   3.635   7.684 -0.2822  0.1081  0.2678
   68MOL   C27521849   0.176   3.727   7.582  0.5131 -0.0438  0.4241
   68MOL   C27621850   0.064   3.798   7.633 -0.2679  0.5558 -0.0939
   68MOL   C27721851   8.442   3.888   7.549 -0.0849 -0.5956  0.6452
   68MOL   C27821852   0.051   3.922   7.424 -0.0103  0.3438  0.7505
   68MOL  Cl27921853   8.410   4.024   7.321 -0.1411 -0.0142 -0.1791
   68MOL   C28021854   0.170   3.852   7.375  0.3207 -0.5456  0.0659
   68MOL   C28121855   0.239   3.766   7.460  0.1253 -1.1974 -0.3686
   68MOL   C28221856   0.290   3.511   7.611 -0.5527 -0.1500 -0.3045
   68MOL   H28321857   0.152   3.609   7.740 -0.0675 -1.9320 -0.3144
   68MOL   H28421858   0.022   3.790   7.732 -1.2785 -0.1280 -0.5642
   68MOL   H28521859   8.351   3.938   7.579  0.8610  1.3100  0.3534
   68MOL   H28621860   0.209   3.864   7.275 -0.6204  0.6654 -0.1668
   68MOL   H28721861   0.338   3.730   7.438  1.0357  1.0872 -0.1170
   68MOL   H28821862   0.361   3.534   7.532  0.0873 -1.6215 -0.1633
   68MOL   H28921863   0.333   3.442   7.683 -0.1965 -0.7871 -1.1283
   68MOL   C29021864   0.183   3.425   7.550  0.0113  0.5771  0.1749
   68MOL   C29121865   0.248   3.321   7.459 -0.8506 -0.2874  0.2407
   68MOL   C29221866   0.357   3.240   7.505 -0.4523  0.1569  1.2595
   68MOL   C29321867   0.415   3.138   7.420 -0.6564  0.3635 -0.1806
   68MOL   C29421868   0.356   3.111   7.292  0.1247 -0.4392  0.0239
   68MOL  Cl29521869   0.421   2.993   7.177  0.2160  0.0389  0.0812
   68MOL   C29621870   0.260   3.201   7.244  0.0243 -0.5823 -0.9244
   68MOL   C29721871   0.210   3.313   7.323  0.2841 -0.5607 -0.3996
   68MOL   C29821872   0.090   3.353   7.651 -0.1120  0.5706  0.2665
   68MOL   H29921873   0.121   3.482   7.482 -0.9667 -1.5580 -0.7750
   68MOL   H30021874   0.394   3.252   7.605  0.7148  0.3919  0.8044
   68MOL   H30121875   0.497   3.079   7.457 -2.7497 -3.0475 -0.8051
   68MOL   H30221876   0.217   3.180   7.147  0.9096  1.0857 -1.6957
   68MOL   H30321877   0.127   3.365   7.277  0.2543  0.5438  0.8659
   68MOL   H30421878   0.138   3.259   7.679 -0.0805  0.2528 -0.8143
   68MOL   H30521879   0.087   3.416   7.740 -0.0199 -0.5643  1.0916
   68MOL   C30621880   8.390   3.307   7.607  0.3282 -0.4488 -0.1192
   68MOL   C30721881   8.312   3.430   7.570  0.1184 -0.3921 -0.4515
   68MOL   C30821882   8.273   3.451   7.440 -0.3993  0.3914  0.5412
   68MOL   C30921883   8.202   3.570   7.410  0.2428 -0.5765  0.2359
   68MOL   C31021884   8.177   3.665   7.511 -0.3915  0.7530 -0.4369
   68MOL  Cl31121885   8.102   3.819   7.475 -0.0077  0.0209  0.4700
   68MOL   C31221886   8.217   3.642   7.645  0.5540 -0.1865 -0.0177
   68MOL   C31321887   8.282   3.523   7.677  0.7106  0.1324  0.6630
   68MOL   C31421888   8.393   3.195   7.506  0.4841  0.7154 -0.4573
   68MOL   H31521889   8.344   3.274   7.700  1.5621 -0.4430  0.4965
   68MOL   H31621890   8.299   3.381   7.363 -2.7491  0.5076 -0.3828
   68MOL   H31721891   8.172   3.603   7.312  1.5975  0.6112  0.1968
   68MOL   H31821892   8.193   3.703   7.730  1.3108  0.7775 -0.4830
   68MOL   H31921893   8.313   3.498   7.778  1.3152 -0.3992  0.3488
   68MOL   H32021894   0.015   3.112   7.534 -0.5051  0.9047  2.5114
   68MOL   H32121895   8.294   3.158   7.480  1.4207 -1.6154 -0.8548
   68MOL   H32221896   8.428   3.229   7.408 -0.0790  2.3345 -0.1207
   69MOL     C121897   2.005   1.546   0.899  0.0595  0.1139  0.2200
   69MOL     C221898   2.097   1.506   0.775  0.7770 -0.1803 -0.4950
   69MOL     C321899   2.237   1.516   0.773  0.0774  0.5372  0.1064
   69MOL     C421900   2.314   1.494   0.654 -0.2391  0.4497 -0.6727
   69MOL     C521901   2.248   1.452   0.536  0.0398  0.2282 -0.1143
   69MOL    Cl621902   2.329   1.436   0.388  0.0530 -0.3426 -0.2746
   69MOL     C721903   2.108   1.425   0.541  0.3424 -0.4649 -0.4098
   69MOL     C821904   2.037   1.459   0.659 -0.1472  0.2248  0.4271
   69MOL     C921905   2.083   1.544   1.036 -0.1840 -0.0770 -0.3935
   69MOL    H1021906   1.916   1.483   0.902 -0.7442  1.2478  0.9327
   69MOL    H1121907   2.288   1.545   0.864 -1.6098  0.1413  1.2026
   69MOL    H1221908   2.419   1.519   0.655 -0.4132  1.1867  0.4536
   69MOL    H1321909   2.054   1.392   0.454 -0.5459  2.2934 -0.9531
   69MOL    H1421910   1.932   1.435   0.656  0.1271 -0.8322 -3.4043
   69MOL    H1521911   2.133   1.449   1.053  2.5320  1.0363 -1.7747
   69MOL    H1621912   2.169   1.612   1.030  0.3927 -0.8953 -1.8267
   69MOL    H1721913   1.961   1.644   0.877  0.2528 -0.1611 -1.4678
   69MOL    C1821914   1.992   1.587   1.154  0.0782  0.3855 -0.0004
   69MOL    C1921915   1.874   1.500   1.179  0.0992 -0.8210  0.5136
   69MOL    C2021916   1.882   1.360   1.163  0.0922  0.2621  0.3112
   69MOL    C2121917   1.765   1.279   1.169 -0.2294 -0.0301 -0.0921
   69MOL    C2221918   1.639   1.339   1.170  0.2273  1.0144  0.2520
   69MOL   Cl2321919   1.490   1.246   1.181  0.1456 -0.2187  0.2691
   69MOL    C2421920   1.632   1.478   1.180  0.0140 -0.6100  0.2154
   69MOL    C2521921   1.749   1.565   1.184 -0.1161 -0.5901 -0.1966
   69MOL    C2621922   2.075   1.598   1.289 -0.4964 -0.1108 -0.2651
   69MOL    H2721923   1.962   1.687   1.126 -0.9175 -0.0017 -0.3345
   69MOL    H2821924   1.981   1.317   1.161 -1.2988 -3.0588 -1.1362
   69MOL    H2921925   1.757   1.172   1.170 -1.5362  0.0521 -0.9606
   69MOL    H3021926   1.535   1.525   1.171  0.2836 -0.2026 -0.6577
   69MOL    H3121927   1.744   1.673   1.188  0.1214 -0.5144 -1.4797
   69MOL    H3221928   2.040   1.515   1.351  1.1294  0.5259  1.5504
   69MOL    H3321929   2.181   1.576   1.273 -0.5890 -0.5543 -0.2736
   69MOL    C3421930   2.059   1.731   1.355  0.5149  0.2222 -0.6482
   69MOL    C3521931   2.131   1.716   1.492  0.1046 -0.1473  1.0194
   69MOL    C3621932   2.068   1.655   1.603  0.4102  0.2886  0.2015
   69MOL    C3721933   2.140   1.620   1.718 -0.3641 -0.5864 -0.5219
   69MOL    C3821934   2.280   1.642   1.728 -0.2422  0.1430  0.4015
   69MOL   Cl3921935   2.361   1.607   1.878 -0.1146  0.2119 -0.1115
   69MOL    C4021936   2.342   1.709   1.626 -0.2141 -0.6466  0.2543
   69MOL    C4121937   2.266   1.742   1.508 -0.5367 -0.0602 -0.3439
   69MOL    C4221938   2.101   1.863   1.279 -0.1525 -0.0839  0.1579
   69MOL    H4321939   1.952   1.742   1.374 -0.1727 -1.0553 -3.5185
   69MOL    H4421940   1.962   1.633   1.605  0.4097  0.3566  1.1552
   69MOL    H4521941   2.078   1.563   1.786 -1.8192  1.2057 -0.3188
   69MOL    H4621942   2.444   1.745   1.636 -0.8569  1.0012  1.0411
   69MOL    H4721943   2.322   1.784   1.426 -1.3136  1.8524  0.0601
   69MOL    H4821944   2.182   1.921   1.324 -1.0175 -0.0686  1.7169
   69MOL    H4921945   2.120   1.862   1.171 -1.4909  1.4924 -0.1031
   69MOL    C5021946   1.985   1.967   1.284  0.3499 -0.2164 -0.0287
   69MOL    C5121947   1.962   2.023   1.428 -0.0237  0.2117  0.4928
   69MOL    C5221948   1.832   2.029   1.484 -0.3360  0.1911  0.3606
   69MOL    C5321949   1.801   2.088   1.603 -0.4623 -0.1760 -0.4226
   69MOL    C5421950   1.902   2.155   1.674  0.3213 -0.4704 -0.0071
   69MOL   Cl5521951   1.859   2.246   1.820 -0.1137  0.2878  0.3032
   69MOL    C5621952   2.035   2.152   1.622  0.1785  0.2151  0.3651
   69MOL    C5721953   2.068   2.080   1.503  0.9031 -0.0561 -0.6918
   69MOL    C5821954   1.998   2.084   1.178  0.1752  0.2042  0.2242
   69MOL    H5921955   1.898   1.912   1.249 -0.0251  0.9084 -0.8948
   69MOL    H6021956   1.753   1.979   1.430  0.8407 -2.5194  1.0233
   69MOL    H6121957   1.698   2.086   1.637 -0.3488 -2.1829 -0.1676
   69MOL    H6221958   2.115   2.195   1.680 -0.9678  0.3230  1.8986
   69MOL    H6321959   2.172   2.077   1.474  1.4904  0.9583  1.1988
   69MOL    H6421960   1.929   2.166   1.196  0.8896  1.0621 -0.8559
   69MOL    H6521961   2.096   2.128   1.193 -1.0360  3.0406  0.2327
   69MOL    C6621962   1.961   2.050   1.036 -0.4188 -0.5219 -0.0698
   69MOL    C6721963   1.823   1.986   1.017  0.4093 -0.6052  0.3920
   69MOL    C6821964   1.811   1.873   0.931 -0.2373 -0.3108  0.1085
   69MOL    C6921965   1.690   1.799   0.926 -0.3403 -0.5612 -0.3073
   69MOL    C7021966   1.584   1.846   1.001 -0.0740  0.2209 -0.6053
   69MOL   Cl7121967   1.431   1.766   0.976  0.1078  0.0904  0.3282
   69MOL    C7221968   1.591   1.965   1.077  0.3373  0.4717 -0.1483
   69MOL    C7321969   1.708   2.034   1.091  0.0653 -0.3239 -0.3392
   69MOL    C7421970   1.977   2.173   0.944  0.0759 -0.3068 -0.0096
   69MOL    H7521971   2.038   1.979   1.005 -0.0119  0.5318 -1.5144
   69MOL    H7621972   1.901   1.844   0.879  0.0422  2.6833 -1.1748
   69MOL    H7721973   1.681   1.712   0.862  1.7083 -1.9355  1.1782
   69MOL    H7821974   1.498   2.002   1.116  0.3546  0.4218 -0.0594
   69MOL    H7921975   1.712   2.119   1.157  1.2978 -0.6118 -0.0347
   69MOL    H8021976   1.890   2.228   0.980 -0.1535  0.8526 -2.2235
   69MOL    H8121977   2.065   2.229   0.974 -0.8765  0.4347  1.4155
   69MOL    C8221978   1.969   2.161   0.789  0.3443 -0.4220 -0.6580
   69MOL    C8321979   1.940   2.298   0.723  0.0869 -0.5740  0.2987
   69MOL    C8421980   1.986   2.421   0.779  0.0835  0.1022  0.6188
   69MOL    C8521981   1.968   2.545   0.713 -0.3747  0.7641 -0.2500
   69MOL    C8621982   1.921   2.546   0.578 -0.2039  0.3469  0.8238
   69MOL   Cl8721983   1.934   2.695   0.493  0.2633  0.2395  0.3964
   69MOL    C8821984   1.875   2.429   0.521  0.1428 -0.0308  0.0860
   69MOL    C8921985   1.889   2.304   0.589  0.0759  0.3269 -0.3480
   69MOL    C9021986   2.074   2.077   0.717  0.0446  0.0958 -0.3165
   69MOL    H9121987   1.871   2.115   0.775  0.2536 -1.3834  2.7656
   69MOL    H9221988   2.035   2.424   0.875 -0.5399  1.0546  0.9149
   69MOL    H9321989   2.004   2.635   0.762  2.1569  0.6111 -1.7555
   69MOL    H9421990   1.837   2.431   0.420 -0.2418 -0.2237  0.2253
   69MOL    H9521991   1.857   2.211   0.545 -0.3868  0.4879 -0.3600
   69MOL    H9621992   2.079   1.971   0.739  0.5211  0.3640  0.9478
   69MOL    H9721993   2.045   2.071   0.612 -1.1095  2.4889 -0.1762
   69MOL    C9821994   2.218   2.149   0.739 -0.0083 -0.7128  0.7158
   69MOL    C9921995   2.285   2.103   0.867 -0.5346 -0.1168  0.3185
   69MOL   C10021996   2.306   1.968   0.890 -0.3244  0.1597  0.3300
   69MOL   C10121997   2.372   1.931   1.014 -0.5401  0.6244  0.7001
   69MOL   C10221998   2.424   2.026   1.098  0.0908  1.0942  0.3050
   69MOL  Cl10321999   2.498   1.968   1.246  0.1824  0.0017 -0.2789
   69MOL   C10422000   2.401   2.164   1.073  0.3332 -0.1594  0.3261
   69MOL   C10522001   2.338   2.202   0.957 -0.3011 -0.5809  0.6517
   69MOL   C10622002   2.318   2.118   0.625 -0.3154 -0.8173 -0.1312
   69MOL   H10722003   2.197   2.256   0.744  0.4523 -0.6716  1.8827
   69MOL   H10822004   2.276   1.881   0.833 -0.2170  0.5732 -0.3601
   69MOL   H10922005   2.378   1.827   1.044 -0.3569  0.4845  0.1762
   69MOL   H11022006   2.430   2.241   1.144  1.5903 -0.9083  0.6397
   69MOL   H11122007   2.327   2.305   0.929  4.3835 -0.0927  0.1999
   69MOL   H11222008   2.336   2.010   0.628  2.0911 -0.4419  0.4640
   69MOL   H11322009   2.255   2.123   0.536 -1.4840 -0.5402  0.6966
   69MOL   C11422010   2.442   2.200   0.613 -0.6536  0.6577 -0.0754
   69MOL   C11522011   2.570   2.131   0.664  0.2133  0.2345 -0.4815
   69MOL   C11622012   2.614   2.003   0.619 -0.1010 -0.0856 -0.0102
   69MOL   C11722013   2.745   1.956   0.654 -0.1483  0.3373 -0.4741
   69MOL   C11822014   2.831   2.032   0.732  0.1169 -0.9494  0.5170
   69MOL  Cl11922015   2.983   1.973   0.774  0.3035  0.2604 -0.2025
   69MOL   C12022016   2.784   2.160   0.774  0.5740 -0.1858  0.7791
   69MOL   C12122017   2.656   2.208   0.741  0.5432 -0.3198 -0.8596
   69MOL   C12222018   2.471   2.264   0.479 -0.1253  0.0242  0.9185
   69MOL   H12322019   2.420   2.282   0.680  1.0678 -2.5677  4.7668
   69MOL   H12422020   2.546   1.942   0.562  0.5231  2.0903 -3.1897
   69MOL   H12522021   2.767   1.853   0.632 -0.3121  0.6972 -2.4083
   69MOL   H12622022   2.845   2.222   0.838 -1.3299  2.2453  0.3079
   69MOL   H12722023   2.633   2.305   0.784 -0.5026 -1.5204  1.3673
   69MOL   H12822024   2.571   2.308   0.477 -0.9087  1.8203 -0.3377
   69MOL   H12922025   2.463   2.176   0.415 -1.3882  0.0851  0.9710
   69MOL   C13022026   2.379   2.379   0.429  0.2677  0.1423  1.1321
   69MOL   C13122027   2.400   2.513   0.509 -0.3170  0.3807 -0.1469
   69MOL   C13222028   2.287   2.599   0.516 -0.1405 -0.5225 -0.0612
   69MOL   C13322029   2.292   2.720   0.584  0.2771  0.9645 -0.3357
   69MOL   C13422030   2.413   2.765   0.634 -0.0040 -0.1880  0.4147
   69MOL  Cl13522031   2.434   2.919   0.703 -0.0370  0.4887 -0.0684
   69MOL   C13622032   2.528   2.680   0.627 -0.3020  0.4900 -0.5349
   69MOL   C13722033   2.524   2.557   0.559  0.3642  0.0809 -0.6300
   69MOL   C13822034   2.404   2.397   0.277 -0.6192  0.1860 -0.0565
   69MOL   H13922035   2.274   2.353   0.442 -0.2332  0.7823 -1.4544
   69MOL   H14022036   2.193   2.578   0.467  0.1382 -0.0665 -0.7956
   69MOL   H14122037   2.200   2.776   0.590  0.2291  1.5430 -4.5718
   69MOL   H14222038   2.627   2.702   0.663 -0.3773 -0.6629  0.4390
   69MOL   H14322039   2.620   2.509   0.547  1.0371  1.7572 -2.1071
   69MOL   H14422040   2.376   2.499   0.249 -1.6671  0.1756  0.9426
   69MOL   H14522041   2.513   2.404   0.277 -0.7518  2.8729 -1.2120
   69MOL   C14622042   2.357   2.288   0.181 -0.3098  0.9557 -0.2190
   69MOL   C14722043   2.207   2.278   0.161 -0.2389 -0.0779  0.4052
   69MOL   C14822044   2.136   2.396   0.126  0.9483  0.2937 -0.7891
   69MOL   C14922045   2.004   2.385   0.089 -0.1168 -0.3469 -0.0603
   69MOL   C15022046   1.934   2.266   0.100 -0.2408 -0.7226 -0.3299
   69MOL  Cl15122047   1.775   2.250   0.047 -0.0910  0.2135 -0.1752
   69MOL   C15222048   2.004   2.152   0.144  0.5970  0.6942 -0.2596
   69MOL   C15322049   2.140   2.158   0.164 -0.4661 -0.4242 -0.0436
   69MOL   C15422050   2.426   2.312   0.043  0.7317  0.0910  0.0024
   69MOL   H15522051   2.386   2.190   0.217  1.6946  1.5448 -0.2084
   69MOL   H15622052   2.186   2.491   0.124  0.7515  0.4161  0.0818
   69MOL   H15722053   1.945   2.470   0.058  0.4425 -0.2825 -0.9680
   69MOL   H15822054   1.951   2.057   0.144  0.3723  0.7957 -1.8962
   69MOL   H15922055   2.181   2.058   0.173 -1.0988 -0.6714  0.0847
   69MOL   H16022056   2.370   2.256   8.411 -1.3349 -2.6467  3.4474
   69MOL   H16122057   2.412   2.418   0.021 -0.9338  0.1398  1.1680
   69MOL   C16222058   2.577   2.273   0.032  0.1676  0.2253  0.2379
   69MOL   C16322059   2.612   2.138   0.096  0.3759  0.1359 -0.2813
   69MOL   C16422060   2.547   2.023   0.044  0.7329  0.3007 -0.0134
   69MOL   C16522061   2.565   1.899   0.107 -0.2706  0.4021  0.3306
   69MOL   C16622062   2.638   1.894   0.229  0.0475 -0.1651  0.5755
   69MOL  Cl16722063   2.670   1.741   0.296 -0.1264  0.5545  0.0802
   69MOL   C16822064   2.698   2.011   0.278  0.8362 -0.0921  0.6036
   69MOL   C16922065   2.684   2.137   0.213 -0.1466 -0.1570 -0.3840
   69MOL   C17022066   2.634   2.276   8.329  0.5435  0.5204 -0.0694
   69MOL   H17122067   2.636   2.350   0.083  0.8100 -2.0431  3.0895
   69MOL   H17222068   2.493   2.028   8.393 -0.1244 -1.1425  0.3871
   69MOL   H17322069   2.524   1.810   0.062  0.7961 -0.5242  1.1657
   69MOL   H17422070   2.753   2.012   0.372  1.1057  1.2891  0.4473
   69MOL   H17522071   2.732   2.226   0.251 -1.6594  0.1835  0.7761
   69MOL   H17622072   2.554   2.241   8.264  0.3968  0.3683  0.1932
   69MOL   H17722073   2.654   2.381   8.311  3.4774 -0.2255 -1.3947
   69MOL   C17822074   2.767   2.208   8.293  0.3873 -0.6368  0.4765
   69MOL   C17922075   2.746   2.065   8.242  0.0607  0.3034  0.0661
   69MOL   C18022076   2.817   1.957   8.299 -0.2564  0.8852  0.1806
   69MOL   C18122077   2.783   1.827   8.262  0.3804  0.7683  0.3015
   69MOL   C18222078   2.678   1.801   8.174  0.7618 -0.5536 -0.5493
   69MOL  Cl18322079   2.620   1.640   8.156  0.1832 -0.2173 -0.6183
   69MOL   C18422080   2.612   1.910   8.112  0.3096  0.2619 -0.5843
   69MOL   C18522081   2.651   2.043   8.143 -0.4521  1.0208  0.7750
   69MOL   C18622082   2.855   2.286   8.202  0.2376  0.4205  0.6815
   69MOL   H18722083   2.817   2.191   8.388  2.4974 -1.3908 -0.7421
   69MOL   H18822084   2.900   1.969   8.367 -0.0151 -2.2091  0.5050
   69MOL   H18922085   2.832   1.740   8.302  0.7349  0.1133 -1.5295
   69MOL   H19022086   2.528   1.903   8.045 -1.4123  1.0631  1.4396
   69MOL   H19122087   2.596   2.125   8.100  1.1966  0.6283 -2.1628
   69MOL   H19222088   2.918   2.216   8.147 -0.6527  1.9207 -2.3769
   69MOL   H19322089   2.799   2.331   8.121 -0.1177 -0.3587  0.4937
   69MOL   C19422090   2.941   2.394   8.274  0.0336  0.2609  0.5481
   69MOL   C19522091   3.070   2.333   8.318 -0.6250  0.9665 -0.1937
   69MOL   C19622092   3.184   2.308   8.231  0.0851  0.0879 -0.3203
   69MOL   C19722093   3.302   2.253   8.284 -0.3201 -0.4367  0.4827
   69MOL   C19822094   3.311   2.227   8.423  0.5833  0.4752 -0.2647
   69MOL  Cl19922095   3.466   2.179   0.050 -0.2772 -0.0507  0.1241
   69MOL   C20022096   3.197   2.238   0.057 -0.7602 -1.0404 -0.5529
   69MOL   C20122097   3.074   2.283   0.005  0.3564 -0.2224 -0.2447
   69MOL   C20222098   2.972   2.527   8.192  0.0473 -0.6389  0.1274
   69MOL   H20322099   2.890   2.433   8.362 -0.2516  0.1291  0.4394
   69MOL   H20422100   3.185   2.346   8.130  1.6818  2.6062  0.5920
   69MOL   H20522101   3.394   2.241   8.229 -2.0949 -1.2687 -2.3941
   69MOL   H20622102   3.207   2.216   0.163 -0.6924  2.1050  0.1530
   69MOL   H20722103   2.993   2.287   0.077  0.2417 -0.2319 -0.3744
   69MOL   H20822104   3.073   2.560   8.216  0.1579  0.2001 -1.4101
   69MOL   H20922105   2.983   2.501   8.086  0.3778 -1.8140  0.4428
   69MOL   C21022106   2.878   2.650   8.215  0.7982 -0.0219 -0.0619
   69MOL   C21122107   2.866   2.692   8.363 -0.4548 -0.0774  0.0344
   69MOL   C21222108   2.982   2.712   0.001  0.1704  0.3721 -0.6588
   69MOL   C21322109   2.972   2.751   0.134  0.5528 -0.1278  0.3273
   69MOL   C21422110   2.849   2.764   0.199  0.5751  0.1158 -0.2149
   69MOL  Cl21522111   2.843   2.820   0.363  0.4875  0.3622  0.2973
   69MOL   C21622112   2.732   2.724   0.132 -0.2730  0.1477 -0.5269
   69MOL   C21722113   2.741   2.695   8.431 -0.2650 -0.3924  0.1006
   69MOL   C21822114   2.917   2.773   8.124 -0.2364  0.4293  0.4933
   69MOL   H21922115   2.777   2.614   8.196  0.9519 -0.4754 -0.0219
   69MOL   H22022116   3.079   2.690   8.401  0.7996  0.4328  0.7091
   69MOL   H22122117   3.059   2.778   0.192 -0.1674 -0.1898  1.4464
   69MOL   H22222118   2.638   2.742   0.182 -0.7602  0.3772 -1.4969
   69MOL   H22322119   2.653   2.684   8.370 -0.4439 -0.4254  0.3609
   69MOL   H22422120   2.846   2.851   8.151 -0.7678  0.0466  0.2067
   69MOL   H22522121   3.019   2.806   8.142 -0.3123 -0.0117  1.7800
   69MOL   C22622122   2.915   2.745   7.975  0.3190 -0.3182  0.4089
   69MOL   C22722123   2.779   2.685   7.927 -0.3642 -0.5698  0.0900
   69MOL   C22822124   2.783   2.557   7.869  0.8667  0.4288 -0.0883
   69MOL   C22922125   2.659   2.497   7.832  0.2515  0.4288 -0.0181
   69MOL   C23022126   2.531   2.554   7.860  0.5568 -0.4221 -0.7954
   69MOL  Cl23122127   2.383   2.463   7.818  0.0037 -0.1342 -0.2881
   69MOL   C23222128   2.533   2.679   7.917 -0.2087 -0.5603 -1.0553
   69MOL   C23322129   2.658   2.749   7.944 -0.2397 -0.4893 -0.2460
   69MOL   C23422130   2.953   2.876   7.899 -0.3753  0.5963  0.3500
   69MOL   H23522131   2.996   2.674   7.959 -1.1335 -1.6919 -1.0961
   69MOL   H23622132   2.871   2.495   7.859  1.1528  0.6383  0.9739
   69MOL   H23722133   2.663   2.392   7.808 -0.8408  0.2043  0.7516
   69MOL   H23822134   2.441   2.735   7.933  1.0086  1.2797 -0.2877
   69MOL   H23922135   2.650   2.847   7.989  1.4870 -0.7449  0.6404
   69MOL   H24022136   2.872   2.943   7.929 -0.7611  1.3919 -2.2781
   69MOL   H24122137   3.039   2.921   7.947 -2.8346  3.6250  2.0644
   69MOL   C24222138   2.981   2.876   7.741 -0.2718  0.5502  0.5839
   69MOL   C24322139   3.097   2.789   7.704  0.3616 -1.4998 -0.1562
   69MOL   C24422140   3.081   2.657   7.658  0.7374 -0.1721  0.4444
   69MOL   C24522141   3.191   2.593   7.608  0.0995 -0.4953 -0.2977
   69MOL   C24622142   3.317   2.649   7.609  0.9571 -0.4672 -0.6826
   69MOL  Cl24722143   3.452   2.558   7.540 -0.1451 -0.0525 -0.3220
   69MOL   C24822144   3.336   2.773   7.661  0.4127  0.5485  0.1761
   69MOL   C24922145   3.230   2.849   7.711  0.2498  0.6223  0.6993
   69MOL   C25022146   2.846   2.848   7.660  0.2108 -0.0033  0.3321
   69MOL   H25122147   3.009   2.978   7.715 -0.3676  0.3107 -0.4814
   69MOL   H25222148   2.980   2.617   7.653  0.7183 -0.0424 -0.2815
   69MOL   H25322149   3.180   2.498   7.558 -2.2826 -0.6339  0.4273
   69MOL   H25422150   3.434   2.817   7.665 -0.5749  2.7591  1.1084
   69MOL   H25522151   3.250   2.947   7.754  2.1749  0.6135 -0.1036
   69MOL   H25622152   2.803   2.748   7.669  0.2616 -0.2649 -2.0596
   69MOL   H25722153   2.764   2.916   7.683  2.1234  2.8597 -1.0112
   69MOL   C25822154   2.868   2.859   7.502  0.4640 -0.4281  0.0757
   69MOL   C25922155   2.800   2.738   7.425 -0.4213  0.2495 -0.9201
   69MOL   C26022156   2.865   2.705   7.302  0.1244  0.2818 -0.1901
   69MOL   C26122157   2.793   2.617   7.218  0.2975 -0.2699  0.4894
   69MOL   C26222158   2.668   2.563   7.247 -0.1063 -0.4761 -0.5803
   69MOL  Cl26322159   2.595   2.452   7.142  0.1525 -0.2154  0.0175
   69MOL   C26422160   2.600   2.609   7.361  0.1602 -0.3642  0.1111
   69MOL   C26522161   2.660   2.699   7.446  0.4475 -0.8007  0.7409
   69MOL   C26622162   2.825   3.005   7.440 -0.2066  0.2938 -0.5200
   69MOL   H26722163   2.972   2.841   7.476  0.8182  2.4931 -0.7239
   69MOL   H26822164   2.962   2.741   7.271  0.1345 -0.0852 -0.5781
   69MOL   H26922165   2.840   2.593   7.124 -0.5210  1.7379 -0.4465
   69MOL   H27022166   2.500   2.572   7.373 -0.3334  0.9733  0.1794
   69MOL   H27122167   2.600   2.742   7.525 -0.2094  0.6250 -0.5175
   69MOL   H27222168   2.818   2.989   7.332  1.8018  2.1448 -0.9613
   69MOL   H27322169   2.719   3.014   7.464 -0.2865  0.1712 -0.8263
   69MOL   C27422170   2.914   3.127   7.477 -0.0430  0.0281 -0.8077
   69MOL   C27522171   3.065   3.106   7.457 -0.1360 -0.5914  0.2773
   69MOL   C27622172   3.151   3.169   7.546 -0.1221 -0.4370  0.2921
   69MOL   C27722173   3.286   3.145   7.545 -0.3445 -0.8000 -0.6470
   69MOL   C27822174   3.337   3.059   7.444  0.0856 -0.3241 -0.9910
   69MOL  Cl27922175   3.509   3.014   7.440 -0.2856  0.2100  0.4918
   69MOL   C28022176   3.256   3.006   7.343 -0.0187 -0.5662  0.1892
   69MOL   C28122177   3.115   3.019   7.356  0.1678  0.0095  0.2566
   69MOL   C28222178   2.860   3.255   7.414  0.0004 -0.2317  0.7745
   69MOL   H28322179   2.910   3.136   7.586  1.7577  2.0864 -0.8803
   69MOL   H28422180   3.104   3.233   7.620  0.9718  0.8655 -0.1314
   69MOL   H28522181   3.348   3.171   7.630 -2.1192 -1.7557  0.9832
   69MOL   H28622182   3.300   2.944   7.267  2.1502 -1.8440  2.4092
   69MOL   H28722183   3.053   2.977   7.277 -0.6480  0.3700  0.7002
   69MOL   H28822184   2.927   3.336   7.443  1.3813  0.4563 -3.9529
   69MOL   H28922185   2.878   3.245   7.307  1.8949 -0.1623  1.0659
   69MOL   C29022186   2.710   3.298   7.453 -0.3494  0.5689 -0.1919
   69MOL   C29122187   2.660   3.245   7.585  1.3558 -0.1254  0.2020
   69MOL   C29222188   2.721   3.288   7.702 -0.2258 -0.1493  0.0621
   69MOL   C29322189   2.685   3.227   7.830 -0.4651  0.0898 -0.8046
   69MOL   C29422190   2.573   3.143   7.836  0.0985  0.0520  0.3688
   69MOL  Cl29522191   2.521   3.074   7.987  0.1113 -0.0706  0.2382
   69MOL   C29622192   2.505   3.116   7.718 -0.1947 -0.2144  0.4316
   69MOL   C29722193   2.549   3.157   7.592  0.5077  0.0475  0.5981
   69MOL   C29822194   2.704   3.449   7.439  0.0908  0.4776 -0.2961
   69MOL   H29922195   2.649   3.252   7.376  1.0714 -0.3698 -0.7925
   69MOL   H30022196   2.805   3.354   7.687 -1.3690  1.4835  0.7583
   69MOL   H30122197   2.753   3.241   7.912 -1.3916  1.1636 -0.2040
   69MOL   H30222198   2.425   3.044   7.731 -1.9845  1.7743  0.7077
   69MOL   H30322199   2.508   3.117   7.500  0.8292  0.7672  0.1318
   69MOL   H30422200   2.757   3.488   7.526  2.8716 -3.1158 -0.2545
   69MOL   H30522201   2.765   3.480   7.354  2.7108 -1.0362  0.9814
   69MOL   C30622202   2.561   3.501   7.433  0.4319  0.7070  0.0223
   69MOL   C30722203   2.546   3.650   7.475 -0.0800  0.0732  0.1848
   69MOL   C30822204   2.660   3.730   7.461 -0.5754 -0.3707  0.6331
   69MOL   C30922205   2.660   3.864   7.507 -0.3984  0.4207 -0.4604
   69MOL   C31022206   2.549   3.907   7.582  0.1410 -0.1311 -1.1721
   69MOL  Cl31122207   2.553   4.057   7.662  0.3805 -0.2044  0.1644
   69MOL   C31222208   2.433   3.825   7.593  0.6100 -0.0641  0.5776
   69MOL   C31322209   2.435   3.693   7.545  0.5586  0.0527 -0.5191
   69MOL   C31422210   2.490   3.480   7.296 -0.3327  0.1062 -0.3924
   69MOL   H31522211   2.499   3.449   7.505 -0.6260  0.0023 -1.3610
   69MOL   H31622212   2.745   3.693   7.407  0.4860 -0.8678  2.6040
   69MOL   H31722213   2.755   3.914   7.509 -0.1792 -0.0084  0.1254
   69MOL   H31822214   2.350   3.864   7.649  1.2461  2.5536 -0.2176
   69MOL   H31922215   2.350   3.627   7.553  1.5320 -0.9116  2.2909
   69MOL   H32022216   2.537   3.544   7.221 -0.2942 -1.1951 -1.5114
   69MOL   H32122217   2.485   3.374   7.269 -1.0050 -0.9846  3.6507
   69MOL   H32222218   2.385   3.510   7.294 -0.4200 -0.2330 -2.2747
   70MOL     C122219   6.267   0.452   7.224 -0.4586 -0.1294  0.0520
   70MOL     C222220   6.320   0.487   7.366  0.2976 -0.6557 -0.1559
   70MOL     C322221   6.376   0.617   7.387 -0.1408 -0.2483  0.2137
   70MOL     C422222   6.415   0.647   7.515 -0.0014 -0.9315 -0.5378
   70MOL     C522223   6.395   0.560   7.627  0.1077  0.8509 -0.7240
   70MOL    Cl622224   6.441   0.592   7.788  0.2038 -0.0362  0.0365
   70MOL     C722225   6.345   0.432   7.601 -1.0048  0.5818  0.6856
   70MOL     C822226   6.302   0.401   7.468 -0.5609  0.4403 -0.0318
   70MOL     C922227   6.130   0.396   7.216  0.3992  0.4661  0.0209
   70MOL    H1022228   6.349   0.393   7.182  0.2919 -0.4799  1.9567
   70MOL    H1122229   6.382   0.697   7.315  3.0730 -0.9830 -0.3798
   70MOL    H1222230   6.456   0.744   7.541  1.0829 -1.2495 -1.0281
   70MOL    H1322231   6.348   0.361   7.682  0.3555 -0.1475  0.0069
   70MOL    H1422232   6.255   0.304   7.456  0.0685 -0.0112  1.0078
   70MOL    H1522233   6.129   0.374   7.109  1.6749  2.8032 -0.5266
   70MOL    H1622234   6.126   0.302   7.270  1.3710  1.0846  1.2057
   70MOL    H1722235   6.253   0.543   7.165 -0.3918 -0.1610 -0.0119
   70MOL    C1822236   6.012   0.489   7.258 -0.2617 -0.0375 -0.2298
   70MOL    C1922237   5.923   0.506   7.133 -0.1792  0.3946  0.5318
   70MOL    C2022238   5.920   0.627   7.060 -0.7281 -0.3808  0.1804
   70MOL    C2122239   5.835   0.644   6.947 -0.8389  0.6438 -0.3548
   70MOL    C2222240   5.762   0.533   6.906 -0.4171 -0.3190  0.2659
   70MOL   Cl2322241   5.669   0.546   6.762 -0.1675 -0.1097  0.0579
   70MOL    C2422242   5.763   0.414   6.977 -0.7188  0.4258  0.0644
   70MOL    C2522243   5.843   0.396   7.091  0.4824 -0.1434 -0.0791
   70MOL    C2622244   5.934   0.423   7.377 -0.3664  0.2166 -0.2878
   70MOL    H2722245   6.050   0.589   7.276  2.0207 -1.2016  1.6183
   70MOL    H2822246   5.983   0.707   7.096 -0.9299  0.0268 -0.3588
   70MOL    H2922247   5.827   0.731   6.885 -0.8071 -0.0582 -1.3601
   70MOL    H3022248   5.703   0.332   6.940 -0.9191 -0.8089  2.9742
   70MOL    H3122249   5.855   0.302   7.143 -0.4001 -0.5151 -0.5474
   70MOL    H3222250   5.831   0.451   7.354 -1.3089 -1.7671  1.3927
   70MOL    H3322251   5.933   0.314   7.375 -4.9705  0.1750 -1.2376
   70MOL    C3422252   5.954   0.479   7.522 -0.5434  0.0904 -0.5935
   70MOL    C3522253   5.973   0.630   7.519  0.1850  0.8040  0.3754
   70MOL    C3622254   5.886   0.720   7.443  0.3831 -0.6913 -0.0336
   70MOL    C3722255   5.924   0.857   7.429 -0.0912 -0.1019  1.2676
   70MOL    C3822256   6.036   0.910   7.491 -0.2196 -0.0360 -0.0115
   70MOL   Cl3922257   6.101   1.066   7.452 -0.2653  0.2651  0.0249
   70MOL    C4022258   6.118   0.821   7.569 -0.1705  0.1640 -0.0075
   70MOL    C4122259   6.086   0.685   7.585 -0.4030 -1.4704  0.0892
   70MOL    C4222260   5.847   0.444   7.637  0.6459  0.0642  0.4040
   70MOL    H4322261   6.053   0.442   7.548 -1.3597 -0.8449  1.2887
   70MOL    H4422262   5.810   0.672   7.383 -0.3939  0.5478 -0.0824
   70MOL    H4522263   5.854   0.919   7.376  1.5316  0.5875 -0.1237
   70MOL    H4622264   6.209   0.859   7.612 -0.4707 -1.5222  2.1901
   70MOL    H4722265   6.147   0.624   7.650 -0.9519 -1.1657  0.9033
   70MOL    H4822266   5.836   0.512   7.721 -2.8052 -1.0880  0.9552
   70MOL    H4922267   5.755   0.467   7.583  2.8180  1.6525 -2.7985
   70MOL    C5022268   5.861   0.308   7.709 -0.3096  0.0969  0.0917
   70MOL    C5122269   5.995   0.291   7.772 -0.1236 -0.2036  0.2965
   70MOL    C5222270   6.070   0.176   7.747  0.0664  0.5964 -0.0329
   70MOL    C5322271   6.195   0.157   7.814  0.3471 -0.1314  0.0715
   70MOL    C5422272   6.248   0.255   7.893 -0.8145  0.2139 -0.2764
   70MOL   Cl5522273   6.408   0.233   7.962 -0.2145  0.0466 -0.1942
   70MOL    C5622274   6.175   0.376   7.917  0.1890  0.0914  0.5573
   70MOL    C5722275   6.046   0.394   7.855 -0.2085  0.0579  0.1773
   70MOL    C5822276   5.750   0.260   7.804 -0.0317  0.4452 -0.4688
   70MOL    H5922277   5.858   0.244   7.620 -1.0740 -1.4212  1.1927
   70MOL    H6022278   6.029   0.095   7.688 -1.3911  1.6480 -0.4917
   70MOL    H6122279   6.245   0.066   7.784 -3.7335 -1.3118 -3.5896
   70MOL    H6222280   6.225   0.461   7.963 -2.1527  1.7641  0.0787
   70MOL    H6322281   5.981   0.481   7.860 -0.5857 -0.2657  1.0626
   70MOL    H6422282   5.771   0.156   7.831  1.1824  0.7715 -0.1145
   70MOL    H6522283   5.759   0.316   7.897 -0.1504 -1.4297  0.7117
   70MOL    C6622284   5.611   0.265   7.747  0.4008  0.0928 -0.0425
   70MOL    C6722285   5.582   0.149   7.646  0.6672  0.6389  0.2950
   70MOL    C6822286   5.522   0.026   7.690  0.2980  0.0197  0.4069
   70MOL    C6922287   5.481   8.368   7.591 -0.0914 -0.4596  0.4277
   70MOL    C7022288   5.503   8.402   7.455 -0.1927 -0.5479 -0.3912
   70MOL   Cl7122289   5.440   8.303   7.331  0.1831 -0.0113  0.2611
   70MOL    C7222290   5.566   0.080   7.414  0.3251 -0.0917 -0.4122
   70MOL    C7322291   5.599   0.179   7.509  0.0457  0.0169  0.1840
   70MOL    C7422292   5.509   0.262   7.867 -0.9622  0.3598  0.7035
   70MOL    H7522293   5.590   0.356   7.691  0.0684 -0.9746 -1.7022
   70MOL    H7622294   5.518   0.009   7.797  3.1309  0.0869  0.5545
   70MOL    H7722295   5.438   8.273   7.619 -1.6500  0.6158  1.7849
   70MOL    H7822296   5.569   0.104   7.309 -0.6261  0.1793 -0.3823
   70MOL    H7922297   5.634   0.275   7.475 -1.9313  1.4524  2.1099
   70MOL    H8022298   5.412   0.249   7.820 -1.6997  0.6287  2.1235
   70MOL    H8122299   5.516   0.172   7.929 -0.0210 -0.0952 -0.0483
   70MOL    C8222300   5.502   0.387   7.962 -0.4227  0.4841  0.6777
   70MOL    C8322301   5.501   0.513   7.889 -0.4110  0.0769 -0.1708
   70MOL    C8422302   5.403   0.530   7.783  0.5888 -0.1239  0.8142
   70MOL    C8522303   5.402   0.656   7.723 -0.7509  0.1944  0.2622
   70MOL    C8622304   5.495   0.762   7.757  0.0795 -1.1223  0.1618
   70MOL   Cl8722305   5.481   0.914   7.687 -0.0607 -0.3724 -0.0048
   70MOL    C8822306   5.592   0.741   7.853 -0.1199 -0.8776 -0.4014
   70MOL    C8922307   5.594   0.614   7.919  0.6220 -0.3523  0.3464
   70MOL    C9022308   5.371   0.379   8.042  0.8733  0.2493 -0.4655
   70MOL    H9122309   5.596   0.392   8.018  0.0047  2.7071 -0.1953
   70MOL    H9222310   5.333   0.453   7.755  0.4204  0.5173 -0.5869
   70MOL    H9322311   5.329   0.687   7.649  0.2832  0.3064 -0.7272
   70MOL    H9422312   5.674   0.805   7.884 -2.5628  2.1484  0.0448
   70MOL    H9522313   5.660   0.597   8.003  2.5988  0.1707 -1.0443
   70MOL    H9622314   5.340   0.482   8.058 -3.0122 -0.7466 -1.0564
   70MOL    H9722315   5.286   0.337   7.989 -0.2632 -0.5870  1.9703
   70MOL    C9822316   5.396   0.319   8.178  1.1776  0.1566 -0.2390
   70MOL    C9922317   5.466   0.419   8.276 -0.0816  0.9242 -0.1820
   70MOL   C10022318   5.402   0.540   8.317  0.2466 -0.7035 -0.6227
   70MOL   C10122319   5.449   0.616   8.424  0.3244 -0.0881 -0.5883
   70MOL   C10222320   5.573   0.586   0.041 -0.3378 -0.4077  0.4082
   70MOL  Cl10322321   5.626   0.685   0.171  0.0004  0.5297 -0.1613
   70MOL   C10422322   5.648   0.484   8.431 -0.6524  0.0882 -0.1439
   70MOL   C10522323   5.591   0.394   8.343 -0.3604  0.7072  0.7544
   70MOL   C10622324   5.265   0.261   8.241 -0.3395  0.2204 -0.1585
   70MOL   H10722325   5.472   0.243   8.159  1.9422  0.7231  0.4901
   70MOL   H10822326   5.307   0.562   8.270 -1.7691  1.4574  4.1096
   70MOL   H10922327   5.389   0.700   0.014  0.4375  0.7162 -2.3625
   70MOL   H11022328   5.747   0.466   0.027 -0.6704  0.7112  0.1994
   70MOL   H11122329   5.652   0.313   8.306 -2.9113 -2.0768  2.3895
   70MOL   H11222330   5.187   0.333   8.263 -1.6845 -1.8162  2.0118
   70MOL   H11322331   5.222   0.184   8.177  2.3599 -1.7899  0.3263
   70MOL   C11422332   5.291   0.201   8.380  0.6454  0.1008 -0.3104
   70MOL   C11522333   5.168   0.165   0.017  0.3011 -0.3781  0.5648
   70MOL   C11622334   5.159   0.229   0.145 -0.7128 -0.3037  0.4596
   70MOL   C11722335   5.054   0.200   0.233  0.0404 -0.0269  0.3917
   70MOL   C11822336   4.948   0.115   0.190  0.6277  0.2357 -0.4119
   70MOL  Cl11922337   4.818   0.094   0.299 -0.0934  0.1830 -0.0227
   70MOL   C12022338   4.948   0.061   0.059  0.1245 -0.8229 -0.3646
   70MOL   C12122339   5.056   0.084   8.415  0.1944 -0.5489 -0.3597
   70MOL   C12222340   5.373   0.067   8.373 -0.4811 -1.2504 -0.3403
   70MOL   H12322341   5.350   0.276   8.432 -1.2031  1.2087  0.2382
   70MOL   H12422342   5.236   0.290   0.191  1.3147 -3.4612  1.3988
   70MOL   H12522343   5.052   0.250   0.329 -1.2045 -0.1683  0.4493
   70MOL   H12622344   4.864   0.007   0.019 -0.3543 -0.1784 -0.2355
   70MOL   H12722345   5.060   0.039   8.317  2.2952  0.0417 -0.5558
   70MOL   H12822346   5.319   8.427   8.326  0.3466 -0.3865 -2.9187
   70MOL   H12922347   5.455   0.085   8.304 -3.0966  0.9435 -3.0219
   70MOL   C13022348   5.436   0.016   0.064  0.1596 -0.2347  0.2424
   70MOL   C13122349   5.511   8.330   0.058  0.1441  0.3700  0.3329
   70MOL   C13222350   5.604   8.310   8.397  0.2634 -1.0347 -0.2281
   70MOL   C13322351   5.681   8.197   8.392 -0.1287  0.7374 -0.2875
   70MOL   C13422352   5.661   8.094   0.044 -1.0024  0.0333 -0.8533
   70MOL  Cl13522353   5.749   7.947   0.033 -0.0617 -0.1514  0.0324
   70MOL   C13622354   5.553   8.100   0.134  0.3864  0.1977  0.4759
   70MOL   C13722355   5.484   8.225   0.147  0.3146 -0.2400 -0.2805
   70MOL   C13822356   5.523   0.120   0.139  0.4836  0.1099  0.4237
   70MOL   H13922357   5.352   8.432   0.128  0.1276 -1.0089 -0.1237
   70MOL   H14022358   5.616   8.389   8.324 -0.2033 -1.8349 -1.1881
   70MOL   H14122359   5.761   8.186   8.320 -0.0988  0.4867 -0.2157
   70MOL   H14222360   5.528   8.019   0.202 -3.4698  2.2746  1.6738
   70MOL   H14322361   5.423   8.244   0.234 -0.7875  0.7961 -1.2466
   70MOL   H14422362   5.589   0.161   0.063  0.2940 -1.5159 -0.6410
   70MOL   H14522363   5.459   0.199   0.176  1.2738 -0.1010  2.2855
   70MOL   C14622364   5.608   0.077   0.269  0.5860 -0.7173 -0.1616
   70MOL   C14722365   5.717   0.180   0.298 -0.2586  0.0301  0.3454
   70MOL   C14822366   5.683   0.307   0.350  0.5175  0.2747 -0.3571
   70MOL   C14922367   5.786   0.395   0.383 -0.0346  0.1120  0.3109
   70MOL   C15022368   5.922   0.363   0.370 -0.3378 -0.0887 -0.4800
   70MOL  Cl15122369   6.045   0.467   0.433  0.2687  0.3673 -0.2570
   70MOL   C15222370   5.952   0.248   0.303 -0.2708 -0.4464 -0.6014
   70MOL   C15322371   5.854   0.151   0.273  0.7767  0.1939  0.2505
   70MOL   C15422372   5.525   0.036   0.394  0.4529  0.2050  0.0401
   70MOL   H15522373   5.663   8.429   0.243  0.1104 -0.9645 -0.3037
   70MOL   H15622374   5.582   0.344   0.364  0.4200  0.7307 -2.1235
   70MOL   H15722375   5.756   0.493   0.418 -0.4662  0.2407 -0.4035
   70MOL   H15822376   6.053   0.215   0.286  0.1195 -0.6900  2.0301
   70MOL   H15922377   5.872   0.052   0.235 -1.9989 -0.1957 -0.1801
   70MOL   H16022378   5.496   0.126   0.446  0.4826 -1.0646  2.3101
   70MOL   H16122379   5.431   8.443   0.351  1.2713  1.1326 -2.6810
   70MOL   C16222380   5.592   8.390   0.502 -0.1626  0.0776  0.0960
   70MOL   C16322381   5.729   8.441   0.542 -0.0727  0.8599 -0.2255
   70MOL   C16422382   5.738   0.110   0.625  0.0339  0.0662  0.2875
   70MOL   C16522383   5.866   0.155   0.668 -0.2813  0.5698  0.7545
   70MOL   C16622384   5.977   0.075   0.646  0.5375 -0.3888 -0.0486
   70MOL  Cl16722385   6.119   0.122   0.715 -0.2325  0.0872  0.0072
   70MOL   C16822386   5.966   8.411   0.554 -0.2595 -0.1730  0.3104
   70MOL   C16922387   5.845   8.371   0.497 -0.2487 -0.6703  0.1944
   70MOL   C17022388   5.491   8.371   0.621 -0.2580  0.3011  0.5540
   70MOL   H17122389   5.609   8.292   0.457  1.0768 -0.1764  1.0975
   70MOL   H17222390   5.648   0.165   0.649 -0.7576 -0.1651 -1.9750
   70MOL   H17322391   5.870   0.243   0.730 -0.6199 -0.0780  1.7026
   70MOL   H17422392   6.058   8.359   0.530  0.1614 -0.3965  2.2840
   70MOL   H17522393   5.845   8.285   0.430 -1.4336  0.3427 -1.1353
   70MOL   H17622394   5.483   0.020   0.679 -2.2679 -0.1171  0.9666
   70MOL   H17722395   5.389   8.360   0.583 -0.0636 -0.4054  0.2406
   70MOL   C17822396   5.511   8.240   0.706  0.0818  0.2874 -0.5980
   70MOL   C17922397   5.493   8.116   0.621 -0.5448  0.1442  0.3292
   70MOL   C18022398   5.362   8.069   0.598  0.3393 -0.7654  1.1073
   70MOL   C18122399   5.333   7.952   0.524 -0.1236  0.3786  1.1060
   70MOL   C18222400   5.441   7.878   0.471  0.1292 -0.6586  0.8009
   70MOL  Cl18322401   5.407   7.747   0.367  0.1755 -0.2071 -0.1092
   70MOL   C18422402   5.572   7.913   0.498 -0.4047 -0.3391  0.3045
   70MOL   C18522403   5.600   8.033   0.575  0.4727 -0.1376 -0.5766
   70MOL   C18622404   5.637   8.235   0.796 -0.0618  0.0575  0.3628
   70MOL   H18722405   5.431   8.233   0.780  1.2338  0.3540  0.6690
   70MOL   H18822406   5.286   8.136   0.635  0.4802 -0.2039  0.3793
   70MOL   H18922407   5.232   7.919   0.504  0.8500 -1.9009 -0.1620
   70MOL   H19022408   5.659   7.869   0.451  0.3132  1.9411 -0.6009
   70MOL   H19122409   5.702   8.064   0.591  0.1332 -0.2313  2.0325
   70MOL   H19222410   5.622   8.141   0.849  3.1315 -0.7508 -0.0442
   70MOL   H19322411   5.731   8.223   0.742  0.4903 -0.5615  1.4366
   70MOL   C19422412   5.665   8.331   0.906 -0.0608 -0.2255 -0.0175
   70MOL   C19522413   5.548   8.370   0.993 -0.8285  0.0304  0.4755
   70MOL   C19622414   5.484   8.287   1.088 -0.2291 -0.4924  0.2881
   70MOL   C19722415   5.375   8.341   1.161  0.3790  0.4949  0.0803
   70MOL   C19822416   5.328   0.029   1.133 -0.0283  0.5388 -0.8240
   70MOL  Cl19922417   5.195   0.096   1.218 -0.3829  0.1160  0.2645
   70MOL   C20022418   5.388   0.106   1.033 -0.6607 -0.0825  0.5824
   70MOL   C20122419   5.504   0.061   0.972 -0.6699  0.5372  0.2431
   70MOL   C20222420   5.793   8.276   0.980  0.0818 -0.2607  0.2027
   70MOL   H20322421   5.694   8.427   0.863  1.4796 -0.0455  1.3909
   70MOL   H20422422   5.517   8.185   1.092  0.1644 -0.4107 -0.8830
   70MOL   H20522423   5.332   8.270   1.232  1.5768 -0.8254 -0.4875
   70MOL   H20622424   5.349   0.197   0.990 -0.9175 -0.1521  0.6661
   70MOL   H20722425   5.544   0.133   0.903 -1.3806  2.0833  1.3987
   70MOL   H20822426   5.762   8.184   1.030 -1.2600  1.1584  2.0299
   70MOL   H20922427   5.859   8.246   0.899 -1.2014 -0.5788 -0.7514
   70MOL   C21022428   5.858   8.362   1.091  0.1594  0.2819 -0.6624
   70MOL   C21122429   5.968   8.285   1.164  0.0179 -0.0702  0.7551
   70MOL   C21222430   6.084   8.246   1.097 -0.1665 -0.7396 -0.6228
   70MOL   C21322431   6.177   8.161   1.166 -0.0242  0.1110  0.4720
   70MOL   C21422432   6.153   8.119   1.299 -0.2034  0.5396 -0.5830
   70MOL  Cl21522433   6.268   8.019   1.378 -0.1498 -0.2592 -0.1088
   70MOL   C21622434   6.036   8.157   1.360  0.2758  0.2924 -0.5712
   70MOL   C21722435   5.934   8.234   1.296  0.0715  0.1137  0.2851
   70MOL   C21822436   5.913   0.048   1.023  0.7032  0.4566  0.4664
   70MOL   H21922437   5.782   8.380   1.167 -0.7329  0.8213 -1.6548
   70MOL   H22022438   6.091   8.270   0.992 -0.4642 -1.3498 -0.7825
   70MOL   H22122439   6.271   8.128   1.123 -1.5858 -2.3716 -1.1776
   70MOL   H22222440   6.014   8.120   1.459 -0.6458  0.3247 -0.7673
   70MOL   H22322441   5.842   8.262   1.345 -0.9268 -0.9320 -0.9551
   70MOL   H22422442   5.963   0.020   0.931 -0.9295 -1.4955  0.1631
   70MOL   H22522443   5.822   0.101   0.995 -0.4414 -1.2223  0.9634
   70MOL   C22622444   6.005   0.140   1.099 -0.9405 -0.0426 -0.2201
   70MOL   C22722445   6.045   0.267   1.028 -0.2404 -0.5229  0.1902
   70MOL   C22822446   5.946   0.356   0.979  0.0524 -0.2959  0.5521
   70MOL   C22922447   5.974   0.476   0.909 -0.3189 -0.6850  0.1317
   70MOL   C23022448   6.112   0.497   0.886  1.2466  0.5717  0.5955
   70MOL  Cl23122449   6.151   0.643   0.800  0.0476  0.1290  0.0594
   70MOL   C23222450   6.215   0.406   0.926  0.6467  0.0410 -0.2402
   70MOL   C23322451   6.176   0.293   1.000 -0.1435 -0.4058 -0.3965
   70MOL   C23422452   5.962   0.170   1.245 -0.0057 -0.0702 -0.4124
   70MOL   H23522453   6.101   0.090   1.110 -0.6354  1.0646  2.6142
   70MOL   H23622454   5.839   0.342   0.988 -0.1108 -0.3906 -1.3587
   70MOL   H23722455   5.892   0.542   0.890  0.8087  1.2412  1.7761
   70MOL   H23822456   6.320   0.419   0.903  0.8713  0.3620  0.9155
   70MOL   H23922457   6.246   0.217   1.030 -0.1138  0.4530  1.8370
   70MOL   H24022458   5.893   0.253   1.254 -0.2587 -0.3426  0.2265
   70MOL   H24122459   5.908   0.082   1.279  1.8394 -1.1900 -0.3029
   70MOL   C24222460   6.064   0.220   1.349  0.4169  0.2011 -0.2621
   70MOL   C24322461   5.994   0.225   1.485 -0.0990 -0.3975 -0.4766
   70MOL   C24422462   5.976   0.349   1.545 -0.4079 -0.1832  0.4074
   70MOL   C24522463   5.928   0.363   1.680  0.7330 -0.2016  0.4758
   70MOL   C24622464   5.883   0.247   1.746 -0.1477 -0.4392  0.2488
   70MOL  Cl24722465   5.825   0.258   1.905  0.0539  0.3398 -0.2583
   70MOL   C24822466   5.887   0.123   1.685  0.0258  0.3199  0.5554
   70MOL   C24922467   5.954   0.113   1.562  0.1405 -0.0999 -0.1381
   70MOL   C25022468   6.187   0.138   1.360  0.1107  0.9693 -0.2868
   70MOL   H25122469   6.084   0.322   1.317 -1.4359  1.4729  2.4606
   70MOL   H25222470   6.018   0.435   1.495 -0.1363 -0.6315 -0.1425
   70MOL   H25322471   5.919   0.461   1.724  0.2432 -0.1640  0.2901
   70MOL   H25422472   5.833   0.039   1.726 -0.5386  0.0344 -0.7500
   70MOL   H25522473   5.973   0.021   1.508  0.4184 -0.0175 -0.1826
   70MOL   H25622474   6.173   0.031   1.374  1.5378  0.8164  0.1114
   70MOL   H25722475   6.235   0.139   1.262  1.7519 -0.0624  0.4695
   70MOL   C25822476   6.289   0.181   1.466  0.0344 -0.5315 -0.2975
   70MOL   C25922477   6.280   0.111   1.602 -0.2465 -0.0370  0.2663
   70MOL   C26022478   6.266   0.183   1.723  0.1603  0.2817  0.6723
   70MOL   C26122479   6.261   0.112   1.842  0.3480 -0.6722  0.4184
   70MOL   C26222480   6.280   8.417   1.848 -0.2521 -0.3918  0.1351
   70MOL  Cl26322481   6.257   8.327   1.993 -0.2446  0.4568  0.4054
   70MOL   C26422482   6.292   8.340   1.733  0.2961  0.1774  0.7716
   70MOL   C26522483   6.295   8.411   1.607 -0.6599 -0.1163 -0.2666
   70MOL   C26622484   6.430   0.181   1.410  0.0569  0.0859 -0.2241
   70MOL   H26722485   6.259   0.284   1.485 -0.1016 -0.8857  1.4573
   70MOL   H26822486   6.250   0.290   1.729  1.0883  0.3507  2.1064
   70MOL   H26922487   6.238   0.167   1.931  0.5677  1.2346 -0.6829
   70MOL   H27022488   6.307   8.233   1.734  1.3726  0.3293  1.3096
   70MOL   H27122489   6.325   8.349   1.523 -0.0458  0.1031 -0.2117
   70MOL   H27222490   6.497   0.188   1.496 -1.4902  0.4582  0.9753
   70MOL   H27322491   6.461   0.079   1.389 -0.3743 -0.8118  3.2095
   70MOL   C27422492   6.498   0.301   1.331 -0.2427 -0.3184  0.3407
   70MOL   C27522493   6.526   0.412   1.432 -0.3117 -0.2879 -0.2011
   70MOL   C27622494   6.644   0.409   1.507 -0.3144  0.0875  0.0296
   70MOL   C27722495   6.657   0.492   1.622 -0.1817 -0.1407  0.5017
   70MOL   C27822496   6.560   0.589   1.655 -0.6004  0.4985 -0.6866
   70MOL  Cl27922497   6.560   0.688   1.795  0.2503  0.3731  0.0661
   70MOL   C28022498   6.450   0.598   1.567  0.4818 -0.2807  0.0211
   70MOL   C28122499   6.428   0.508   1.460 -0.0757 -0.5535  0.1336
   70MOL   C28222500   6.607   0.262   1.234  0.6799 -0.1021 -0.7188
   70MOL   H28322501   6.432   0.332   1.250 -0.6722  2.7765  1.8050
   70MOL   H28422502   6.731   0.346   1.490 -0.1429 -0.0546  1.3649
   70MOL   H28522503   6.749   0.486   1.679 -0.4197 -1.5475  0.7598
   70MOL   H28622504   6.373   0.670   1.591 -0.1498 -0.7911 -0.4619
   70MOL   H28722505   6.332   0.509   1.409 -0.0398 -0.5968  0.0657
   70MOL   H28822506   6.659   0.186   1.293 -1.8231 -1.1958  0.1311
   70MOL   H28922507   6.557   0.204   1.158 -0.3767 -2.0032  1.3694
   70MOL   C29022508   6.695   0.367   1.162 -0.2331 -0.0041 -0.0943
   70MOL   C29122509   6.819   0.295   1.100  0.0068  0.7916  0.1254
   70MOL   C29222510   6.952   0.331   1.133 -0.1213 -0.5694 -1.0360
   70MOL   C29322511   7.055   0.257   1.086  0.2499 -0.1310  0.4223
   70MOL   C29422512   7.034   0.154   0.998  0.1618  0.3550 -0.2833
   70MOL  Cl29522513   7.171   0.058   0.954 -0.1136 -0.1029  0.4054
   70MOL   C29622514   6.906   0.110   0.969 -0.0803 -0.0860 -0.1690
   70MOL   C29722515   6.796   0.183   1.014 -0.2647  0.8927 -0.3166
   70MOL   C29822516   6.614   0.451   1.063 -0.6847  0.0874  0.6408
   70MOL   H29922517   6.726   0.430   1.245 -1.4989  2.9766 -1.7982
   70MOL   H30022518   6.968   0.407   1.208 -2.5565  0.9875 -2.0531
   70MOL   H30122519   7.156   0.278   1.118  0.2097 -0.5594  0.8309
   70MOL   H30222520   6.889   0.026   0.904 -1.2923 -0.1761  0.2561
   70MOL   H30322521   6.699   0.160   0.973  0.1993 -2.1098  0.1104
   70MOL   H30422522   6.559   0.387   0.994 -0.0158  0.8362 -0.6013
   70MOL   H30522523   6.536   0.509   1.113 -1.8472 -0.6514 -0.2792
   70MOL   C30622524   6.707   0.548   0.978 -0.6361 -0.1404 -0.6626
   70MOL   C30722525   6.616   0.612   0.872  0.7086  0.5037 -0.0540
   70MOL   C30822526   6.570   0.743   0.882  0.1960  0.4381 -0.2464
   70MOL   C30922527   6.495   0.807   0.780  0.4752 -0.8340 -0.5616
   70MOL   C31022528   6.460   0.731   0.669 -0.0338  0.4046 -0.3782
   70MOL  Cl31122529   6.380   0.814   0.547  0.2141 -0.0146 -0.3664
   70MOL   C31222530   6.507   0.598   0.651  0.8383 -0.0149  0.5749
   70MOL   C31322531   6.584   0.538   0.756  0.4212  0.0141  0.4716
   70MOL   C31422532   6.779   0.657   1.061 -0.0355 -0.5416 -0.0704
   70MOL   H31522533   6.785   0.493   0.926  1.6122  0.1184  2.2974
   70MOL   H31622534   6.580   0.796   0.975  0.5090 -1.5094  0.8585
   70MOL   H31722535   6.477   0.913   0.784  3.0622 -0.4592  2.6743
   70MOL   H31822536   6.486   0.563   0.552 -1.8074 -0.4532  1.2551
   70MOL   H31922537   6.606   0.432   0.750 -2.0337 -0.6680  2.3757
   70MOL   H32022538   6.716   0.697   1.140 -0.0930  1.5901 -1.1869
   70MOL   H32122539   6.867   0.610   1.107  0.3281 -0.1687 -0.3828
   70MOL   H32222540   6.836   0.728   1.001 -0.0770 -0.3711  0.0919
   71MOL     C122541   1.093   2.867   1.616 -0.4728  0.0134  0.2686
   71MOL     C222542   1.103   2.798   1.752 -0.0576  0.1851 -0.3511
   71MOL     C322543   1.068   2.661   1.758 -0.7083  0.0189  0.4064
   71MOL     C422544   1.088   2.591   1.878 -0.2205  0.3257  0.0737
   71MOL     C522545   1.106   2.660   1.996 -0.4355  0.4614 -0.4580
   71MOL    Cl622546   1.116   2.578   2.139 -0.3283 -0.0519 -0.3083
   71MOL     C722547   1.130   2.798   1.996  0.1729  0.3034 -0.9133
   71MOL     C822548   1.130   2.867   1.872 -0.5964 -0.1125 -0.7959
   71MOL     C922549   0.984   2.963   1.586 -0.4869  0.0640  0.4976
   71MOL    H1022550   1.095   2.789   1.540  1.5836 -1.9696  2.2630
   71MOL    H1122551   1.048   2.607   1.667  3.1351 -0.2835 -0.3062
   71MOL    H1222552   1.073   2.484   1.881  1.4052  0.0214 -1.6460
   71MOL    H1322553   1.135   2.852   2.090 -3.7102  1.2849 -1.1575
   71MOL    H1422554   1.153   2.972   1.880  2.3591 -0.8707  1.9142
   71MOL    H1522555   0.904   2.911   1.533 -1.2410  1.4535  0.2461
   71MOL    H1622556   0.943   2.992   1.683  0.4738  1.0084  0.6242
   71MOL    H1722557   1.187   2.920   1.597 -2.1827  3.0334 -0.0907
   71MOL    C1822558   1.029   3.090   1.508 -0.0378 -0.0405 -0.1546
   71MOL    C1922559   1.093   3.052   1.375 -0.6606 -1.2226  0.0314
   71MOL    C2022560   1.023   2.973   1.282  0.3627 -0.1203  0.1383
   71MOL    C2122561   1.080   2.946   1.155  0.2357  0.1192  0.0735
   71MOL    C2222562   1.204   2.992   1.117 -0.6230  0.4671 -0.0152
   71MOL   Cl2322563   1.274   2.931   0.973  0.3858  0.3875  0.3080
   71MOL    C2422564   1.274   3.074   1.210  0.1088  0.5275  1.1313
   71MOL    C2522565   1.217   3.107   1.333  0.2727 -0.2397  0.2441
   71MOL    C2622566   0.909   3.186   1.478 -0.3295  0.0735 -0.0082
   71MOL    H2722567   1.109   3.140   1.564 -0.7611 -1.5948  2.3399
   71MOL    H2822568   0.923   2.937   1.300  0.1344 -0.1400 -1.1404
   71MOL    H2922569   1.015   2.884   1.094 -1.0048  0.9356  0.5461
   71MOL    H3022570   1.377   3.102   1.194  0.1160 -1.0879 -2.1963
   71MOL    H3122571   1.269   3.173   1.400  2.1264 -0.3184 -1.0907
   71MOL    H3222572   0.939   3.250   1.395 -1.7540  1.1241  0.2785
   71MOL    H3322573   0.827   3.120   1.446 -1.1376  0.7864  0.5738
   71MOL    C3422574   0.862   3.277   1.599 -0.1406  0.0817  0.5944
   71MOL    C3522575   0.844   3.426   1.564  0.0989  0.5000 -1.1806
   71MOL    C3622576   0.930   3.525   1.611 -0.1480 -0.3897 -0.1921
   71MOL    C3722577   0.935   3.653   1.556 -0.3726 -0.2055 -0.2545
   71MOL    C3822578   0.839   3.690   1.460 -0.3228  0.2024  0.6749
   71MOL   Cl3922579   0.846   3.847   1.377 -0.5276 -0.2542  0.0363
   71MOL    C4022580   0.744   3.589   1.425  0.1712  0.5023 -0.0360
   71MOL    C4122581   0.747   3.463   1.479 -0.1486  0.3736 -0.5708
   71MOL    C4222582   0.732   3.220   1.665  0.1544 -0.0084  0.4935
   71MOL    H4322583   0.941   3.259   1.672  1.1487 -0.6351 -0.9542
   71MOL    H4422584   1.006   3.504   1.685 -1.3626  1.7728  1.7537
   71MOL    H4522585   1.013   3.724   1.578 -0.1972  0.1119 -1.8352
   71MOL    H4622586   0.673   3.604   1.345 -0.6100 -3.8386 -0.2332
   71MOL    H4722587   0.677   3.385   1.455 -1.3451  0.5595  2.0903
   71MOL    H4822588   0.653   3.219   1.590  2.2464 -1.0419 -1.7289
   71MOL    H4922589   0.750   3.117   1.694 -2.0660  0.1995  2.8450
   71MOL    C5022590   0.684   3.295   1.786 -0.2980 -0.3729 -1.0217
   71MOL    C5122591   0.593   3.411   1.756  0.7092  1.1848  0.4518
   71MOL    C5222592   0.468   3.386   1.691  0.3075  0.1881 -0.8310
   71MOL    C5322593   0.378   3.492   1.689 -0.1592 -0.3654 -0.4770
   71MOL    C5422594   0.404   3.619   1.743  1.0980  0.4029  0.1309
   71MOL   Cl5522595   0.299   3.750   1.729 -0.0662  0.1643 -0.0651
   71MOL    C5622596   0.532   3.644   1.794  0.2809  0.0088 -0.2388
   71MOL    C5722597   0.624   3.542   1.800 -0.4935  0.8862  0.3902
   71MOL    C5822598   0.610   3.208   1.889  0.0897 -0.3129  0.1969
   71MOL    H5922599   0.775   3.328   1.836 -0.4432 -1.5962  0.0785
   71MOL    H6022600   0.436   3.291   1.650 -2.7636  0.2815  1.1531
   71MOL    H6122601   0.278   3.479   1.651 -0.2258 -0.3590 -0.3074
   71MOL    H6222602   0.556   3.744   1.826 -1.3567  0.1130  0.7506
   71MOL    H6322603   0.716   3.565   1.851 -0.0403  2.3832 -1.0687
   71MOL    H6422604   0.568   3.277   1.962 -1.5130 -2.0010  0.9077
   71MOL    H6522605   0.526   3.154   1.844 -0.4242 -1.0535  2.0116
   71MOL    C6622606   0.689   3.103   1.962 -0.0900  0.1602  0.6705
   71MOL    C6722607   0.811   3.175   2.021  0.1916  0.0992 -0.1843
   71MOL    C6822608   0.936   3.117   2.010  0.8144 -0.2191 -0.2805
   71MOL    C6922609   1.045   3.179   2.075  0.4477  0.3058 -0.4961
   71MOL    C7022610   1.032   3.300   2.144  0.2043  0.9357  0.8219
   71MOL   Cl7122611   1.167   3.363   2.227  0.2542 -0.0492  0.1152
   71MOL    C7222612   0.906   3.363   2.150 -0.1611  0.3949  0.0636
   71MOL    C7322613   0.796   3.302   2.089  0.1762 -0.0959  0.3121
   71MOL    C7422614   0.623   3.021   2.066  0.0805 -0.2496 -0.1701
   71MOL    H7522615   0.736   3.031   1.895  0.4177 -1.5881  2.8528
   71MOL    H7622616   0.946   3.021   1.961  2.4014  0.4090 -1.2401
   71MOL    H7722617   1.142   3.132   2.072 -0.0871 -0.9488  1.3506
   71MOL    H7822618   0.900   3.462   2.193  2.9766  1.2465 -1.2906
   71MOL    H7922619   0.701   3.353   2.091 -0.0442 -0.5761  2.2329
   71MOL    H8022620   0.701   2.961   2.112  0.3850 -0.0411 -0.4089
   71MOL    H8122621   0.593   3.088   2.146 -0.4517 -2.0662  1.1697
   71MOL    C8222622   0.508   2.926   2.007  0.7533 -0.4581 -0.2971
   71MOL    C8322623   0.550   2.845   1.887  0.5194 -0.3225 -0.7920
   71MOL    C8422624   0.491   2.862   1.755 -0.6496 -0.4839  0.3289
   71MOL    C8522625   0.537   2.785   1.648  0.3448  0.2744 -0.3901
   71MOL    C8622626   0.628   2.681   1.666 -0.5158 -0.8072 -0.1887
   71MOL   Cl8722627   0.681   2.587   1.529  0.2021  0.2378 -0.1188
   71MOL    C8822628   0.691   2.669   1.790 -0.1875 -0.3998 -0.4690
   71MOL    C8922629   0.649   2.745   1.903  0.4113  0.1634  0.2752
   71MOL    C9022630   0.461   2.834   2.116  0.4209  0.2219 -0.6488
   71MOL    H9122631   0.438   3.000   1.967  0.6687 -0.0673  0.5675
   71MOL    H9222632   0.415   2.938   1.738  0.2796  0.5780  0.8498
   71MOL    H9322633   0.499   2.791   1.547 -0.5953 -1.8261 -0.1904
   71MOL    H9422634   0.768   2.594   1.795  1.8741  1.7604  0.4396
   71MOL    H9522635   0.688   2.722   2.001  0.6171  3.1109  0.9129
   71MOL    H9622636   0.400   2.752   2.078 -0.1634  0.8367 -1.0411
   71MOL    H9722637   0.551   2.797   2.166  0.5697 -0.9560 -1.7498
   71MOL    C9822638   0.376   2.906   2.224  0.2693 -0.1160  0.4629
   71MOL    C9922639   0.247   2.955   2.170  0.3835  0.0098 -0.2859
   71MOL   C10022640   0.229   3.095   2.158 -0.6013  0.5651  0.2835
   71MOL   C10122641   0.116   3.152   2.107  0.3408 -0.1584 -0.7569
   71MOL   C10222642   0.009   3.064   2.075 -0.5212  0.1052 -0.1312
   71MOL  Cl10322643   8.297   3.122   2.025  0.1595 -0.3420  0.1547
   71MOL   C10422644   0.020   2.927   2.096  0.0589 -0.7249 -0.0683
   71MOL   C10522645   0.141   2.871   2.136  0.9733  0.2865  0.3341
   71MOL   C10622646   0.350   2.798   2.335 -0.8062 -0.6961 -0.0843
   71MOL   H10722647   0.435   2.987   2.267  0.2464 -0.2212  0.6921
   71MOL   H10822648   0.299   3.171   2.189 -0.6224  0.3802  0.7764
   71MOL   H10922649   0.112   3.259   2.093  0.3409 -0.2165 -1.2397
   71MOL   H11022650   8.389   2.859   2.056  2.0755 -2.2941 -1.2599
   71MOL   H11122651   0.160   2.765   2.144  0.0899  0.0812 -0.2039
   71MOL   H11222652   0.301   2.711   2.292  0.1219 -0.6252 -1.3357
   71MOL   H11322653   0.443   2.761   2.379 -1.5029 -1.5001  0.7235
   71MOL   C11422654   0.271   2.833   2.460 -0.0977 -0.0708 -0.0970
   71MOL   C11522655   0.207   2.714   2.536  0.3332 -0.7366  0.2705
   71MOL   C11622656   0.289   2.601   2.566  0.3221 -0.3514  0.1433
   71MOL   C11722657   0.234   2.491   2.626  0.2738 -0.3232 -0.3478
   71MOL   C11822658   0.097   2.493   2.668 -0.2938 -0.0206 -0.3970
   71MOL  Cl11922659   0.043   2.362   2.763  0.0820 -0.0776 -0.2272
   71MOL   C12022660   0.013   2.605   2.643  0.3318  0.1339  0.4591
   71MOL   C12122661   0.071   2.710   2.572  0.6811  0.2130 -0.3307
   71MOL   C12222662   0.341   2.940   2.554 -0.8188 -0.3878  0.2824
   71MOL   H12322663   0.185   2.888   2.421  1.3250  0.5307 -2.5286
   71MOL   H12422664   0.393   2.601   2.538  0.1524  1.9339 -0.5929
   71MOL   H12522665   0.301   2.409   2.649 -1.8639 -2.2675 -0.9003
   71MOL   H12622666   8.354   2.600   2.679  1.0954 -0.0053  2.7182
   71MOL   H12722667   0.015   2.798   2.544 -1.6031 -1.8069 -2.3580
   71MOL   H12822668   0.391   2.871   2.622 -1.7136  0.2326  1.5739
   71MOL   H12922669   0.416   3.003   2.507  0.8783 -2.2231  0.4347
   71MOL   C13022670   0.227   3.030   2.622 -0.5087  0.7622  0.0556
   71MOL   C13122671   0.266   3.060   2.771  0.0675 -0.1138 -0.2799
   71MOL   C13222672   0.361   3.160   2.800  0.6826  0.3854 -0.3019
   71MOL   C13322673   0.404   3.186   2.936  0.2961 -0.0211 -0.2968
   71MOL   C13422674   0.334   3.122   3.047 -0.2463  0.0644 -0.4124
   71MOL  Cl13522675   0.389   3.140   3.209  0.0680  0.9203  0.0474
   71MOL   C13622676   0.242   3.027   3.014  0.1547  0.0896 -0.2685
   71MOL   C13722677   0.206   2.996   2.882 -0.0704  0.1370  0.2317
   71MOL   C13822678   0.209   3.155   2.536  0.3620 -0.1717  0.0030
   71MOL   H13922679   0.132   2.977   2.616  0.8900 -1.8873  0.1058
   71MOL   H14022680   0.424   3.209   2.727  0.0194  0.7143 -0.6602
   71MOL   H14122681   0.497   3.239   2.948  0.0514  0.8048 -1.8945
   71MOL   H14222682   0.197   2.965   3.090 -2.3016  1.9128 -0.1935
   71MOL   H14322683   0.135   2.917   2.861  0.3534 -0.5354  1.2761
   71MOL   H14422684   0.289   3.227   2.553 -0.4686  0.9849 -0.9612
   71MOL   H14522685   0.232   3.134   2.432  3.2111  0.3252  0.4732
   71MOL   C14622686   0.073   3.221   2.547  0.1354  0.5847  0.0261
   71MOL   C14722687   0.102   3.372   2.526 -0.4061  0.7263  0.2414
   71MOL   C14822688   0.173   3.419   2.412 -0.1038 -0.0945  0.3084
   71MOL   C14922689   0.212   3.553   2.404  0.0591 -0.1036  0.3582
   71MOL   C15022690   0.188   3.641   2.508 -0.1683 -0.4020  0.3089
   71MOL  Cl15122691   0.247   3.799   2.503  0.0494  0.2568  0.1191
   71MOL   C15222692   0.109   3.599   2.614 -0.0524 -0.0187  0.1033
   71MOL   C15322693   0.067   3.464   2.626  0.2560 -0.8260  0.3234
   71MOL   C15422694   8.409   3.148   2.453 -0.2824 -0.4923 -0.4275
   71MOL   H15522695   0.039   3.205   2.649  2.4902  0.2924  0.8013
   71MOL   H15622696   0.204   3.344   2.341  1.7449  2.2354 -1.4060
   71MOL   H15722697   0.273   3.586   2.321 -0.5285 -1.2909 -0.5560
   71MOL   H15822698   0.087   3.659   2.701  2.2858  1.3911 -0.2314
   71MOL   H15922699   0.012   3.431   2.713  0.2416  1.3777  1.1955
   71MOL   H16022700   8.424   3.167   2.347 -0.4543  1.6453 -0.0958
   71MOL   H16122701   8.422   3.041   2.471 -0.4207 -0.2507  1.2642
   71MOL   C16222702   8.265   3.179   2.480 -0.2428  0.4373  0.1517
   71MOL   C16322703   8.231   3.323   2.481  0.0215  0.1710 -0.9357
   71MOL   C16422704   8.179   3.386   2.596  0.8287  0.2165 -0.1409
   71MOL   C16522705   8.151   3.528   2.594  0.2671 -0.4629  0.6885
   71MOL   C16622706   8.207   3.604   2.486 -0.3698  0.5118 -0.2319
   71MOL  Cl16722707   8.178   3.775   2.504  0.0961  0.2400 -0.1092
   71MOL   C16822708   8.261   3.538   2.372  0.9906  0.1775  0.0738
   71MOL   C16922709   8.255   3.395   2.365 -1.2580  0.5568  0.0225
   71MOL   C17022710   8.186   3.091   2.375  0.0699  0.7653  0.3473
   71MOL   H17122711   8.250   3.140   2.580 -1.8008 -1.1347 -0.6536
   71MOL   H17222712   8.150   3.326   2.680  0.0344  1.0553  0.2016
   71MOL   H17322713   8.121   3.568   2.690  2.1337 -1.0074  1.5171
   71MOL   H17422714   8.302   3.590   2.286 -0.2187 -0.8919 -1.1688
   71MOL   H17522715   8.283   3.356   2.269 -1.6907  4.8552 -1.9791
   71MOL   H17622716   8.190   3.139   2.277  1.2880 -1.0327 -0.5228
   71MOL   H17722717   8.242   3.001   2.350 -0.0104  0.7567  0.1989
   71MOL   C17822718   8.038   3.055   2.412  0.1160  0.0331  0.0355
   71MOL   C17922719   7.951   3.180   2.431 -0.0537  0.6483 -0.9233
   71MOL   C18022720   7.948   3.286   2.338  0.6935  0.4037 -0.7028
   71MOL   C18122721   7.868   3.397   2.360  0.0419 -0.6366  0.4306
   71MOL   C18222722   7.785   3.411   2.473 -0.9437 -0.2652 -0.5110
   71MOL  Cl18322723   7.688   3.549   2.484 -0.0162 -0.4178  0.0791
   71MOL   C18422724   7.789   3.308   2.565  0.4966  0.3668 -0.6299
   71MOL   C18522725   7.872   3.198   2.548  0.7378  0.8060  0.4608
   71MOL   C18622726   7.988   2.965   2.291  0.4753 -0.0607 -0.3119
   71MOL   H18722727   8.040   3.007   2.510 -1.8797 -0.5823 -0.1860
   71MOL   H18822728   8.008   3.294   2.249  0.1763  0.1506 -1.0739
   71MOL   H18922729   7.868   3.485   2.297 -0.8004  0.1818  1.5453
   71MOL   H19022730   7.734   3.324   2.656  1.3842  1.0901 -0.2061
   71MOL   H19122731   7.878   3.118   2.621 -2.0947 -0.1400 -0.2802
   71MOL   H19222732   7.896   3.009   2.254  0.5599 -1.0422 -1.7718
   71MOL   H19322733   8.053   2.970   2.203  1.3658 -0.1157  0.3286
   71MOL   C19422734   7.983   2.813   2.327  0.0142  0.4273 -0.3491
   71MOL   C19522735   7.878   2.783   2.437  0.1400  0.1405 -0.1006
   71MOL   C19622736   7.912   2.733   2.567  0.1134  0.0673  0.3200
   71MOL   C19722737   7.810   2.695   2.664 -0.0541 -0.4157  0.1719
   71MOL   C19822738   7.676   2.704   2.621 -0.3714 -0.1625  0.1771
   71MOL  Cl19922739   7.557   2.657   2.733 -0.1468  0.3031  0.1547
   71MOL   C20022740   7.641   2.757   2.492 -0.2437 -0.8961 -0.3084
   71MOL   C20122741   7.743   2.803   2.404  0.5448 -0.1453  0.4844
   71MOL   C20222742   7.958   2.723   2.205  0.5620  0.1047 -0.2571
   71MOL   H20322743   8.078   2.792   2.377 -0.0560  0.2779 -0.2790
   71MOL   H20422744   8.015   2.727   2.597  1.2842  0.0389 -3.4528
   71MOL   H20522745   7.840   2.652   2.758 -1.7800  1.3983  1.5953
   71MOL   H20622746   7.537   2.771   2.464 -0.4265  0.3760  0.9509
   71MOL   H20722747   7.723   2.840   2.305  2.9459  0.8974  0.3473
   71MOL   H20822748   7.908   2.634   2.242 -0.6355  1.4649  1.4710
   71MOL   H20922749   7.887   2.775   2.142 -0.8954  0.5493  1.7101
   71MOL   C21022750   8.085   2.684   2.126 -0.0178 -0.1196  0.5583
   71MOL   C21122751   8.171   2.579   2.199  0.1743  0.3458  0.1820
   71MOL   C21222752   8.305   2.601   2.231  0.6894  0.0658 -0.4927
   71MOL   C21322753   8.388   2.505   2.275  0.0894  0.5080 -0.5239
   71MOL   C21422754   8.340   2.381   2.309  0.3497 -0.6327 -0.2248
   71MOL  Cl21522755   8.438   2.250   2.364 -0.0311 -0.0662  0.1719
   71MOL   C21622756   8.200   2.363   2.290 -0.2591  0.5378 -0.0905
   71MOL   C21722757   8.120   2.454   2.229  0.0773  0.3929  0.4410
   71MOL   C21822758   8.033   2.626   1.990 -0.0658 -0.2928  0.6897
   71MOL   H21922759   8.150   2.767   2.101  0.0749 -0.5375 -0.6280
   71MOL   H22022760   8.338   2.699   2.200 -0.9894  0.5130 -0.9647
   71MOL   H22122761   0.047   2.534   2.296  0.8383 -1.1711 -1.7993
   71MOL   H22222762   8.168   2.261   2.306 -1.8115  0.8947 -0.7605
   71MOL   H22322763   8.016   2.435   2.206  0.5731 -1.7426 -0.1575
   71MOL   H22422764   8.094   2.544   1.952 -1.2265 -0.9504  0.2285
   71MOL   H22522765   7.937   2.580   2.013 -0.0599  0.2700  1.9105
   71MOL   C22622766   8.013   2.737   1.881  0.5532  0.8323  0.1202
   71MOL   C22722767   8.144   2.780   1.831  0.7219 -0.2845 -0.4982
   71MOL   C22822768   8.256   2.696   1.822 -0.6634 -0.8142  0.5734
   71MOL   C22922769   8.382   2.749   1.777  0.4020 -0.1900 -0.3832
   71MOL   C23022770   8.397   2.882   1.735 -0.1930 -0.2704  0.3534
   71MOL  Cl23122771   0.106   2.939   1.696  0.4098 -0.0821 -0.0902
   71MOL   C23222772   8.279   2.966   1.733  0.9001 -0.2535 -0.6041
   71MOL   C23322773   8.155   2.911   1.777 -0.0657 -0.2963  0.0841
   71MOL   C23422774   7.925   2.687   1.766  0.3768  0.9039  0.3848
   71MOL   H23522775   7.966   2.819   1.935 -1.2213 -1.0666  1.5108
   71MOL   H23622776   8.253   2.592   1.849  0.4429 -0.9737  0.0861
   71MOL   H23722777   0.031   2.692   1.770  0.9481  0.5752  0.4327
   71MOL   H23822778   8.298   3.067   1.699 -0.8448 -0.5439 -2.5744
   71MOL   H23922779   8.067   2.973   1.771  0.8990  1.2166  0.9973
   71MOL   H24022780   7.942   2.744   1.674  1.0993 -1.0981 -0.7477
   71MOL   H24122781   7.955   2.586   1.742 -1.5351  0.2564  0.6215
   71MOL   C24222782   7.763   2.678   1.789  1.1409  0.7478  0.0542
   71MOL   C24322783   7.709   2.813   1.822  0.2174 -0.1064  0.3939
   71MOL   C24422784   7.640   2.838   1.939  0.2430 -0.0973  0.5271
   71MOL   C24522785   7.589   2.968   1.966 -0.5439 -0.2529 -1.0332
   71MOL   C24622786   7.614   3.075   1.877  0.8383  0.8515 -0.4138
   71MOL  Cl24722787   7.550   3.229   1.888 -0.2795  0.0006  0.2563
   71MOL   C24822788   7.681   3.043   1.754 -0.5134 -0.0248 -0.4023
   71MOL   C24922789   7.733   2.917   1.728 -0.5664 -0.4790 -0.9576
   71MOL   C25022790   7.708   2.618   1.660  0.4855 -0.1221  0.4069
   71MOL   H25122791   7.746   2.607   1.871 -0.0951  0.3486 -0.5376
   71MOL   H25222792   7.626   2.773   2.023 -0.6581 -0.1740  0.3176
   71MOL   H25322793   7.543   2.996   2.059 -0.4162  1.7282 -1.5597
   71MOL   H25422794   7.690   3.126   1.686 -3.9793  1.9307  1.3895
   71MOL   H25522795   7.790   2.916   1.636  0.5752  0.8709 -0.2738
   71MOL   H25622796   7.712   2.683   1.572  2.4973 -1.2665 -0.3893
   71MOL   H25722797   7.769   2.530   1.639 -1.5515 -0.8362 -3.0029
   71MOL   C25822798   7.561   2.568   1.646  0.0501  0.0610 -0.1930
   71MOL   C25922799   7.509   2.571   1.495  0.2758 -0.6035  0.0633
   71MOL   C26022800   7.589   2.519   1.389 -0.2254 -0.4068 -0.3080
   71MOL   C26122801   7.524   2.515   1.260  0.5371  0.7348  0.0636
   71MOL   C26222802   7.396   2.571   1.227  0.1998  0.2457  0.5706
   71MOL  Cl26322803   7.322   2.572   1.074 -0.1659 -0.2729 -0.0220
   71MOL   C26422804   7.325   2.628   1.328 -0.1431 -0.5451 -0.5662
   71MOL   C26522805   7.380   2.617   1.461  0.1721  0.0571  0.6849
   71MOL   C26622806   7.537   2.425   1.699 -0.1124 -0.1571 -0.5835
   71MOL   H26722807   7.490   2.627   1.705  0.2500 -0.2672  0.3768
   71MOL   H26822808   7.689   2.479   1.398  0.3195  0.7729 -0.9143
   71MOL   H26922809   7.575   2.479   1.172 -1.2215  0.2277 -0.7706
   71MOL   H27022810   7.233   2.680   1.308  0.2475  0.3863  0.0500
   71MOL   H27122811   7.319   2.659   1.540  0.6315  0.3322  0.8922
   71MOL   H27222812   7.432   2.400   1.686 -0.7362  1.3241  1.4075
   71MOL   H27322813   7.586   2.351   1.635  0.3070 -0.0329 -0.4053
   71MOL   C27422814   7.566   2.384   1.852 -0.1007 -0.0818 -0.9473
   71MOL   C27522815   7.499   2.478   1.957 -0.5252 -0.5409 -0.6029
   71MOL   C27622816   7.552   2.484   2.090  0.0545  0.0146  0.5219
   71MOL   C27722817   7.498   2.572   2.182  0.0966  0.5332  0.9589
   71MOL   C27822818   7.394   2.661   2.145 -0.1542 -0.0190 -0.0221
   71MOL  Cl27922819   7.329   2.775   2.257 -0.7065 -0.1209  0.0981
   71MOL   C28022820   7.339   2.652   2.015 -0.1640  0.2388  0.6404
   71MOL   C28122821   7.389   2.559   1.923  0.3377  0.4265 -0.3486
   71MOL   C28222822   7.538   2.234   1.884 -0.3581  0.4046  0.1300
   71MOL   H28322823   7.674   2.394   1.864 -0.3321  1.0288  0.1797
   71MOL   H28422824   7.632   2.417   2.119  1.1499  1.1585  0.1482
   71MOL   H28522825   7.553   2.564   2.275  0.0654  0.3115  0.9588
   71MOL   H28622826   7.262   2.721   1.983 -0.2595 -0.8088 -1.4396
   71MOL   H28722827   7.348   2.547   1.824 -2.0315  0.2031  0.6139
   71MOL   H28822828   7.588   2.164   1.816  0.0523  0.2375  0.5984
   71MOL   H28922829   7.578   2.206   1.981  0.6761 -0.5907 -0.5661
   71MOL   C29022830   7.388   2.193   1.880 -0.2885 -0.1395 -0.4183
   71MOL   C29122831   7.330   2.190   1.736  0.3952 -1.1232 -0.0814
   71MOL   C29222832   7.208   2.253   1.715  0.2116 -0.5684  0.0547
   71MOL   C29322833   7.147   2.260   1.589 -0.7453  0.8774  0.3598
   71MOL   C29422834   7.214   2.197   1.476  0.0991 -0.3415  0.2854
   71MOL  Cl29522835   7.144   2.199   1.324  0.0195  0.2596 -0.0664
   71MOL   C29622836   7.332   2.120   1.499 -0.0818  0.0494  0.0361
   71MOL   C29722837   7.388   2.116   1.630 -0.5873 -0.4614 -0.3256
   71MOL   C29822838   7.360   2.059   1.961 -0.0705  0.5589  0.4242
   71MOL   H29922839   7.325   2.262   1.937 -1.1581  1.3850 -3.1433
   71MOL   H30022840   7.154   2.297   1.798  0.0269  0.6966 -0.7209
   71MOL   H30122841   7.061   2.324   1.577 -1.4788 -0.1812 -0.1598
   71MOL   H30222842   7.381   2.081   1.411 -0.8488  0.7054 -0.6907
   71MOL   H30322843   7.465   2.045   1.655 -2.3058 -1.8862  1.0160
   71MOL   H30422844   7.274   2.004   1.923 -0.3102  0.6863  0.7738
   71MOL   H30522845   7.452   2.002   1.952 -0.4675 -0.2203  1.2241
   71MOL   C30622846   7.330   2.069   2.113 -0.1328 -0.0884  0.2175
   71MOL   C30722847   7.227   2.166   2.159  0.1557 -0.4565  0.1138
   71MOL   C30822848   7.269   2.297   2.206 -0.1079  0.2820 -0.2930
   71MOL   C30922849   7.168   2.381   2.262  0.0151  0.8347 -0.0604
   71MOL   C31022850   7.038   2.340   2.277 -0.1844 -0.7013 -0.5139
   71MOL  Cl31122851   6.917   2.432   2.354 -0.4715 -0.0562 -0.2458
   71MOL   C31222852   7.006   2.213   2.227  0.7739  0.0231  0.0205
   71MOL   C31322853   7.097   2.123   2.169  0.3395 -0.5671 -0.9584
   71MOL   C31422854   7.304   1.915   2.160  0.8639 -0.6503  0.1424
   71MOL   H31522855   7.423   2.094   2.165  0.0777  0.5650 -0.4501
   71MOL   H31622856   7.372   2.328   2.193  0.2502 -0.8556 -0.2342
   71MOL   H31722857   7.213   2.473   2.297  0.2650  1.0548 -0.9603
   71MOL   H31822858   6.904   2.180   2.221  0.5359  0.8583 -0.5249
   71MOL   H31922859   7.066   2.025   2.135 -1.3410 -0.7565  0.9782
   71MOL   H32022860   7.222   1.863   2.112  1.6096 -1.4132 -0.3332
   71MOL   H32122861   7.400   1.864   2.146  2.4671  1.7885  1.8657
   71MOL   H32222862   7.291   1.912   2.269 -0.1454 -1.8213  0.0013
   72MOL     C122863   7.580   0.245   0.633  0.5662 -0.1577 -0.4919
   72MOL     C222864   7.493   0.293   0.516 -1.0353  0.7523 -0.5553
   72MOL     C322865   7.371   0.231   0.495 -0.3163  0.1183 -0.2058
   72MOL     C422866   7.296   0.272   0.381 -0.8402 -0.5012  0.0139
   72MOL     C522867   7.339   0.374   0.294 -0.8367 -0.2014 -0.4145
   72MOL    Cl622868   7.251   0.415   0.147 -0.0668 -0.2548 -0.0782
   72MOL     C722869   7.466   0.434   0.320  0.3567 -0.1825  0.0001
   72MOL     C822870   7.545   0.393   0.431  0.2633 -0.0186 -0.3718
   72MOL     C922871   7.528   0.293   0.776  0.3468 -0.9924  0.2865
   72MOL    H1022872   7.678   0.291   0.623  0.3946  0.0486 -1.2307
   72MOL    H1122873   7.318   0.159   0.556 -1.3859 -0.1954 -1.4683
   72MOL    H1222874   7.196   0.232   0.366 -0.5508 -1.6321  1.0906
   72MOL    H1322875   7.506   0.509   0.254 -0.6160 -0.8735 -1.4037
   72MOL    H1422876   7.647   0.417   0.455  0.4344  0.2370 -1.3422
   72MOL    H1522877   7.552   0.399   0.787  0.5451 -0.7650 -2.1073
   72MOL    H1622878   7.419   0.284   0.780  0.0201  1.1224 -2.6013
   72MOL    H1722879   7.606   0.141   0.613 -0.9845 -0.6143 -0.2566
   72MOL    C1822880   7.587   0.230   0.901  0.4170  0.5112 -0.6064
   72MOL    C1922881   7.736   0.254   0.904  0.3750  0.3519  0.6064
   72MOL    C2022882   7.787   0.379   0.938 -0.0112 -0.0100 -0.1360
   72MOL    C2122883   7.924   0.408   0.942 -0.6455 -0.3657  0.1565
   72MOL    C2222884   8.021   0.308   0.912  0.9295  0.2730 -0.0407
   72MOL   Cl2322885   8.192   0.331   0.938 -0.1414 -0.6283 -0.5099
   72MOL    C2422886   7.975   0.180   0.877 -0.1936 -0.2163  0.5248
   72MOL    C2522887   7.835   0.152   0.871  0.4985 -0.7467 -0.1919
   72MOL    C2622888   7.513   0.239   1.037  0.6880 -0.3568  0.2786
   72MOL    H2722889   7.583   0.125   0.874  3.4547 -0.1230  1.1686
   72MOL    H2822890   7.720   0.458   0.967  1.6255  2.1868 -2.1350
   72MOL    H2922891   7.942   0.508   0.980 -4.2874  0.8809 -1.2287
   72MOL    H3022892   8.050   0.104   0.859 -0.0264 -0.1900  1.0968
   72MOL    H3122893   7.800   0.059   0.829 -0.0032 -0.5754 -0.1543
   72MOL    H3222894   7.513   0.342   1.072  1.6601 -0.7322  1.4175
   72MOL    H3322895   7.408   0.218   1.017  0.9852 -0.9014 -0.7375
   72MOL    C3422896   7.558   0.146   1.155 -0.2445 -0.0746  0.5796
   72MOL    C3522897   7.566   0.221   1.289  0.3566 -0.2607 -0.2711
   72MOL    C3622898   7.453   0.238   1.374 -0.1796 -0.1496  0.1608
   72MOL    C3722899   7.468   0.313   1.492  0.0201 -0.0469  0.4308
   72MOL    C3822900   7.591   0.364   1.533 -0.0927  0.2686 -0.1039
   72MOL   Cl3922901   7.606   0.450   1.685  0.3112  0.0615  0.0111
   72MOL    C4022902   7.701   0.346   1.450  0.2431  0.0095  0.0162
   72MOL    C4122903   7.686   0.274   1.331 -0.0018 -0.5745  0.4488
   72MOL    C4222904   7.472   0.024   1.161  0.0097 -0.2214 -0.1114
   72MOL    H4322905   7.665   0.132   1.136  0.2894  4.0353  0.1550
   72MOL    H4422906   7.357   0.193   1.356  0.4544 -0.6403 -2.1662
   72MOL    H4522907   7.383   0.327   1.557 -0.2350 -1.7331  0.4802
   72MOL    H4622908   7.799   0.382   1.477  0.3953  0.0258 -0.5534
   72MOL    H4722909   7.772   0.241   1.275 -0.1518  0.4336 -0.3699
   72MOL    H4822910   7.370   0.061   1.168 -0.8403 -1.9578 -2.4529
   72MOL    H4922911   7.462   8.419   1.063 -0.5747 -0.6795  0.1724
   72MOL    C5022912   7.509   8.351   1.261  0.0508  0.1253  0.3350
   72MOL    C5122913   7.391   8.261   1.284 -0.1945 -0.3592 -0.3122
   72MOL    C5222914   7.349   8.173   1.181 -0.5710 -0.1722 -0.1946
   72MOL    C5322915   7.240   8.091   1.198  0.6016 -0.1273 -0.0881
   72MOL    C5422916   7.161   8.104   1.321 -0.4752  0.5636 -0.2318
   72MOL   Cl5522917   7.015   8.007   1.332 -0.2085 -0.0758  0.3297
   72MOL    C5622918   7.201   8.184   1.429  0.6440  0.3789  0.0768
   72MOL    C5722919   7.318   8.265   1.410  0.6681  0.5708 -0.1181
   72MOL    C5822920   7.638   8.280   1.201 -0.0594  0.4834  0.2429
   72MOL    H5922921   7.537   8.406   1.351  2.1436 -0.1435 -0.1177
   72MOL    H6022922   7.396   8.180   1.084  1.9908  0.8854  1.0697
   72MOL    H6122923   7.211   8.021   1.121  0.7325 -0.3006  0.0203
   72MOL    H6222924   7.136   8.183   1.515  0.2447  0.4603 -0.2286
   72MOL    H6322925   7.344   8.339   1.484 -1.6185  1.1943  0.1096
   72MOL    H6422926   7.609   8.203   1.130 -1.2952  0.3643  0.8710
   72MOL    H6522927   7.697   8.356   1.149 -2.0545  2.4610  0.8150
   72MOL    C6622928   7.740   8.226   1.303  0.0079 -0.0134 -0.0131
   72MOL    C6722929   7.672   8.134   1.410  1.0484 -0.5785  0.1244
   72MOL    C6822930   7.584   8.028   1.373  0.5162  0.1240  0.4734
   72MOL    C6922931   7.513   7.962   1.471 -0.4364  0.3124 -0.3878
   72MOL    C7022932   7.534   7.989   1.615 -0.7604  0.0582 -0.2076
   72MOL   Cl7122933   7.444   7.899   1.736 -0.0088 -0.2938  0.1015
   72MOL    C7222934   7.623   8.092   1.649  0.3693 -0.2021 -0.8108
   72MOL    C7322935   7.692   8.165   1.546  0.0546  0.4811 -0.2562
   72MOL    C7422936   7.856   8.141   1.233  0.2115 -0.3817 -0.0710
   72MOL    H7522937   7.784   8.309   1.359  1.4216 -1.3307  0.8781
   72MOL    H7622938   7.569   7.998   1.270 -0.1081 -2.2157  1.2141
   72MOL    H7722939   7.436   7.891   1.445 -2.6323  2.3078  0.4940
   72MOL    H7822940   7.634   8.124   1.751  2.7808  1.2934 -1.5130
   72MOL    H7922941   7.756   8.241   1.589 -1.2541  0.8976  0.9808
   72MOL    H8022942   7.907   8.086   1.312  0.3784  4.3292  3.3161
   72MOL    H8122943   7.807   8.063   1.175 -1.8706  0.7609  0.0944
   72MOL    C8222944   7.973   8.212   1.159  0.9029  0.3137 -0.6154
   72MOL    C8322945   8.044   8.324   1.245  0.0561 -0.3747 -0.5190
   72MOL    C8422946   8.061   0.005   1.180  0.8738  0.0443 -1.0115
   72MOL    C8522947   8.123   0.114   1.245 -0.6800  0.3368  0.2111
   72MOL    C8622948   8.168   0.095   1.378 -0.0679  0.1112  0.1116
   72MOL   Cl8722949   8.234   0.231   1.456  0.2080  0.4282  0.0529
   72MOL    C8822950   8.151   8.419   1.449 -0.5412  0.1306  0.4554
   72MOL    C8922951   8.090   8.312   1.380  0.0545 -0.6247 -0.2704
   72MOL    C9022952   8.072   8.108   1.112  0.5511 -0.0896 -0.0031
   72MOL    H9122953   7.930   8.268   1.077  0.2575 -0.3134 -0.7074
   72MOL    H9222954   8.038   0.010   1.074 -2.2991  0.0552 -0.3593
   72MOL    H9322955   8.144   0.206   1.193 -1.3140 -0.2324 -1.0824
   72MOL    H9422956   8.206   8.398   1.539  0.8254 -2.0031 -0.8328
   72MOL    H9522957   8.069   8.218   1.430  1.0043 -1.2165 -0.9709
   72MOL    H9622958   8.158   8.150   1.061  2.7940 -0.5126  3.3310
   72MOL    H9722959   8.112   8.059   1.201 -1.3912 -0.5532  0.6549
   72MOL    C9822960   8.007   8.004   1.013 -0.0040 -0.2418  0.5624
   72MOL    C9922961   7.923   8.075   0.907  0.0857 -0.3514 -0.2165
   72MOL   C10022962   7.979   8.167   0.822  0.4043  0.3843  1.3129
   72MOL   C10122963   7.895   8.239   0.730 -0.0971  0.1764 -0.1528
   72MOL   C10222964   7.758   8.205   0.717  0.0742 -0.1907 -0.0924
   72MOL  Cl10322965   7.638   8.306   0.637 -0.3494 -0.4251  0.2838
   72MOL   C10422966   7.707   8.100   0.793 -0.2547  0.7633  0.1690
   72MOL   C10522967   7.791   8.037   0.888 -0.4759 -0.1034 -1.0077
   72MOL   C10622968   8.109   7.904   0.956  0.0081 -0.3557 -0.1617
   72MOL   H10722969   7.933   7.953   1.076  0.1464 -1.1547  0.0042
   72MOL   H10822970   8.084   8.189   0.830  1.0606 -2.6149  1.5988
   72MOL   H10922971   7.927   8.326   0.676 -0.2599 -1.2183 -2.5523
   72MOL   H11022972   7.600   8.085   0.798 -0.1496 -0.6227 -1.2897
   72MOL   H11122973   7.744   7.968   0.956  0.3451  1.8962  1.6663
   72MOL   H11222974   8.193   7.948   0.901 -0.7015  0.6917 -0.4127
   72MOL   H11322975   8.153   7.848   1.039 -1.9094 -1.1866  0.3254
   72MOL   C11422976   8.040   7.799   0.866  0.0319  0.4214 -0.1004
   72MOL   C11522977   8.124   7.702   0.787  0.1194 -0.6483 -0.0789
   72MOL   C11622978   8.071   7.635   0.673 -0.2668 -0.4663 -0.6493
   72MOL   C11722979   8.150   7.530   0.611  0.2294 -0.1387 -0.8902
   72MOL   C11822980   8.278   7.504   0.652 -1.0278 -0.3638 -0.2022
   72MOL  Cl11922981   8.367   7.390   0.562 -0.0313 -0.0803  0.0173
   72MOL   C12022982   8.331   7.579   0.758  0.5542 -0.5246 -0.1392
   72MOL   C12122983   8.256   7.674   0.830 -0.0086 -0.5147  0.6821
   72MOL   C12222984   7.940   7.709   0.949 -0.1027  0.0378 -0.4067
   72MOL   H12322985   7.980   7.857   0.796 -0.1962 -1.2386 -1.3230
   72MOL   H12422986   7.974   7.661   0.635 -0.1894  0.4970 -0.1858
   72MOL   H12522987   8.104   7.480   0.527  1.1523 -0.0311 -1.4774
   72MOL   H12622988   8.433   7.552   0.777  1.1462 -0.0800 -2.5175
   72MOL   H12722989   8.307   7.715   0.915  0.0569  1.1676 -0.1530
   72MOL   H12822990   7.851   7.764   0.978 -1.3222 -1.7352 -0.6781
   72MOL   H12922991   7.896   7.641   0.876  1.8054 -0.2946 -1.2870
   72MOL   C13022992   7.997   7.626   1.070  0.0889  0.0642 -0.1634
   72MOL   C13122993   7.987   7.702   1.199  0.6129 -0.7141 -0.2930
   72MOL   C13222994   7.860   7.729   1.254  0.4518  0.6632  0.6632
   72MOL   C13322995   7.852   7.803   1.369 -0.2256  0.3090 -0.8073
   72MOL   C13422996   7.968   7.843   1.435  0.2362 -0.7839 -0.5167
   72MOL  Cl13522997   7.949   7.919   1.586  0.1860  0.2724 -0.2332
   72MOL   C13622998   8.099   7.811   1.385  0.3588  0.8593 -0.1501
   72MOL   C13722999   8.111   7.734   1.265  0.0550  0.1034 -0.7481
   72MOL   C13823000   7.923   7.492   1.078 -0.0629  0.5787 -0.0283
   72MOL   H13923001   8.101   7.595   1.057 -0.3993 -0.8169 -2.1365
   72MOL   H14023002   7.770   7.706   1.199  0.4298 -0.8299  1.3108
   72MOL   H14123003   7.754   7.824   1.408 -0.9046 -1.1251 -1.6902
   72MOL   H14223004   8.189   7.846   1.432  0.2875  2.8331 -1.3912
   72MOL   H14323005   8.213   7.719   1.231  0.7876  1.5206  0.7314
   72MOL   H14423006   7.895   7.460   1.178 -0.0050  2.0561  0.4738
   72MOL   H14523007   7.823   7.518   1.044  0.1682  2.3950  0.6314
   72MOL   C14623008   7.984   7.374   0.996  0.0947 -0.7419  0.7271
   72MOL   C14723009   8.104   7.317   1.070  0.2467  0.2835 -0.1481
   72MOL   C14823010   8.220   7.288   0.992 -0.1089  0.6628  0.6242
   72MOL   C14923011   8.335   7.234   1.052  0.1767  0.0833  0.0764
   72MOL   C15023012   8.346   7.209   1.188 -0.7509  0.8949  0.2611
   72MOL  Cl15123013   0.049   7.133   1.262  0.0295  0.2263 -0.1776
   72MOL   C15223014   8.230   7.238   1.268  1.0619  0.0206  0.5585
   72MOL   C15323015   8.112   7.295   1.211 -0.5470 -0.8649 -0.6058
   72MOL   C15423016   7.881   7.256   0.971  0.2478  0.5910  0.9541
   72MOL   H15523017   8.032   7.408   0.905 -0.3330  1.0499  1.1409
   72MOL   H15623018   8.213   7.306   0.886 -1.9044 -0.8069  0.4661
   72MOL   H15723019   8.419   7.220   0.985 -0.2331  1.7221 -0.8035
   72MOL   H15823020   8.224   7.211   1.372 -0.4089 -1.0336  0.2149
   72MOL   H15923021   8.023   7.311   1.270  0.5361 -0.4693  0.9643
   72MOL   H16023022   7.931   7.161   0.950 -2.7972 -0.9044  0.2301
   72MOL   H16123023   7.835   7.225   1.065 -1.6487  3.1972  0.9198
   72MOL   C16223024   7.777   7.281   0.859  0.1484 -0.8785  0.3900
   72MOL   C16323025   7.830   7.272   0.718 -0.9712  0.8641  0.1206
   72MOL   C16423026   7.903   7.160   0.670  0.0318  0.5367 -0.5151
   72MOL   C16523027   7.944   7.156   0.541 -0.3400  0.2710 -0.0585
   72MOL   C16623028   7.922   7.259   0.448  1.3396  0.2310  0.8678
   72MOL  Cl16723029   7.983   7.252   0.284  0.1582 -0.7436 -0.2335
   72MOL   C16823030   7.843   7.365   0.498  0.0770 -0.3150 -0.5098
   72MOL   C16923031   7.801   7.376   0.631  0.2130  0.1568  0.8927
   72MOL   C17023032   7.655   7.198   0.877 -0.6945  0.6052 -0.2063
   72MOL   H17123033   7.753   7.387   0.869 -0.0591 -0.9202  0.3527
   72MOL   H17223034   7.916   7.077   0.739 -0.0576  2.5420  2.0050
   72MOL   H17323035   8.000   7.073   0.501 -1.6504 -0.9163  0.5415
   72MOL   H17423036   7.844   7.453   0.436  1.9420 -0.0866 -0.1680
   72MOL   H17523037   7.745   7.462   0.664 -2.2379  0.0183 -2.5426
   72MOL   H17623038   7.606   7.206   0.780 -0.5992  0.1745 -0.2902
   72MOL   H17723039   7.697   7.098   0.888  2.8036  1.7969 -1.9034
   72MOL   C17823040   7.560   7.240   0.993  0.5992 -0.2795 -0.9686
   72MOL   C17923041   7.537   7.388   0.999  0.1139  0.3840  0.1236
   72MOL   C18023042   7.555   7.460   1.121 -0.5138  0.5809  0.4948
   72MOL   C18123043   7.531   7.598   1.129 -0.3668 -0.2917 -0.1581
   72MOL   C18223044   7.504   7.667   1.007 -1.2260 -0.1719  0.6325
   72MOL  Cl18323045   7.499   7.835   1.009 -0.3592 -0.3156  0.1234
   72MOL   C18423046   7.479   7.603   0.885  0.0553  0.4376 -0.3336
   72MOL   C18523047   7.495   7.462   0.882 -0.3000  0.2543  0.3311
   72MOL   C18623048   7.423   7.169   0.981  0.2499 -0.0256  0.4809
   72MOL   H18723049   7.606   7.190   1.078  0.4778  0.7951 -0.2671
   72MOL   H18823050   7.565   7.403   1.212 -0.1277 -0.0448  0.0625
   72MOL   H18923051   7.557   7.646   1.222  0.3911  0.8249 -0.9392
   72MOL   H19023052   7.450   7.655   0.795 -1.2125  0.5508  0.1239
   72MOL   H19123053   7.478   7.414   0.787 -1.1556  0.6287  0.2914
   72MOL   H19223054   7.373   7.213   0.895  3.2644  0.1973 -1.1872
   72MOL   H19323055   7.440   7.064   0.959  1.9972  0.2794  0.2983
   72MOL   C19423056   7.330   7.195   1.103 -0.4357 -0.4471 -0.2473
   72MOL   C19523057   7.189   7.171   1.051 -0.0321  0.0649  0.1938
   72MOL   C19623058   7.158   7.045   1.003 -0.0269  0.5105  0.0081
   72MOL   C19723059   7.035   7.026   0.930 -0.2083 -0.2713  0.2036
   72MOL   C19823060   6.939   7.129   0.920  0.0167 -0.1995 -0.3868
   72MOL  Cl19923061   6.793   7.098   0.842 -0.0695 -0.0576 -0.9844
   72MOL   C20023062   6.968   7.252   0.979 -0.2555 -0.3307  0.0441
   72MOL   C20123063   7.095   7.279   1.037 -0.1549 -0.1825  0.0461
   72MOL   C20223064   7.371   7.110   1.235 -0.3103 -0.2354 -0.4087
   72MOL   H20323065   7.338   7.301   1.128  2.6439 -0.1666 -2.0402
   72MOL   H20423066   7.228   6.962   1.004  1.5073  1.7913  0.7515
   72MOL   H20523067   7.020   6.933   0.878  2.5167  0.8259 -2.7507
   72MOL   H20623068   6.889   7.326   0.977 -2.3292 -2.5104 -1.9186
   72MOL   H20723069   7.105   7.381   1.072 -2.1398 -0.1556  0.6099
   72MOL   H20823070   7.411   7.016   1.195 -0.5360 -1.1341  1.4449
   72MOL   H20923071   7.442   7.155   1.304  0.9101 -0.5509 -1.4290
   72MOL   C21023072   7.260   7.057   1.327 -0.9951 -0.1192  0.2059
   72MOL   C21123073   7.317   6.953   1.431  0.3410  0.6259 -0.0489
   72MOL   C21223074   7.394   6.996   1.543  0.3867  0.1794  0.1003
   72MOL   C21323075   7.439   6.909   1.641 -0.8202 -0.4041  0.0051
   72MOL   C21423076   7.409   6.773   1.630 -1.0301 -0.4295 -0.2823
   72MOL  Cl21523077   7.457   6.672   1.762 -0.0185  0.2855 -0.0261
   72MOL   C21623078   7.330   6.733   1.521  0.3984 -0.4327  0.0173
   72MOL   C21723079   7.287   6.819   1.424 -0.0697  0.0591  0.3250
   72MOL   C21823080   7.165   7.151   1.397 -0.2739  0.7023  0.7447
   72MOL   H21923081   7.209   6.996   1.252 -1.2646  1.5063 -0.9576
   72MOL   H22023082   7.408   7.101   1.564  1.7957 -0.2390  1.3395
   72MOL   H22123083   7.478   6.944   1.735 -1.9806  0.2331  0.2545
   72MOL   H22223084   7.296   6.631   1.522 -2.2965  0.4156  1.3378
   72MOL   H22323085   7.232   6.773   1.343  1.8002 -2.2360  0.3108
   72MOL   H22423086   7.220   7.182   1.485  0.4472 -0.3185  0.6623
   72MOL   H22523087   7.131   7.236   1.337 -2.9964  0.3990  1.7515
   72MOL   C22623088   7.034   7.091   1.458  0.8317  0.5897  0.3991
   72MOL   C22723089   6.994   7.171   1.579  0.0205 -0.1929  0.4181
   72MOL   C22823090   6.996   7.316   1.572 -0.0544  0.5407  0.5881
   72MOL   C22923091   6.958   7.389   1.686 -0.0432 -0.3178  0.3596
   72MOL   C23023092   6.921   7.327   1.809 -0.5048  0.0495  0.0775
   72MOL  Cl23123093   6.868   7.420   1.945  0.2736  0.1021 -0.3134
   72MOL   C23223094   6.926   7.187   1.817 -0.1194  0.2286  0.5045
   72MOL   C23323095   6.955   7.110   1.703 -0.2996  0.2756  0.1461
   72MOL   C23423096   6.918   7.088   1.348 -0.6467  0.2409 -0.5173
   72MOL   H23523097   7.048   6.989   1.495  0.9339  0.8633  1.1278
   72MOL   H23623098   7.026   7.365   1.480  0.2125 -0.5856  0.0606
   72MOL   H23723099   6.950   7.497   1.682  0.7233 -0.2789 -0.0866
   72MOL   H23823100   6.906   7.134   1.909  1.3145 -0.0971  0.6379
   72MOL   H23923101   6.953   7.003   1.716  0.3404  0.3631  1.0438
   72MOL   H24023102   6.899   7.194   1.327 -0.1522  0.5063  0.3192
   72MOL   H24123103   6.960   7.071   1.250  3.4664  0.2498  1.1640
   72MOL   C24223104   6.796   7.001   1.378  0.7158 -0.7314 -0.5879
   72MOL   C24323105   6.665   7.052   1.315 -0.6554  0.1778 -0.2974
   72MOL   C24423106   6.637   7.036   1.182 -0.2538  0.3796  0.3381
   72MOL   C24523107   6.513   7.081   1.127  0.2804 -0.0087 -0.2610
   72MOL   C24623108   6.420   7.142   1.214 -0.0052 -0.1862  0.2007
   72MOL  Cl24723109   6.268   7.198   1.150  0.1900 -0.2458  0.1262
   72MOL   C24823110   6.445   7.150   1.349  0.1891 -0.3316  0.2475
   72MOL   C24923111   6.570   7.112   1.399 -0.4271  0.4604  0.4075
   72MOL   C25023112   6.819   6.858   1.332 -0.6203  0.4843  0.2298
   72MOL   H25123113   6.796   6.996   1.487 -1.1824  0.0548 -0.5416
   72MOL   H25223114   6.710   6.993   1.115  0.9028  1.5430  0.8289
   72MOL   H25323115   6.494   7.073   1.021 -1.5961  1.1396 -0.0465
   72MOL   H25423116   6.364   7.185   1.413  0.0092 -1.0487  0.4159
   72MOL   H25523117   6.590   7.130   1.504  0.2392 -1.8376  0.7026
   72MOL   H25623118   6.832   6.859   1.224  2.6805  1.3227  0.5839
   72MOL   H25723119   6.911   6.818   1.374 -0.7120 -0.9765 -0.9189
   72MOL   C25823120   6.713   6.753   1.370  0.3845  0.1559  0.2572
   72MOL   C25923121   6.716   6.630   1.280  0.5952  0.1683 -0.0669
   72MOL   C26023122   6.588   6.572   1.247 -0.0319 -0.0409  0.1072
   72MOL   C26123123   6.591   6.458   1.165 -0.8036  0.1407 -0.9936
   72MOL   C26223124   6.706   6.406   1.104 -0.0638  0.0232 -0.4252
   72MOL  Cl26323125   6.693   6.261   1.019 -0.0398 -0.0213 -0.6155
   72MOL   C26423126   6.831   6.463   1.141  0.5344 -0.4743 -0.1248
   72MOL   C26523127   6.833   6.574   1.231  0.1298 -0.5142 -0.8291
   72MOL   C26623128   6.724   6.714   1.517 -0.1380  0.3828  0.2072
   72MOL   H26723129   6.613   6.793   1.355 -1.0803 -3.6568 -0.6679
   72MOL   H26823130   6.495   6.601   1.294  0.9092  2.0077  0.7256
   72MOL   H26923131   6.495   6.417   1.139  0.3026 -1.1708 -3.1592
   72MOL   H27023132   6.926   6.418   1.116  0.1659 -1.3298  0.0189
   72MOL   H27123133   6.925   6.617   1.268 -0.4357  0.3034 -0.3620
   72MOL   H27223134   6.706   6.607   1.518  1.4395  0.0726 -1.6970
   72MOL   H27323135   6.827   6.721   1.554  0.0438  0.5515 -0.3246
   72MOL   C27423136   6.625   6.771   1.621 -0.4556  0.5259 -0.3236
   72MOL   C27523137   6.484   6.738   1.602  0.6394  0.4392 -1.0032
   72MOL   C27623138   6.444   6.607   1.576 -0.7274  0.0533 -0.4549
   72MOL   C27723139   6.312   6.567   1.556  0.9465  0.1190  0.8514
   72MOL   C27823140   6.209   6.662   1.579 -1.3272 -0.2277 -0.1318
   72MOL  Cl27923141   6.048   6.604   1.574  0.1036  0.2009 -0.3226
   72MOL   C28023142   6.247   6.794   1.608 -0.0028 -0.7594  0.1705
   72MOL   C28123143   6.385   6.835   1.615  0.8884  0.4485  0.8652
   72MOL   C28223144   6.657   6.763   1.774 -0.1686  0.4696 -0.0474
   72MOL   H28323145   6.637   6.877   1.596  0.7147  0.3980 -0.3320
   72MOL   H28423146   6.520   6.530   1.575 -0.8270 -0.0435 -0.6135
   72MOL   H28523147   6.278   6.468   1.529  0.8872 -0.3067  2.3981
   72MOL   H28623148   6.166   6.859   1.637 -0.9384 -1.7817 -0.1273
   72MOL   H28723149   6.411   6.937   1.638 -0.5365  0.5593  2.0754
   72MOL   H28823150   6.734   6.835   1.802 -0.8501  0.4147  2.1088
   72MOL   H28923151   6.569   6.798   1.828 -1.0186  0.1996 -1.2329
   72MOL   C29023152   6.687   6.621   1.828 -0.2791 -0.5982  0.1907
   72MOL   C29123153   6.822   6.565   1.780  0.1112  0.9724 -0.4176
   72MOL   C29223154   6.829   6.428   1.735  0.7739  0.1096  0.4166
   72MOL   C29323155   6.956   6.377   1.697 -0.0783  0.3277 -0.0637
   72MOL   C29423156   7.073   6.456   1.705 -0.2382 -0.2297 -0.1291
   72MOL  Cl29523157   7.228   6.391   1.656 -0.0148 -0.1133 -0.0268
   72MOL   C29623158   7.065   6.591   1.748  0.1570 -0.1658  0.2549
   72MOL   C29723159   6.939   6.642   1.778  0.1589 -0.0205  0.3369
   72MOL   C29823160   6.683   6.620   1.991  0.4047  0.7802  0.2478
   72MOL   H29923161   6.604   6.565   1.784 -0.6238 -0.5657  0.8073
   72MOL   H30023162   6.741   6.365   1.739  0.5128  0.5410  1.5525
   72MOL   H30123163   6.959   6.279   1.652 -1.5627  0.7282 -1.0828
   72MOL   H30223164   7.153   6.654   1.750  0.3806 -0.4938  1.0890
   72MOL   H30323165   6.933   6.745   1.809 -0.2773  1.1163 -3.2422
   72MOL   H30423166   6.785   6.617   2.028 -0.1621 -1.8123  1.7714
   72MOL   H30523167   6.636   6.717   2.010 -2.2924 -0.0492 -1.9526
   72MOL   C30623168   6.604   6.510   2.070 -0.2478  1.3211  0.2334
   72MOL   C30723169   6.658   6.374   2.054 -0.6259  0.0443  0.1167
   72MOL   C30823170   6.584   6.279   1.989 -0.0109  0.1916  0.7983
   72MOL   C30923171   6.639   6.151   1.954  0.5143  0.1928 -0.2778
   72MOL   C31023172   6.769   6.126   1.998  0.7130 -0.1133  0.2487
   72MOL  Cl31123173   6.834   5.973   1.960 -0.4119  0.3132 -0.2548
   72MOL   C31223174   6.847   6.221   2.062  0.8628 -0.3112  0.2833
   72MOL   C31323175   6.788   6.346   2.090  0.0335 -0.2068 -0.1377
   72MOL   C31423176   6.597   6.549   2.222 -0.2755  0.0772 -0.1232
   72MOL   H31523177   6.508   6.506   2.019 -0.5913  0.8160  0.9124
   72MOL   H31623178   6.485   6.296   1.949  0.9949  1.7283 -1.1650
   72MOL   H31723179   6.582   6.081   1.895 -1.2258  1.3763 -0.0680
   72MOL   H31823180   6.947   6.205   2.099  1.1098 -0.7034 -0.5630
   72MOL   H31923181   6.853   6.411   2.147  0.4734 -1.6209  1.0222
   72MOL   H32023182   6.565   6.653   2.222 -0.5486  0.0030 -0.9843
   72MOL   H32123183   6.516   6.503   2.279 -1.3942  0.3506 -1.4708
   72MOL   H32223184   6.690   6.544   2.278  0.7192  1.4996 -1.5880
   73MOL     C123185   7.898   6.328   5.211 -0.1261  0.6952 -0.2507
   73MOL     C223186   8.030   6.294   5.146 -0.7914  0.0659  0.3427
   73MOL     C323187   8.054   6.167   5.092  0.3547  0.1312 -0.8169
   73MOL     C423188   8.180   6.145   5.026 -0.6093 -0.6168  0.6185
   73MOL     C523189   8.280   6.244   5.030  0.3828 -0.9844  1.7769
   73MOL    Cl623190   8.426   6.222   4.946  0.2409  0.3548  0.1750
   73MOL     C723191   8.255   6.364   5.085  0.6425 -0.1023 -0.3726
   73MOL     C823192   8.133   6.397   5.145  0.2150  0.8777  0.4656
   73MOL     C923193   7.874   6.287   5.359 -0.6529  0.1394 -0.6209
   73MOL    H1023194   7.828   6.285   5.139  0.4028 -1.9810  0.7779
   73MOL    H1123195   7.973   6.096   5.095  1.8899 -1.6584 -0.8148
   73MOL    H1223196   8.199   6.046   4.988  1.0099  0.2208 -0.8478
   73MOL    H1323197   8.332   6.439   5.086  0.0538  0.5052  0.6910
   73MOL    H1423198   8.115   6.495   5.186  1.9208  2.0409 -1.5134
   73MOL    H1523199   7.957   6.336   5.411 -0.9251  0.3813 -0.4118
   73MOL    H1623200   7.780   6.330   5.396 -0.7235  0.2203 -0.8959
   73MOL    H1723201   7.878   6.434   5.193  0.1104  0.4154 -2.3632
   73MOL    C1823202   7.892   6.136   5.396  0.6987  0.1489  0.2218
   73MOL    C1923203   7.881   6.124   5.554 -0.8731 -0.1764  0.4700
   73MOL    C2023204   7.992   6.080   5.622  0.5855 -0.0726 -0.2034
   73MOL    C2123205   7.984   6.057   5.761  0.3749  0.0648 -0.3614
   73MOL    C2223206   7.864   6.089   5.829 -0.2976 -0.1886 -0.0997
   73MOL   Cl2323207   7.844   6.042   5.989 -0.0299 -0.2117 -0.0479
   73MOL    C2423208   7.752   6.132   5.754  0.8048 -0.1204 -0.2494
   73MOL    C2523209   7.761   6.157   5.620 -0.4074 -0.2155  0.4598
   73MOL    C2623210   7.783   6.039   5.338  0.6243 -0.5378 -0.1901
   73MOL    H2723211   7.990   6.094   5.373 -0.0211 -1.5257  0.1358
   73MOL    H2823212   8.087   6.057   5.575  0.7784 -0.7677  0.5157
   73MOL    H2923213   8.070   6.021   5.816  2.7420  3.3669 -1.6956
   73MOL    H3023214   7.662   6.148   5.811  0.9947  0.4012 -0.0924
   73MOL    H3123215   7.679   6.191   5.558  0.0026  0.0507  0.0603
   73MOL    H3223216   7.686   6.077   5.368  0.8629  2.0805 -2.5320
   73MOL    H3323217   7.784   6.038   5.229 -1.8785 -0.1239 -0.2386
   73MOL    C3423218   7.780   5.896   5.378  0.7735 -0.0879 -0.2381
   73MOL    C3523219   7.638   5.836   5.339 -0.4574  0.1723  0.4319
   73MOL    C3623220   7.594   5.737   5.432  0.4202 -0.4061  0.3538
   73MOL    C3723221   7.473   5.672   5.408 -0.3360 -0.7115 -0.2205
   73MOL    C3823222   7.400   5.697   5.293  0.3885  1.0127  0.2427
   73MOL   Cl3923223   7.251   5.612   5.252 -0.3947  0.5070 -0.3837
   73MOL    C4023224   7.439   5.790   5.200 -0.2191  0.3224 -0.0834
   73MOL    C4123225   7.561   5.865   5.226 -0.8209 -0.5335  0.3009
   73MOL    C4223226   7.902   5.824   5.311 -0.1593  0.2609  0.1233
   73MOL    H4323227   7.789   5.881   5.485  1.8761 -1.7676 -0.5532
   73MOL    H4423228   7.652   5.719   5.521 -1.9736  0.3721  2.1275
   73MOL    H4523229   7.432   5.607   5.483 -0.6358  0.6611  0.8147
   73MOL    H4623230   7.371   5.804   5.117 -0.9667 -1.0757  0.2786
   73MOL    H4723231   7.594   5.948   5.165 -1.8955  0.7429  1.4213
   73MOL    H4823232   7.901   5.862   5.209  1.5638  0.7758  0.2858
   73MOL    H4923233   7.995   5.847   5.362 -0.7581 -0.4485  1.5585
   73MOL    C5023234   7.893   5.668   5.295 -0.4638  0.1463 -0.2054
   73MOL    C5123235   7.992   5.624   5.187 -0.1678 -0.1671 -0.5108
   73MOL    C5223236   7.939   5.543   5.092 -0.5062  0.9615  0.2863
   73MOL    C5323237   8.017   5.505   4.982 -0.1735  0.1034 -0.8038
   73MOL    C5423238   8.150   5.551   4.970 -0.0968  0.4638 -0.2326
   73MOL   Cl5523239   8.255   5.499   4.841 -0.2378  0.0304  0.2895
   73MOL    C5623240   8.203   5.632   5.074 -0.6044  0.7689 -0.2949
   73MOL    C5723241   8.123   5.671   5.182  1.0649  0.7127 -0.1593
   73MOL    C5823242   7.923   5.599   5.427 -0.2264 -0.3754  0.6361
   73MOL    H5923243   7.799   5.635   5.250  0.4604 -1.4809 -1.0043
   73MOL    H6023244   7.836   5.510   5.094  0.1605 -1.3178 -0.8208
   73MOL    H6123245   7.976   5.451   4.898 -0.5486 -0.9360  0.0404
   73MOL    H6223246   8.303   5.673   5.064 -0.1477 -0.1649  0.3270
   73MOL    H6323247   8.162   5.738   5.257 -0.1014 -0.0432  1.1434
   73MOL    H6423248   8.030   5.586   5.436 -0.2095  1.0836  2.8965
   73MOL    H6523249   7.889   5.665   5.507 -2.6867  0.6066 -1.1504
   73MOL    C6623250   7.850   5.464   5.445  0.5807  0.2105  0.6557
   73MOL    C6723251   7.919   5.344   5.372 -0.1850  1.0438 -0.3313
   73MOL    C6823252   7.866   5.283   5.254 -0.6770  0.3688  0.2580
   73MOL    C6923253   7.932   5.168   5.202 -0.6637 -0.0027  0.1576
   73MOL    C7023254   8.043   5.111   5.265  0.3726 -0.2931 -0.3625
   73MOL   Cl7123255   8.110   4.963   5.200  0.2113  0.0268 -0.2909
   73MOL    C7223256   8.102   5.175   5.379 -0.0943 -0.0379  0.8577
   73MOL    C7323257   8.035   5.281   5.432 -0.3849 -0.9560  0.3654
   73MOL    C7423258   7.813   5.443   5.596 -0.6845  0.6679  0.6444
   73MOL    H7523259   7.753   5.479   5.397  1.2645 -0.4372 -0.9593
   73MOL    H7623260   7.774   5.321   5.212 -0.7067  0.3951  0.3481
   73MOL    H7723261   7.893   5.115   5.117 -3.8186 -0.2818  1.7222
   73MOL    H7823262   8.187   5.125   5.424  0.5585 -0.4044 -0.7777
   73MOL    H7923263   8.064   5.329   5.524  1.3982 -0.2703 -0.5418
   73MOL    H8023264   7.911   5.431   5.643 -0.0393 -0.0417 -0.8426
   73MOL    H8123265   7.765   5.532   5.636 -2.5855  1.4839 -3.2251
   73MOL    C8223266   7.724   5.318   5.628 -0.8035 -0.3500  0.1628
   73MOL    C8323267   7.807   5.180   5.621  0.2501 -0.0070  1.0031
   73MOL    C8423268   7.925   5.160   5.702  0.3305 -0.3063  0.1359
   73MOL    C8523269   7.997   5.037   5.690  0.0462 -0.5260 -0.2714
   73MOL    C8623270   7.960   4.943   5.593  1.0317  0.6110 -0.1215
   73MOL   Cl8723271   8.043   4.794   5.575  0.0740 -0.1197 -0.1798
   73MOL    C8823272   7.843   4.967   5.513 -0.0845 -0.0276 -0.0938
   73MOL    C8923273   7.771   5.086   5.524 -0.4519 -0.0834 -0.0356
   73MOL    C9023274   7.667   5.328   5.773 -0.2940  0.1630 -0.2618
   73MOL    H9123275   7.644   5.308   5.555 -0.7832  2.5349 -0.3313
   73MOL    H9223276   7.964   5.237   5.767  2.1124  0.0369 -1.2661
   73MOL    H9323277   8.088   5.025   5.747  1.2940 -1.0096 -2.3209
   73MOL    H9423278   7.816   4.894   5.439  2.2608  0.7789 -1.8023
   73MOL    H9523279   7.681   5.105   5.466 -1.3344  0.9257  1.6389
   73MOL    H9623280   7.658   5.228   5.817 -1.4331  0.2265 -0.3504
   73MOL    H9723281   7.732   5.376   5.846 -1.5051  0.7262  0.4588
   73MOL    C9823282   7.524   5.370   5.779 -0.0504  0.0397  0.1622
   73MOL    C9923283   7.432   5.288   5.684  0.1915  0.9317 -0.1810
   73MOL   C10023284   7.440   5.147   5.662 -0.2968 -0.5504 -0.2332
   73MOL   C10123285   7.359   5.082   5.570 -0.4857 -0.6749 -0.0772
   73MOL   C10223286   7.258   5.153   5.500 -0.0436  0.5103 -0.1986
   73MOL  Cl10323287   7.140   5.064   5.409  0.0116  0.1625 -0.2147
   73MOL   C10423288   7.245   5.290   5.521 -0.0333 -0.6069 -0.5238
   73MOL   C10523289   7.331   5.360   5.610 -0.0317 -0.9986 -0.0477
   73MOL   C10623290   7.472   5.368   5.925 -0.1582 -0.4318  0.2370
   73MOL   H10723291   7.515   5.473   5.743 -4.1113  0.1084  1.1204
   73MOL   H10823292   7.517   5.094   5.716 -0.2107 -1.7595 -1.5309
   73MOL   H10923293   7.374   4.977   5.554 -1.5027 -0.8934  0.3729
   73MOL   H11023294   7.164   5.342   5.473 -0.7311  0.8683  2.1448
   73MOL   H11123295   7.303   5.462   5.634 -0.0915 -1.0185 -0.0325
   73MOL   H11223296   7.364   5.381   5.927 -0.4747 -2.8240  0.1685
   73MOL   H11323297   7.487   5.270   5.971 -2.3856  0.3883  2.8363
   73MOL   C11423298   7.521   5.486   6.011 -0.3715  0.7594  0.4629
   73MOL   C11523299   7.500   5.619   5.939 -0.5035 -0.3565  0.6686
   73MOL   C11623300   7.609   5.703   5.904  0.0476  0.7035 -0.0728
   73MOL   C11723301   7.595   5.812   5.819 -0.3196  0.3174 -0.3704
   73MOL   C11823302   7.466   5.848   5.781  0.3880  0.3337  0.2759
   73MOL  Cl11923303   7.446   5.986   5.695  0.0002  0.3067 -0.8189
   73MOL   C12023304   7.358   5.765   5.811 -0.2667 -0.5729 -0.8651
   73MOL   C12123305   7.372   5.652   5.886  0.7092 -0.1818 -0.1818
   73MOL   C12223306   7.472   5.478   6.157 -0.3253 -0.1662 -0.5567
   73MOL   H12323307   7.629   5.470   6.013 -0.3752  0.6571 -0.0178
   73MOL   H12423308   7.710   5.694   5.942  0.5542  0.3556 -1.4813
   73MOL   H12523309   7.681   5.866   5.781 -0.0910  0.8144  0.8153
   73MOL   H12623310   7.257   5.790   5.782 -0.1353 -0.2054 -1.0065
   73MOL   H12723311   7.288   5.584   5.881 -2.1268  2.9168  2.6197
   73MOL   H12823312   7.374   5.523   6.172  0.2540  0.7635  0.4785
   73MOL   H12923313   7.448   5.376   6.186  1.0730 -0.0797  0.9238
   73MOL   C13023314   7.574   5.536   6.257  0.1385  0.0790 -0.6113
   73MOL   C13123315   7.496   5.626   6.356 -0.1920 -0.4353  0.3144
   73MOL   C13223316   7.400   5.581   6.442 -0.4939 -0.3102 -0.0582
   73MOL   C13323317   7.341   5.663   6.531  0.0151 -1.1758  0.4849
   73MOL   C13423318   7.359   5.802   6.529  0.1065 -0.1129 -0.0432
   73MOL  Cl13523319   7.263   5.904   6.628 -0.1621 -0.1153  0.0804
   73MOL   C13623320   7.463   5.849   6.445 -1.1586  0.9299 -0.1598
   73MOL   C13723321   7.533   5.760   6.356 -0.1179 -0.7848 -0.1659
   73MOL   C13823322   7.647   5.425   6.335  0.2070  0.0648 -0.2359
   73MOL   H13923323   7.643   5.603   6.206 -0.1670  0.5334 -0.4282
   73MOL   H14023324   7.364   5.479   6.438  1.5748 -0.9874 -2.9426
   73MOL   H14123325   7.260   5.618   6.587 -0.0084 -3.4072 -1.2808
   73MOL   H14223326   7.484   5.954   6.451  1.3850  0.3437  2.5587
   73MOL   H14323327   7.609   5.785   6.283  0.0945 -0.3124  0.2110
   73MOL   H14423328   7.686   5.467   6.428 -0.5541  0.5195 -0.1232
   73MOL   H14523329   7.573   5.348   6.359 -1.0763  1.1006 -0.8371
   73MOL   C14623330   7.773   5.372   6.268  0.5846  0.1417  0.4951
   73MOL   C14723331   7.876   5.484   6.233 -0.2284  0.1251 -0.1954
   73MOL   C14823332   7.938   5.482   6.106 -0.2569  0.0911 -0.7413
   73MOL   C14923333   8.044   5.574   6.086  1.0105  0.3623 -0.4881
   73MOL   C15023334   8.073   5.669   6.186  0.3436 -0.1478  0.5842
   73MOL  Cl15123335   8.192   5.786   6.157 -0.0188  0.1519  0.1698
   73MOL   C15223336   8.007   5.675   6.312  0.6093  0.2008  0.6215
   73MOL   C15323337   7.904   5.580   6.330  0.5539  0.2422 -0.1879
   73MOL   C15423338   7.828   5.265   6.362 -0.0680 -0.1132  0.3289
   73MOL   H15523339   7.739   5.332   6.172 -0.2495 -1.0206  1.2760
   73MOL   H15623340   7.923   5.399   6.040 -1.3332 -1.8658  1.8715
   73MOL   H15723341   8.101   5.575   5.994  2.6660 -0.4248  0.5154
   73MOL   H15823342   8.033   5.741   6.394 -0.7217  2.3011 -0.5991
   73MOL   H15923343   7.854   5.587   6.425  0.8609  0.3773 -0.0350
   73MOL   H16023344   7.931   5.246   6.333  0.1202  1.1695  0.1269
   73MOL   H16123345   7.849   5.318   6.455  0.8710 -1.7818  1.0883
   73MOL   C16223346   7.743   5.136   6.394  0.2949 -0.3002 -0.3897
   73MOL   C16323347   7.665   5.084   6.276 -0.5504 -0.3778  0.2946
   73MOL   C16423348   7.730   5.024   6.165  0.5172 -0.3276 -0.9166
   73MOL   C16523349   7.654   4.970   6.064 -0.1065 -0.4335 -0.1089
   73MOL   C16623350   7.519   4.966   6.076  0.1903 -0.2024 -0.4457
   73MOL  Cl16723351   7.441   4.862   5.958 -0.0317  0.1360 -0.0581
   73MOL   C16823352   7.446   5.025   6.179  0.0016 -0.3537  0.1527
   73MOL   C16923353   7.521   5.081   6.282 -0.2029  0.3025  0.3272
   73MOL   C17023354   7.819   5.024   6.471  0.5861 -0.0861  0.2650
   73MOL   H17123355   7.669   5.170   6.467  0.0966  0.3368 -0.8858
   73MOL   H17223356   7.837   5.041   6.164  0.5338 -0.4582 -1.1852
   73MOL   H17323357   7.707   4.929   5.979  1.4112  1.0015  0.0954
   73MOL   H17423358   7.338   5.032   6.182 -0.0551 -1.9225  1.8983
   73MOL   H17523359   7.467   5.125   6.364  0.5687  3.6470 -0.8473
   73MOL   H17623360   7.749   4.943   6.487  0.0322  0.2768 -0.3307
   73MOL   H17723361   7.897   4.991   6.402  0.9384 -2.8954  1.9283
   73MOL   C17823362   7.874   5.063   6.603 -0.6105  0.0532 -0.3943
   73MOL   C17923363   7.761   5.093   6.704  0.3930 -0.7147  0.0842
   73MOL   C18023364   7.657   4.996   6.721 -0.1041  0.1697  0.1168
   73MOL   C18123365   7.556   5.021   6.815 -0.5278 -0.1531 -0.5638
   73MOL   C18223366   7.552   5.140   6.888  1.0677 -0.4470 -0.2568
   73MOL  Cl18323367   7.418   5.166   7.004 -0.2812  0.1389 -0.0121
   73MOL   C18423368   7.653   5.236   6.883  0.6290  0.5692  0.8464
   73MOL   C18523369   7.761   5.213   6.793 -0.7820 -0.4759  0.7121
   73MOL   C18623370   7.984   4.969   6.648  0.1333  0.1331  0.3008
   73MOL   H18723371   7.927   5.157   6.590 -0.9375  0.4747  1.2458
   73MOL   H18823372   7.646   4.908   6.659 -1.1254  0.2938  0.1246
   73MOL   H18923373   7.478   4.948   6.832  1.2663 -2.0595 -0.2832
   73MOL   H19023374   7.655   5.319   6.953  0.3419  0.1324  1.3782
   73MOL   H19123375   7.829   5.297   6.788  0.1953 -1.2512  0.9395
   73MOL   H19223376   7.945   4.869   6.665 -0.3084  0.5707  1.9421
   73MOL   H19323377   8.048   4.946   6.562 -0.3513 -0.2361  0.0329
   73MOL   C19423378   8.076   5.024   6.761 -0.7961 -0.0710 -0.1371
   73MOL   C19523379   8.107   4.920   6.877 -0.0971 -0.0662  0.2057
   73MOL   C19623380   8.149   4.784   6.850 -0.2289  0.1475 -0.3217
   73MOL   C19723381   8.180   4.701   6.955  0.4056 -0.2888 -0.4251
   73MOL   C19823382   8.149   4.741   7.084 -0.0458 -0.0098 -0.2697
   73MOL  Cl19923383   8.198   4.655   7.227  0.3706 -0.1422  0.2787
   73MOL   C20023384   8.091   4.867   7.109  0.0700  0.0080  0.9288
   73MOL   C20123385   8.065   4.958   7.007 -0.3555 -0.1785 -0.4777
   73MOL   C20223386   8.211   5.086   6.716  0.2606 -0.0634  0.5555
   73MOL   H20323387   8.016   5.091   6.822 -0.3960  2.7827 -2.7985
   73MOL   H20423388   8.166   4.746   6.750 -0.4505  0.3786 -0.4458
   73MOL   H20523389   8.248   4.618   6.938  2.8868  1.8708 -1.5221
   73MOL   H20623390   8.065   4.894   7.211  1.7234 -1.1928  1.7042
   73MOL   H20723391   8.016   5.052   7.030 -0.2538  0.3129 -2.1783
   73MOL   H20823392   8.268   5.094   6.809 -1.8140  0.3691  1.8259
   73MOL   H20923393   8.265   5.009   6.662  0.1633  1.4412 -1.7650
   73MOL   C21023394   8.218   5.222   6.641 -0.7475  0.3262  0.3467
   73MOL   C21123395   8.150   5.344   6.708 -0.2861  0.9259  0.4484
   73MOL   C21223396   8.072   5.433   6.637  0.4360  0.2763 -0.8363
   73MOL   C21323397   8.025   5.551   6.702 -0.2517 -0.2638 -0.3233
   73MOL   C21423398   8.055   5.569   6.841 -0.0486 -0.0833  0.1557
   73MOL  Cl21523399   7.968   5.690   6.928 -0.0258  0.2144  0.1861
   73MOL   C21623400   8.124   5.471   6.912 -0.0276  0.2530  0.4719
   73MOL   C21723401   8.180   5.363   6.841  0.0216 -0.3778 -0.8138
   73MOL   C21823402   8.361   5.259   6.588  0.3635  0.0680  0.2556
   73MOL   H21923403   8.164   5.205   6.547 -1.4605  3.8511  0.0380
   73MOL   H22023404   8.055   5.423   6.531  1.9419  0.5974 -1.1176
   73MOL   H22123405   7.963   5.614   6.640 -1.1721 -0.8498 -0.0258
   73MOL   H22223406   8.136   5.479   7.019 -1.8671 -3.3442  1.0261
   73MOL   H22323407   8.243   5.291   6.890 -1.9739 -2.9725 -1.8977
   73MOL   H22423408   8.357   5.361   6.550 -1.5688  0.0012  0.2305
   73MOL   H22523409   8.417   5.276   6.680  2.4584  0.6600 -1.1048
   73MOL   C22623410   8.432   5.168   6.487 -0.2055 -0.2663 -0.2463
   73MOL   C22723411   8.375   5.181   6.340 -0.1548  0.9182  0.0196
   73MOL   C22823412   8.329   5.071   6.262 -0.0320  0.3463 -0.3861
   73MOL   C22923413   8.273   5.085   6.135 -0.2022 -0.3577  0.2670
   73MOL   C23023414   8.267   5.213   6.071  0.4263  0.1360  0.3249
   73MOL  Cl23123415   8.191   5.235   5.921  0.1454 -0.1298 -0.1059
   73MOL   C23223416   8.317   5.325   6.143 -0.2578 -0.3946  0.2051
   73MOL   C23323417   8.369   5.308   6.278 -0.0195  0.6271  0.4631
   73MOL   C23423418   0.139   5.196   6.497 -0.6145  0.6684  0.4161
   73MOL   H23523419   8.418   5.064   6.516 -1.1392 -0.4268 -1.2205
   73MOL   H23623420   8.340   4.971   6.302  1.1653  1.1047  1.2200
   73MOL   H23723421   8.225   5.000   6.089 -1.3403  1.0400 -1.1561
   73MOL   H23823422   8.330   5.426   6.108  2.0315 -0.8348 -0.2413
   73MOL   H23923423   8.395   5.401   6.326  0.2972 -0.3323  2.1918
   73MOL   H24023424   0.151   5.299   6.464 -0.2453  0.6825  0.5946
   73MOL   H24123425   0.187   5.201   6.595  2.2356  0.1016 -0.9042
   73MOL   C24223426   0.235   5.092   6.420  0.6439  0.5179 -0.2418
   73MOL   C24323427   0.376   5.150   6.399 -0.1494 -0.4261  0.1800
   73MOL   C24423428   0.448   5.135   6.278 -0.0573  1.1431  0.4699
   73MOL   C24523429   0.577   5.191   6.266 -0.1786  0.6026  0.4338
   73MOL   C24623430   0.630   5.269   6.369  0.1410 -0.2793  0.0975
   73MOL  Cl24723431   0.791   5.339   6.356 -0.1106  0.0397  0.1829
   73MOL   C24823432   0.559   5.284   6.492 -0.2145 -0.6154 -0.5584
   73MOL   C24923433   0.434   5.226   6.502 -0.3798  0.9144 -0.0944
   73MOL   C25023434   0.231   4.947   6.477 -0.0647 -0.0794 -0.8035
   73MOL   H25123435   0.192   5.075   6.321  0.3589  0.7018 -0.1485
   73MOL   H25223436   0.410   5.077   6.196  0.5450  1.2254  0.1375
   73MOL   H25323437   0.632   5.177   6.174  1.1740 -0.6939  1.4208
   73MOL   H25423438   0.584   5.332   6.586  1.5418 -0.1867 -1.2280
   73MOL   H25523439   0.393   5.247   6.600  1.3667 -0.0648  0.8613
   73MOL   H25623440   0.131   4.912   6.499  0.5131 -0.9610  0.4353
   73MOL   H25723441   0.269   4.876   6.403  1.7291 -1.8313  1.7123
   73MOL   C25823442   0.311   4.927   6.608 -0.9413  0.0884  0.2015
   73MOL   C25923443   0.225   4.850   6.710  0.2139 -0.3039  0.2849
   73MOL   C26023444   0.251   4.718   6.737  0.2379 -0.2820 -0.7026
   73MOL   C26123445   0.193   4.662   6.855 -0.6738 -0.6399 -0.3748
   73MOL   C26223446   0.110   4.733   6.936  0.0240 -0.3926  0.4177
   73MOL  Cl26323447   0.069   4.660   7.088  0.3298 -0.0122  0.3708
   73MOL   C26423448   0.073   4.863   6.898  0.0362  0.4858  0.0341
   73MOL   C26523449   0.129   4.922   6.782  0.0050 -0.2047 -0.2218
   73MOL   C26623450   0.453   4.869   6.582 -0.0258  0.8845 -0.2216
   73MOL   H26723451   0.325   5.025   6.654  0.8114 -0.0394 -0.0205
   73MOL   H26823452   0.317   4.654   6.679 -1.6970 -1.0058 -2.1443
   73MOL   H26923453   0.226   4.563   6.884  1.3915 -0.2154 -1.1624
   73MOL   H27023454   0.008   4.918   6.964 -0.1546 -1.6309  1.6362
   73MOL   H27123455   0.103   5.025   6.764  0.6166 -0.1436 -0.7612
   73MOL   H27223456   0.450   4.764   6.552 -1.1135  0.7532  0.3182
   73MOL   H27323457   0.499   4.917   6.496  0.8458  0.7712  0.1814
   73MOL   C27423458   0.546   4.889   6.713  0.3108  0.5623  0.1285
   73MOL   C27523459   0.660   4.785   6.715  0.3003 -0.2702 -0.9560
   73MOL   C27623460   0.741   4.766   6.597  0.4299  0.2182  0.2082
   73MOL   C27723461   0.832   4.655   6.589  0.3360  0.6585  1.1396
   73MOL   C27823462   0.852   4.574   6.696  0.0665  0.3569 -0.5464
   73MOL  Cl27923463   0.974   4.460   6.699 -0.2036  0.0030 -0.4185
   73MOL   C28023464   0.779   4.596   6.810  0.5881 -0.2096 -0.5868
   73MOL   C28123465   0.684   4.702   6.825  0.0274 -0.4066 -0.2081
   73MOL   C28223466   0.589   5.036   6.739 -0.2591  0.2250  0.2964
   73MOL   H28323467   0.481   4.865   6.797 -2.4986  0.1505 -2.0741
   73MOL   H28423468   0.717   4.816   6.504  0.0670  0.4247  0.4108
   73MOL   H28523469   0.903   4.631   6.512 -1.6870  0.4790 -0.7092
   73MOL   H28623470   0.807   4.527   6.888  1.0269 -1.3531 -1.7472
   73MOL   H28723471   0.633   4.715   6.919  1.6113  0.8558  0.4986
   73MOL   H28823472   0.612   5.095   6.650 -0.4466  1.8668  1.3154
   73MOL   H28923473   0.495   5.078   6.774 -0.6384  1.2199 -1.7963
   73MOL   C29023474   0.709   5.056   6.840  0.5899 -0.3124 -0.2213
   73MOL   C29123475   0.850   5.067   6.768 -0.7597  0.2473  0.1043
   73MOL   C29223476   0.947   4.963   6.795  0.1407 -0.2556 -0.4892
   73MOL   C29323477   1.079   4.966   6.754  0.0973 -0.2236 -0.4496
   73MOL   C29423478   1.113   5.073   6.671 -0.0121  0.4679  0.6066
   73MOL  Cl29523479   1.279   5.086   6.613  0.1973 -0.6673  0.1853
   73MOL   C29623480   1.029   5.180   6.639  0.3946 -0.3873 -0.5713
   73MOL   C29723481   0.892   5.180   6.690 -0.2190  0.3399 -0.4585
   73MOL   C29823482   0.696   5.181   6.933 -0.4626  0.0265  0.6299
   73MOL   H29923483   0.711   4.966   6.902  1.9974  0.3559  0.7398
   73MOL   H30023484   0.913   4.885   6.861 -3.9323  1.1394 -0.7764
   73MOL   H30123485   1.152   4.890   6.779 -0.0127  0.3364  1.6236
   73MOL   H30223486   1.060   5.271   6.590  0.2710 -0.0724 -0.0722
   73MOL   H30323487   0.832   5.265   6.660 -0.4053 -0.0070 -1.0644
   73MOL   H30423488   0.785   5.185   6.996 -0.5634 -0.8692  0.8380
   73MOL   H30523489   0.700   5.273   6.875  0.1482  0.3079  1.1120
   73MOL   C30623490   0.560   5.194   7.015  0.7780 -0.5249 -1.1011
   73MOL   C30723491   0.524   5.068   7.088 -0.1043  0.4757 -0.2735
   73MOL   C30823492   0.617   5.016   7.182 -0.6498 -0.5525 -0.9863
   73MOL   C30923493   0.573   4.900   7.252 -0.6320  0.4309  0.1699
   73MOL   C31023494   0.453   4.832   7.231 -0.4540  0.1716 -0.0975
   73MOL  Cl31123495   0.424   4.684   7.309 -0.1015  0.0328 -0.2133
   73MOL   C31223496   0.365   4.886   7.132 -0.3217  0.4845  0.5609
   73MOL   C31323497   0.405   4.999   7.066  0.6763 -0.9876 -0.0143
   73MOL   C31423498   0.572   5.321   7.106 -0.1075  0.9969 -0.4249
   73MOL   H31523499   0.485   5.232   6.946 -0.8362 -0.6562  0.5613
   73MOL   H31623500   0.712   5.065   7.195 -0.0024 -1.7375 -1.1138
   73MOL   H31723501   0.645   4.854   7.320  0.1238  0.6193 -0.4928
   73MOL   H31823502   0.277   4.827   7.111  0.2145 -0.3533  0.6423
   73MOL   H31923503   0.328   5.045   7.005  1.0171 -1.4627 -0.8198
   73MOL   H32023504   0.472   5.347   7.140 -0.2212  1.0151 -0.7774
   73MOL   H32123505   0.634   5.305   7.194  0.4725 -3.0651 -1.4807
   73MOL   H32223506   0.608   5.412   7.057 -0.5637  1.0675 -0.6248
   74MOL     C123507   7.023   3.262   0.351  0.1342 -0.2822  0.5152
   74MOL     C223508   7.062   3.117   0.389  0.0992 -0.5565  0.1657
   74MOL     C323509   7.066   3.075   0.523  0.2604 -0.4160 -0.5468
   74MOL     C423510   7.103   2.941   0.555  0.0712 -0.3161 -0.0259
   74MOL     C523511   7.134   2.851   0.448 -0.4529  0.3212  0.0494
   74MOL    Cl623512   7.169   2.681   0.479 -0.0318  0.1538 -0.4051
   74MOL     C723513   7.134   2.900   0.313 -0.5017  0.0921 -0.2104
   74MOL     C823514   7.103   3.028   0.286  0.0580 -0.9215 -0.3462
   74MOL     C923515   7.138   3.341   0.285  0.0316 -0.0766  0.0896
   74MOL    H1023516   6.982   3.312   0.439 -1.0355  0.2851 -0.3325
   74MOL    H1123517   7.032   3.133   0.607 -1.0440 -3.0401  0.7897
   74MOL    H1223518   7.098   2.895   0.652  1.4162 -0.7038 -0.1275
   74MOL    H1323519   7.170   2.838   0.233 -0.0613  0.1390 -0.0512
   74MOL    H1423520   7.113   3.062   0.184 -0.8949  1.3940  0.3003
   74MOL    H1523521   7.212   3.366   0.362  0.2698 -1.8870  0.4748
   74MOL    H1623522   7.200   3.285   0.215  1.6580  1.2020  0.4735
   74MOL    H1723523   6.942   3.263   0.278  0.1218 -2.1795  0.4781
   74MOL    C1823524   7.075   3.458   0.201  0.2106  0.2509 -0.9029
   74MOL    C1923525   6.978   3.547   0.279  0.0526  0.0126  0.3062
   74MOL    C2023526   6.835   3.527   0.264 -0.0818 -0.0885 -0.0513
   74MOL    C2123527   6.741   3.614   0.329 -0.2815 -0.1138 -0.3359
   74MOL    C2223528   6.793   3.726   0.400  0.0678 -0.1662  1.0665
   74MOL   Cl2323529   6.685   3.835   0.479 -0.0465 -0.0995 -0.1725
   74MOL    C2423530   6.933   3.746   0.417  0.2673 -0.4119  0.0309
   74MOL    C2523531   7.022   3.652   0.360  0.6095  0.5848 -0.5950
   74MOL    C2623532   7.195   3.531   0.129  0.0799 -0.2122  0.6355
   74MOL    H2723533   7.015   3.420   0.119  0.2317  0.3680 -0.9732
   74MOL    H2823534   6.801   3.454   0.193  0.6789 -1.2028  0.7077
   74MOL    H2923535   6.634   3.606   0.313 -0.2476 -0.9679 -0.1589
   74MOL    H3023536   6.969   3.831   0.474  1.8947 -0.8065 -0.3886
   74MOL    H3123537   7.127   3.676   0.368  0.8763 -0.1919 -1.6598
   74MOL    H3223538   7.238   3.600   0.203 -0.5883  1.8063 -0.8031
   74MOL    H3323539   7.270   3.461   0.094  0.2827  0.2297  0.1780
   74MOL    C3423540   7.162   3.631   0.011 -0.4349  0.1404  0.2015
   74MOL    C3523541   7.091   3.751   0.052 -0.1027  0.7545 -0.0347
   74MOL    C3623542   7.162   3.873   0.084 -0.1233  0.1342  0.1272
   74MOL    C3723543   7.084   3.982   0.128  0.6596  0.2337 -0.2528
   74MOL    C3823544   6.945   3.981   0.122 -0.0030  0.3848 -0.0537
   74MOL   Cl3923545   6.856   4.129   0.155  0.1943 -0.0549  0.1260
   74MOL    C4023546   6.878   3.864   0.073  0.2574 -0.9119 -0.0312
   74MOL    C4123547   6.948   3.747   0.047 -0.0651  0.3176  0.3318
   74MOL    C4223548   7.290   3.651   8.369 -0.3615  0.0164 -0.1914
   74MOL    H4323549   7.102   3.576   8.381  0.5571 -0.5110 -0.1372
   74MOL    H4423550   7.265   3.901   0.069  0.1342 -0.1089  1.3900
   74MOL    H4523551   7.129   4.071   0.169  1.1283 -0.0155 -0.2142
   74MOL    H4623552   6.770   3.863   0.064  0.2611  1.9610 -0.9791
   74MOL    H4723553   6.892   3.663   0.009  1.1827  0.5013 -2.0063
   74MOL    H4823554   7.274   3.732   8.297  0.7816  0.5648  0.1609
   74MOL    H4923555   7.368   3.692   8.434 -0.7855 -1.6085  1.3523
   74MOL    C5023556   7.358   3.531   8.295 -0.9473 -0.3109 -0.1165
   74MOL    C5123557   7.265   3.454   8.208  0.5036  0.0220 -0.0555
   74MOL    C5223558   7.203   3.517   8.099  0.4173  0.0786  0.5752
   74MOL    C5323559   7.122   3.449   8.009 -0.0995 -0.8368 -0.3829
   74MOL    C5423560   7.088   3.313   8.035 -1.1051  0.5298  0.4119
   74MOL   Cl5523561   6.964   3.235   7.938 -0.3829 -0.2818  0.1076
   74MOL    C5623562   7.138   3.252   8.152 -0.3586  0.4958  0.3741
   74MOL    C5723563   7.231   3.323   8.240 -0.4968 -0.2526  0.6923
   74MOL    C5823564   7.486   3.583   8.224 -0.8059 -0.0309 -0.4919
   74MOL    H5923565   7.402   3.460   8.365 -0.1969  0.1612 -0.1040
   74MOL    H6023566   7.208   3.623   8.078 -1.9455  0.3119  1.0424
   74MOL    H6123567   7.086   3.509   7.927 -0.3587  0.3745  0.5981
   74MOL    H6223568   7.119   3.146   8.154 -1.2016  0.6585  1.3220
   74MOL    H6323569   7.277   3.275   8.325  0.7011 -1.5209 -0.6505
   74MOL    H6423570   7.448   3.635   8.136  2.7469  2.5686 -0.5571
   74MOL    H6523571   7.527   3.670   8.274 -0.1946  0.4508 -1.8173
   74MOL    C6623572   7.598   3.479   8.193  0.1446  0.1286 -0.7470
   74MOL    C6723573   7.638   3.482   8.048  0.5907 -0.1902 -0.3902
   74MOL    C6823574   7.681   3.600   7.984  0.2488  0.7797  0.3118
   74MOL    C6923575   7.721   3.595   7.847 -0.0884  0.0877 -0.1839
   74MOL    C7023576   7.745   3.471   7.786 -0.4687  0.4838  0.1233
   74MOL   Cl7123577   7.803   3.467   7.626 -0.1770  0.0668 -0.0411
   74MOL    C7223578   7.709   3.354   7.847  0.4934 -0.0451 -0.0812
   74MOL    C7323579   7.652   3.353   7.978 -0.4208 -0.9426 -0.3983
   74MOL    C7423580   7.717   3.498   8.290 -0.0248  0.0706 -0.0141
   74MOL    H7523581   7.551   3.381   8.197 -1.5589  0.9058 -1.3380
   74MOL    H7623582   7.673   3.693   8.039 -0.2133  0.3198  1.0186
   74MOL    H7723583   7.746   3.680   7.786  0.1337 -2.2961 -3.5356
   74MOL    H7823584   7.713   3.264   7.788 -1.7654  0.5255 -1.1516
   74MOL    H7923585   7.612   3.265   8.026  0.7116 -1.1660  0.1492
   74MOL    H8023586   7.799   3.443   8.243  0.3745  1.8522 -1.4754
   74MOL    H8123587   7.752   3.601   8.284 -0.7257  0.3724  1.0231
   74MOL    C8223588   7.688   3.448   8.434  0.0301  0.2523 -0.1629
   74MOL    C8323589   7.627   3.313   0.002  0.6148 -0.0229  0.6786
   74MOL    C8423590   7.696   3.206   8.382 -0.4657  0.1035 -0.3992
   74MOL    C8523591   7.644   3.075   8.397 -0.1391  0.5489 -0.1522
   74MOL    C8623592   7.524   3.053   0.024  0.3239 -0.0314  0.1078
   74MOL   Cl8723593   7.461   2.894   0.042  0.0240  0.1023  0.1027
   74MOL    C8823594   7.461   3.161   0.083 -0.3399 -0.1259  0.5006
   74MOL    C8923595   7.510   3.289   0.079  0.0844 -0.2177  0.2779
   74MOL    C9023596   7.812   3.452   0.083 -0.5170  0.5595 -0.2520
   74MOL    H9123597   7.612   3.511   0.038 -1.7673 -1.0322 -1.3032
   74MOL    H9223598   7.786   3.231   8.328 -0.7594  2.1992  0.0367
   74MOL    H9323599   7.696   2.992   8.351 -0.2816  1.3687 -1.8711
   74MOL    H9423600   7.375   3.131   0.141 -0.2193 -0.0358  0.7273
   74MOL    H9523601   7.464   3.365   0.141  1.7299  1.3963 -0.4453
   74MOL    H9623602   7.797   3.401   0.179  0.6634  0.2310 -0.2337
   74MOL    H9723603   7.891   3.394   0.037 -0.6298 -0.3462  0.6713
   74MOL    C9823604   7.867   3.593   0.121 -0.6536  0.2895 -0.2904
   74MOL    C9923605   7.752   3.670   0.189  0.2542  0.1096 -0.4464
   74MOL   C10023606   7.689   3.619   0.303  0.4634  0.0094 -0.1752
   74MOL   C10123607   7.567   3.678   0.356 -0.4399 -0.0927  0.7079
   74MOL   C10223608   7.527   3.801   0.308  0.5524 -0.5805 -0.0915
   74MOL  Cl10323609   7.409   3.903   0.385 -0.1858 -0.1702 -0.0036
   74MOL   C10423610   7.589   3.854   0.195  1.3355 -0.1679  0.2632
   74MOL   C10523611   7.693   3.797   0.132  0.0669  0.3068  0.0653
   74MOL   C10623612   7.995   3.577   0.200  0.0499 -0.4496  0.0100
   74MOL   H10723613   7.899   3.647   0.032  0.3887  1.4137  0.7387
   74MOL   H10823614   7.735   3.528   0.338 -1.9671 -0.9604  0.6471
   74MOL   H10923615   7.516   3.636   0.441  0.7152 -0.3997  1.2415
   74MOL   H11023616   7.544   3.945   0.158 -1.0311 -0.6505  1.8005
   74MOL   H11123617   7.744   3.836   0.046  1.3823 -0.2414  0.5771
   74MOL   H11223618   8.015   3.683   0.215  1.1358 -0.6067 -0.3091
   74MOL   H11323619   7.982   3.541   0.302 -1.1452 -0.5672 -0.1702
   74MOL   C11423620   8.116   3.508   0.129  0.2616  0.3600 -0.0340
   74MOL   C11523621   8.144   3.563   8.432  0.1520  0.0078  0.3121
   74MOL   C11623622   8.119   3.477   8.317 -0.6727 -0.4537  0.5438
   74MOL   C11723623   8.160   3.523   8.186  0.6289 -0.0562  0.3707
   74MOL   C11823624   8.192   3.655   8.169 -0.0903 -0.8612  0.0850
   74MOL  Cl11923625   8.229   3.708   8.009 -0.0531 -0.2333  0.2527
   74MOL   C12023626   8.205   3.742   8.275  0.2691  0.2181  0.2878
   74MOL   C12123627   8.186   3.698   8.412 -0.9831  0.0664 -0.1245
   74MOL   C12223628   8.237   3.523   0.225 -0.7973  0.3491  0.8202
   74MOL   H12323629   8.092   3.404   0.110 -0.4950  0.8678 -1.9475
   74MOL   H12423630   8.075   3.379   8.331 -0.7935 -0.4887 -0.0455
   74MOL   H12523631   8.149   3.450   8.107 -2.9567  1.5737 -0.7075
   74MOL   H12623632   8.244   3.842   8.266  1.6588 -0.1790  1.6784
   74MOL   H12723633   8.206   3.769   0.048 -1.4978  0.0919 -0.0113
   74MOL   H12823634   8.269   3.626   0.208 -0.2295  0.0005 -0.2930
   74MOL   H12923635   8.212   3.519   0.331 -1.2264 -0.0303  0.7038
   74MOL   C13023636   8.344   3.425   0.179  0.2833  0.3795  0.0796
   74MOL   C13123637   0.041   3.492   0.167 -0.7646 -0.8125 -0.3340
   74MOL   C13223638   0.137   3.468   0.271 -0.2125  0.3517  0.2381
   74MOL   C13323639   0.270   3.513   0.264 -0.4378 -0.1827  0.7532
   74MOL   C13423640   0.316   3.578   0.146 -0.0283 -0.0921 -0.7910
   74MOL  Cl13523641   0.480   3.637   0.145  0.4036 -0.2036 -0.1273
   74MOL   C13623642   0.223   3.606   0.045  0.2389  0.1423 -0.1725
   74MOL   C13723643   0.083   3.565   0.055 -0.2328  0.1797  0.1292
   74MOL   C13823644   8.334   3.288   0.247 -0.8905  0.4455  0.2857
   74MOL   H13923645   8.320   3.406   0.075  1.6864 -1.1956  0.0268
   74MOL   H14023646   0.112   3.414   0.361  0.1290  2.1907  1.4546
   74MOL   H14123647   0.337   3.498   0.348 -0.3996 -1.7052  0.4654
   74MOL   H14223648   0.247   3.656   8.396 -1.4631  0.3876 -0.4995
   74MOL   H14323649   0.016   3.580   8.414 -0.3782  0.0103  0.2136
   74MOL   H14423650   8.363   3.290   0.352  1.1820  2.1278 -0.2837
   74MOL   H14523651   8.229   3.261   0.238 -0.3412 -1.6759  0.0672
   74MOL   C14623652   8.411   3.177   0.168 -0.4310  0.4097  0.2241
   74MOL   C14723653   0.098   3.146   0.241 -0.0629 -0.1593  0.1386
   74MOL   C14823654   0.095   3.102   0.374 -0.1478 -0.2968 -0.4153
   74MOL   C14923655   0.212   3.090   0.450  0.5154  0.4225 -0.8315
   74MOL   C15023656   0.335   3.120   0.390 -0.1315 -0.2647 -0.5846
   74MOL  Cl15123657   0.479   3.099   0.485 -0.1928 -0.0677 -0.2070
   74MOL   C15223658   0.347   3.153   0.258 -0.3638 -0.2215  0.5849
   74MOL   C15323659   0.227   3.161   0.179 -0.4110 -0.2700  0.3297
   74MOL   C15423660   8.326   3.055   0.138 -0.4527 -0.0747 -0.1935
   74MOL   H15523661   0.004   3.226   0.077  1.2245 -0.3130  0.4848
   74MOL   H15623662   0.004   3.073   0.423  0.7977 -0.5180  1.2292
   74MOL   H15723663   0.209   3.056   0.553 -0.5065 -0.6837 -1.2143
   74MOL   H15823664   0.441   3.155   0.204  0.6127 -1.5271  2.1508
   74MOL   H15923665   0.239   3.174   0.073 -0.4699  2.2666  0.6182
   74MOL   H16023666   8.280   3.022   0.231 -4.1323  0.0409 -1.8716
   74MOL   H16123667   8.248   3.093   0.072 -1.2081  0.7202  1.1573
   74MOL   C16223668   8.391   2.938   0.061 -0.3041  0.8588  0.3894
   74MOL   C16323669   8.276   2.843   0.026  0.7917 -0.4412 -0.1934
   74MOL   C16423670   8.214   2.855   8.340 -0.2439 -0.0174 -0.0180
   74MOL   C16523671   8.107   2.770   8.303 -0.0861 -0.6456 -0.0481
   74MOL   C16623672   8.044   2.686   8.400 -0.1040 -0.1472 -0.3558
   74MOL  Cl16723673   7.903   2.593   8.357  0.0714  0.0870  0.3102
   74MOL   C16823674   8.106   2.669   0.090  0.3097 -0.5390  0.0885
   74MOL   C16923675   8.229   2.741   0.114  0.2081  0.7869 -0.0641
   74MOL   C17023676   0.032   2.982   8.379 -0.0717  0.1355  0.7854
   74MOL   H17123677   0.015   2.884   0.127 -0.1308 -0.0733 -0.5412
   74MOL   H17223678   8.256   2.923   8.267 -1.3916 -0.6831 -1.3279
   74MOL   H17323679   8.050   2.784   8.212 -0.0183  1.5517  0.2105
   74MOL   H17423680   8.061   2.601   0.161  1.2960 -2.0292 -0.6856
   74MOL   H17523681   8.269   2.747   0.214  2.6485  1.5176 -1.0433
   74MOL   H17623682   8.409   3.049   8.323 -0.4506 -0.2032  0.8217
   74MOL   H17723683   0.116   3.046   8.405  0.0882 -0.6574  2.2939
   74MOL   C17823684   0.089   2.867   8.290 -1.0628 -0.5829  0.0834
   74MOL   C17923685   0.136   2.908   8.150 -1.1128 -0.2986  0.1584
   74MOL   C18023686   0.264   2.974   8.127 -0.0953 -0.2038 -0.1129
   74MOL   C18123687   0.302   3.001   7.995  0.3320  0.2543 -0.1207
   74MOL   C18223688   0.224   2.968   7.882  0.3833  0.2186 -0.4920
   74MOL  Cl18323689   0.278   3.008   7.719  0.4011  0.0652  0.1397
   74MOL   C18423690   0.096   2.916   7.909  0.0700  0.6126  0.3239
   74MOL   C18523691   0.052   2.881   8.043 -0.7445 -0.2857 -0.0539
   74MOL   C18623692   0.184   2.780   8.362 -0.0088 -0.0361 -0.4472
   74MOL   H18723693   0.003   2.802   8.273 -0.5372 -1.0136 -0.9740
   74MOL   H18823694   0.322   3.001   8.214 -0.4113  0.0281  0.0277
   74MOL   H18923695   0.392   3.055   7.973  0.6589  0.0093  0.6274
   74MOL   H19023696   0.037   2.899   7.820  0.4465  1.4423 -0.0866
   74MOL   H19123697   8.395   2.844   8.058  0.0196 -2.0398  0.7895
   74MOL   H19223698   0.271   2.764   8.298 -2.2298 -0.2677 -3.5228
   74MOL   H19323699   0.212   2.839   0.006 -3.9988  0.8820  0.3022
   74MOL   C19423700   0.140   2.634   8.396 -0.1424  0.0893 -0.1807
   74MOL   C19523701   0.111   2.546   8.274  0.0095 -0.4180 -0.1650
   74MOL   C19623702   0.205   2.513   8.179  0.0813  0.1820 -0.1107
   74MOL   C19723703   0.162   2.439   8.060  0.1901 -0.4055 -0.2003
   74MOL   C19823704   0.026   2.404   8.045  0.0090 -0.2883  0.7701
   74MOL  Cl19923705   8.424   2.304   7.917  0.1853 -0.4542  0.2660
   74MOL   C20023706   8.372   2.447   8.139  0.4231 -0.3591  0.6205
   74MOL   C20123707   8.420   2.518   8.251 -0.3655  0.6463  0.2357
   74MOL   C20223708   0.254   2.570   0.040 -0.2281 -0.1797  0.1233
   74MOL   H20323709   0.048   2.640   0.011  1.6464  1.9034  2.5757
   74MOL   H20423710   0.310   2.530   8.197  0.1222 -0.2861  0.0913
   74MOL   H20523711   0.225   2.420   7.975  2.2641  0.1484  1.1582
   74MOL   H20623712   8.270   2.413   8.141  0.3367 -0.0768  1.2341
   74MOL   H20723713   8.336   2.541   8.315 -1.6620 -2.0782 -0.4122
   74MOL   H20823714   0.237   2.463   0.041  1.4851 -0.6126 -4.7444
   74MOL   H20923715   0.352   2.581   8.436 -0.3377  1.0675  0.1515
   74MOL   C21023716   0.269   2.607   0.182  0.2425 -0.5862 -0.0595
   74MOL   C21123717   0.139   2.604   0.257 -0.0770  0.0058  0.4604
   74MOL   C21223718   0.064   2.486   0.271  0.2497  0.2096 -0.7287
   74MOL   C21323719   8.389   2.485   0.344  0.7157 -0.1429  0.2356
   74MOL   C21423720   8.356   2.603   0.424  0.1506 -0.9423  0.5543
   74MOL  Cl21523721   8.216   2.602   0.517 -0.1817 -0.1150 -0.0146
   74MOL   C21623722   8.437   2.722   0.410 -0.1062 -0.2905 -0.1133
   74MOL   C21723723   0.102   2.722   0.322 -0.6510 -0.0846 -0.9674
   74MOL   C21823724   0.359   2.506   0.258  0.1591 -0.3768  0.7487
   74MOL   H21923725   0.309   2.708   0.195 -0.9047  0.0420 -1.2782
   74MOL   H22023726   0.085   2.390   0.225 -2.2013 -0.8266  0.2151
   74MOL   H22123727   8.335   2.391   0.342  0.8708 -0.2055 -1.5424
   74MOL   H22223728   8.417   2.817   0.457 -0.7937 -0.8435  0.7411
   74MOL   H22323729   0.163   2.811   0.313 -1.4419  0.3365 -2.2296
   74MOL   H22423730   0.296   2.420   0.283  1.3098 -1.1709  0.9354
   74MOL   H22523731   0.437   2.460   0.197 -0.0838  1.3936 -0.9650
   74MOL   C22623732   0.445   2.555   0.376 -0.4302  0.1448 -0.1639
   74MOL   C22723733   0.387   2.633   0.496  0.0373 -0.0734  0.5861
   74MOL   C22823734   0.457   2.737   0.557  0.3685  0.4124  0.4796
   74MOL   C22923735   0.396   2.819   0.651 -0.2783  0.2756 -0.2405
   74MOL   C23023736   0.264   2.784   0.692  0.4392 -0.6380 -0.0163
   74MOL  Cl23123737   0.199   2.883   0.817  0.0995 -0.2588 -0.3168
   74MOL   C23223738   0.198   2.675   0.638  0.4100  0.0602  0.8448
   74MOL   C23323739   0.258   2.598   0.538 -0.3012  0.1523 -0.3277
   74MOL   C23423740   0.561   2.469   0.424  0.0100 -0.1440 -0.1374
   74MOL   H23523741   0.507   2.633   0.331 -1.5023  2.4922  2.2965
   74MOL   H23623742   0.560   2.761   0.531  0.6536  1.0961  2.1824
   74MOL   H23723743   0.437   2.903   0.704  1.6693 -0.1691 -1.0028
   74MOL   H23823744   0.101   2.643   0.675  0.5003 -1.2864 -0.0295
   74MOL   H23923745   0.212   2.514   0.489 -1.8297  1.3265 -0.9169
   74MOL   H24023746   0.622   2.439   0.339  1.6155  0.7951  0.6309
   74MOL   H24123747   0.619   2.534   0.491 -0.0433  1.5655 -1.7171
   74MOL   C24223748   0.530   2.336   0.502  0.2455 -0.8282  0.6568
   74MOL   C24323749   0.436   2.240   0.421  0.3619  0.5458  0.3255
   74MOL   C24423750   0.475   2.180   0.299 -0.0710  0.2303  0.0145
   74MOL   C24523751   0.391   2.089   0.235  0.0842  0.1555  0.4610
   74MOL   C24623752   0.257   2.068   0.284 -0.0377 -0.3709  0.0997
   74MOL  Cl24723753   0.136   1.972   0.198 -0.0063 -0.2888 -0.1259
   74MOL   C24823754   0.217   2.124   0.411 -0.0416 -0.6824 -0.9129
   74MOL   C24923755   0.307   2.208   0.480 -0.8174 -0.8415 -0.2120
   74MOL   C25023756   0.655   2.254   0.541  0.0149  0.4072  0.3257
   74MOL   H25123757   0.474   2.356   0.593 -0.8325 -0.8972  0.0135
   74MOL   H25223758   0.572   2.197   0.255  0.0055 -0.6581 -0.1839
   74MOL   H25323759   0.430   2.029   0.155  2.1648 -1.1483  2.3677
   74MOL   H25423760   0.114   2.109   0.440  0.1406 -1.0697 -0.4704
   74MOL   H25523761   0.280   2.253   0.574  2.0795  1.7364 -0.5334
   74MOL   H25623762   0.619   2.152   0.552 -1.7254  0.9827  0.2427
   74MOL   H25723763   0.734   2.254   0.466 -0.3203 -1.9923 -0.0588
   74MOL   C25823764   0.717   2.295   0.677 -0.2494  0.6727  0.0921
   74MOL   C25923765   0.633   2.237   0.792 -0.8681 -0.2559  0.0055
   74MOL   C26023766   0.525   2.310   0.843  0.2579  0.1914 -0.0964
   74MOL   C26123767   0.443   2.261   0.940  0.2129  0.8027  0.1015
   74MOL   C26223768   0.468   2.130   0.991  0.2952  0.6852 -0.0367
   74MOL  Cl26323769   0.355   2.051   1.102  0.1588  0.0657 -0.2440
   74MOL   C26423770   0.578   2.061   0.946 -0.2229  0.3920 -0.5164
   74MOL   C26523771   0.663   2.109   0.846  0.4432  0.1072  0.1416
   74MOL   C26623772   0.871   2.263   0.693 -0.0594 -0.2271 -0.7077
   74MOL   H26723773   0.705   2.403   0.685 -0.7421  0.7111 -1.0244
   74MOL   H26823774   0.507   2.405   0.795  2.9489  0.3656 -0.8064
   74MOL   H26923775   0.362   2.321   0.979  0.4201  0.5164  0.9828
   74MOL   H27023776   0.597   1.963   0.987 -1.0594  1.7952  3.4489
   74MOL   H27123777   0.748   2.049   0.818  0.1427  0.7554 -2.2550
   74MOL   H27223778   0.891   2.156   0.689  1.7173  0.1164 -1.2625
   74MOL   H27323779   0.916   2.300   0.601  0.7977 -1.7909 -0.9389
   74MOL   C27423780   0.949   2.326   0.803  0.0356 -0.9593 -0.0568
   74MOL   C27523781   1.092   2.283   0.806 -0.3124  0.1087  0.2432
   74MOL   C27623782   1.194   2.335   0.718 -0.2233  0.0110  0.4687
   74MOL   C27723783   1.325   2.280   0.714  0.1368  0.1178  0.0060
   74MOL   C27823784   1.354   2.164   0.787 -0.3830  0.7448 -0.6949
   74MOL  Cl27923785   1.512   2.096   0.769 -0.0458  0.2684 -0.0858
   74MOL   C28023786   1.256   2.108   0.877  0.3845  0.4062 -1.2933
   74MOL   C28123787   1.135   2.172   0.886  0.0336  0.6021  0.0218
   74MOL   C28223788   0.928   2.477   0.816  0.0196  0.4129  0.0124
   74MOL   H28323789   0.908   2.276   0.891 -1.4701  0.1428 -0.1176
   74MOL   H28423790   1.157   2.403   0.643  2.8024  0.7530 -0.4276
   74MOL   H28523791   1.406   2.315   0.652 -0.5936  2.2877  0.2362
   74MOL   H28623792   1.269   2.017   0.934 -2.1665  1.9339  1.8906
   74MOL   H28723793   1.064   2.135   0.959 -1.3626  1.0469 -1.0982
   74MOL   H28823794   1.018   2.521   0.858 -0.5793  0.7828  0.9354
   74MOL   H28923795   0.925   2.529   0.720  0.5889  0.3672 -0.0273
   74MOL   C29023796   0.818   2.524   0.911  0.7419 -0.1192 -0.2664
   74MOL   C29123797   0.853   2.503   1.056 -0.2748 -0.1980  0.2013
   74MOL   C29223798   0.782   2.410   1.127 -0.9399  0.2235  0.2004
   74MOL   C29323799   0.822   2.379   1.259 -1.3341  0.0524 -0.3889
   74MOL   C29423800   0.924   2.445   1.322  0.0174  0.2165 -0.3076
   74MOL  Cl29523801   0.974   2.395   1.477  0.1162 -0.1373  0.0580
   74MOL   C29623802   0.989   2.555   1.258 -0.4088 -0.3932  1.2862
   74MOL   C29723803   0.957   2.578   1.125  0.2833 -0.2372  0.2951
   74MOL   C29823804   0.787   2.669   0.873  0.3677  0.5492 -0.3038
   74MOL   H29923805   0.726   2.467   0.898  0.3611  0.0931  1.4568
   74MOL   H30023806   0.705   2.352   1.078  0.5813 -0.8905 -0.9476
   74MOL   H30123807   0.777   2.296   1.311  0.0423 -1.4461 -1.5302
   74MOL   H30223808   1.081   2.596   1.298 -0.7418  1.2986  0.3518
   74MOL   H30323809   1.023   2.650   1.079  0.3958 -1.4230 -1.4476
   74MOL   H30423810   0.884   2.714   0.850  2.0953 -3.2022 -0.6776
   74MOL   H30523811   0.736   2.673   0.777 -0.1324 -0.2300 -0.0743
   74MOL   C30623812   0.711   2.754   0.985 -0.5197  0.5110  0.4572
   74MOL   C30723813   0.711   2.906   0.948  0.1464  0.2063 -0.4004
   74MOL   C30823814   0.728   2.998   1.054 -1.1726  0.0300  0.3269
   74MOL   C30923815   0.723   3.133   1.034  0.5727  0.2730 -0.2896
   74MOL   C31023816   0.718   3.178   0.902  0.3633  0.6807 -0.1811
   74MOL  Cl31123817   0.714   3.353   0.874 -0.0095 -0.3507 -0.4855
   74MOL   C31223818   0.717   3.096   0.790 -1.0233 -0.7394 -0.4610
   74MOL   C31323819   0.712   2.954   0.814 -0.8319 -0.3768 -0.8365
   74MOL   C31423820   0.571   2.703   1.003  0.2737  0.1174 -0.3193
   74MOL   H31523821   0.761   2.752   1.082  1.5936 -0.7685 -0.6112
   74MOL   H31623822   0.736   2.957   1.154 -0.9550  3.3883  1.7598
   74MOL   H31723823   0.730   3.198   1.120  2.5817 -2.3308  1.6004
   74MOL   H31823824   0.721   3.142   0.693 -2.3174  2.4276  0.9134
   74MOL   H31923825   0.697   2.882   0.734 -0.3615 -0.9295 -0.4320
   74MOL   H32023826   0.569   2.597   1.030  0.6682  0.0619 -0.5205
   74MOL   H32123827   0.513   2.762   1.074  1.3081  0.0083  0.6292
   74MOL   H32223828   0.520   2.705   0.907 -0.2857  0.8396 -0.0151
   75MOL     C123829   4.231   4.958   0.209  0.2053  0.4013 -0.3617
   75MOL     C223830   4.265   4.817   0.257 -0.3905 -0.3285  0.0602
   75MOL     C323831   4.399   4.776   0.255 -0.9952  0.0615 -0.9293
   75MOL     C423832   4.434   4.644   0.300 -0.1865 -0.2416  0.7181
   75MOL     C523833   4.337   4.563   0.365  0.6472  0.4779 -0.4538
   75MOL    Cl623834   4.386   4.420   0.452  0.1975  0.2890 -0.1015
   75MOL     C723835   4.202   4.605   0.365 -0.1113 -0.3710 -0.0001
   75MOL     C823836   4.166   4.732   0.317 -0.3296  0.6480  0.6021
   75MOL     C923837   4.084   4.993   0.171 -0.2327 -0.1369 -0.2292
   75MOL    H1023838   4.295   4.986   0.126  2.3402  0.9775  1.4077
   75MOL    H1123839   4.470   4.842   0.207  1.0351 -2.3086 -1.2567
   75MOL    H1223840   4.538   4.616   0.291  0.3610  1.0492  2.6378
   75MOL    H1323841   4.124   4.542   0.407  0.5326 -0.9252  0.3805
   75MOL    H1423842   4.063   4.765   0.321 -0.6113 -0.3293  1.5976
   75MOL    H1523843   4.048   4.907   0.114  2.7055 -1.5927 -0.0001
   75MOL    H1623844   4.015   4.976   0.254 -0.5351  1.5894 -0.1157
   75MOL    H1723845   4.284   5.008   0.291  0.8360 -1.1555  0.1936
   75MOL    C1823846   4.066   5.123   0.089  0.3951 -0.4723  0.5386
   75MOL    C1923847   4.147   5.125   8.400  0.0134  0.5651  0.4851
   75MOL    C2023848   4.209   5.245   8.353  0.8093 -0.5180  0.0213
   75MOL    C2123849   4.259   5.255   8.226 -0.2032 -0.1647 -0.1148
   75MOL    C2223850   4.256   5.146   8.140  0.4695 -0.7494  0.2706
   75MOL   Cl2323851   4.305   5.175   7.977  0.2070  0.5528  0.0586
   75MOL    C2423852   4.197   5.024   8.180  0.0969 -0.7804  0.3677
   75MOL    C2523853   4.140   5.017   8.305  0.4103  0.3687  0.2576
   75MOL    C2623854   3.917   5.162   0.067 -0.0137  0.7813  0.8315
   75MOL    H2723855   4.099   5.202   0.157  0.5801  0.6792 -0.8832
   75MOL    H2823856   4.209   5.334   8.415 -0.5255 -0.3413 -0.1986
   75MOL    H2923857   4.291   5.353   8.192  0.6512 -0.1692  0.6620
   75MOL    H3023858   4.183   4.932   8.124 -1.4487 -1.0019  1.1076
   75MOL    H3123859   4.104   4.923   8.345 -1.1916  0.9765  0.2858
   75MOL    H3223860   3.920   5.258   0.014 -0.9091  1.0429  1.2431
   75MOL    H3323861   3.890   5.094   8.430 -0.4903 -1.3610  2.7598
   75MOL    C3423862   3.808   5.169   0.178  0.0223  0.8111  0.1517
   75MOL    C3523863   3.746   5.310   0.184 -0.1559 -0.4825 -0.5615
   75MOL    C3623864   3.625   5.338   0.115  0.5396  0.2389 -0.5990
   75MOL    C3723865   3.570   5.466   0.120 -0.2195 -0.5050 -1.2522
   75MOL    C3823866   3.632   5.569   0.201  0.6377 -0.4458 -0.2495
   75MOL   Cl3923867   3.563   5.730   0.208  0.2855 -0.3905  0.1717
   75MOL    C4023868   3.757   5.544   0.262  0.2418  0.4693  0.6187
   75MOL    C4123869   3.815   5.413   0.248 -0.2428 -0.3314 -0.1327
   75MOL    C4223870   3.691   5.059   0.167  0.1354  0.1773 -0.5086
   75MOL    H4323871   3.861   5.166   0.273  0.5437  0.9154 -0.1336
   75MOL    H4423872   3.581   5.262   0.053 -0.0587  0.2540 -0.1899
   75MOL    H4523873   3.476   5.499   0.079  0.0350  2.1858  0.2165
   75MOL    H4623874   3.819   5.609   0.321  1.4927  0.3408 -0.5318
   75MOL    H4723875   3.914   5.395   0.288  0.7095  0.5313 -2.0213
   75MOL    H4823876   3.607   5.098   0.225 -0.3306  0.0419 -1.0938
   75MOL    H4923877   3.661   5.076   0.064 -1.5506 -1.8295 -0.3803
   75MOL    C5023878   3.726   4.916   0.204  0.4189  0.2850 -0.6255
   75MOL    C5123879   3.735   4.882   0.356 -0.0226 -0.1528 -0.5807
   75MOL    C5223880   3.653   4.938   0.458  0.0691 -0.9162  0.0142
   75MOL    C5323881   3.650   4.878   0.588  0.1413 -0.7200  0.2815
   75MOL    C5423882   3.731   4.770   0.615  0.0506  0.5039  0.0364
   75MOL   Cl5523883   3.721   4.700   0.773 -0.3779  0.1722 -0.3471
   75MOL    C5623884   3.821   4.720   0.521 -0.4771 -0.0850  0.0414
   75MOL    C5723885   3.810   4.765   0.387  0.0152 -0.9126  0.2201
   75MOL    C5823886   3.633   4.815   0.131  0.2080 -0.3826  0.3272
   75MOL    H5923887   3.827   4.904   0.165  0.3820 -1.8667 -0.1112
   75MOL    H6023888   3.586   5.021   0.442  2.2250  0.7432 -0.6615
   75MOL    H6123889   3.574   4.910   0.658 -0.5529  1.3424 -1.3868
   75MOL    H6223890   3.878   4.635   0.557  0.5454  0.5504 -0.0602
   75MOL    H6323891   3.862   4.705   0.313 -3.2837 -0.1462 -2.8705
   75MOL    H6423892   3.595   4.744   0.204 -1.0183  0.3319  0.4027
   75MOL    H6523893   3.549   4.878   0.101  0.1059 -1.9491 -2.9254
   75MOL    C6623894   3.690   4.747   0.002  0.6352 -0.8580 -0.2387
   75MOL    C6723895   3.792   4.642   0.048  0.3682 -0.2354 -0.2324
   75MOL    C6823896   3.746   4.528   0.126 -0.1003 -0.4309 -0.3274
   75MOL    C6923897   3.834   4.431   0.173 -0.4731  0.2360  0.3271
   75MOL    C7023898   3.968   4.443   0.131 -0.3432 -0.0035  0.0206
   75MOL   Cl7123899   4.083   4.314   0.148  0.1657  0.3595  0.0281
   75MOL    C7223900   4.012   4.550   0.052 -0.3114 -1.0148 -0.2741
   75MOL    C7323901   3.927   4.650   0.010 -0.4971 -0.2792  0.6181
   75MOL    C7423902   3.575   4.686   8.353  0.3839  0.0279 -1.0662
   75MOL    H7523903   3.747   4.822   8.391  1.2108 -1.2190 -0.1480
   75MOL    H7623904   3.642   4.515   0.150 -0.4042 -0.4511 -1.6318
   75MOL    H7723905   3.786   4.350   0.225 -1.6482  0.8495  0.2237
   75MOL    H7823906   4.116   4.546   0.024  0.1822 -0.7389  1.4167
   75MOL    H7923907   3.965   4.723   8.382  1.0206  0.5112  2.2142
   75MOL    H8023908   3.519   4.612   8.409  1.2927  1.1244  1.4015
   75MOL    H8123909   3.504   4.760   8.316 -1.3164 -0.4479  1.1609
   75MOL    C8223910   3.628   4.614   8.233 -0.9240 -0.7285 -1.0730
   75MOL    C8323911   3.518   4.534   8.172 -0.6681  0.1746  0.2803
   75MOL    C8423912   3.519   4.396   8.167  0.6788 -0.2511  0.0241
   75MOL    C8523913   3.423   4.312   8.105 -0.6853 -0.1352 -0.3922
   75MOL    C8623914   3.313   4.373   8.044 -0.4133 -0.5359  0.2240
   75MOL   Cl8723915   3.205   4.269   7.963  0.2496  0.1979  0.2909
   75MOL    C8823916   3.304   4.514   8.045 -0.6110 -0.1160  0.3769
   75MOL    C8923917   3.404   4.590   8.111 -0.9205  0.7632 -0.6711
   75MOL    C9023918   3.693   4.708   8.136  0.1480  1.1272  0.9064
   75MOL    H9123919   3.704   4.548   8.276 -0.1275  2.2231  2.2963
   75MOL    H9223920   3.594   4.351   8.230  0.7406  1.1989  1.0064
   75MOL    H9323921   3.434   4.205   8.107 -0.9925 -0.2144 -2.5818
   75MOL    H9423922   3.219   4.567   8.005 -0.4124 -0.1803 -0.1436
   75MOL    H9523923   3.410   4.698   8.112 -0.1834  0.7237 -0.9200
   75MOL    H9623924   3.614   4.770   8.092 -0.8484  0.1822  1.3259
   75MOL    H9723925   3.755   4.782   8.186  1.9050 -0.7997  1.6483
   75MOL    C9823926   3.788   4.640   8.031  0.2199 -0.5785 -0.4000
   75MOL    C9923927   3.828   4.750   7.936 -0.1984 -0.5275 -0.3213
   75MOL   C10023928   3.787   4.746   7.804  0.3925 -0.2305 -1.0341
   75MOL   C10123929   3.831   4.836   7.705  0.2464  0.0939  0.3692
   75MOL   C10223930   3.905   4.953   7.747 -0.0009 -0.4680  0.4759
   75MOL  Cl10323931   3.960   5.061   7.625 -0.0114  0.3003 -0.2077
   75MOL   C10423932   3.948   4.961   7.880  0.3079 -0.0512  0.2364
   75MOL   C10523933   3.910   4.861   7.970 -0.8740 -0.2327 -0.4056
   75MOL   C10623934   3.903   4.564   8.090  0.4710 -0.6012 -1.0695
   75MOL   H10723935   3.723   4.570   7.979 -0.6488  0.8113 -1.2474
   75MOL   H10823936   3.730   4.664   7.764  3.3435 -2.4237 -0.9261
   75MOL   H10923937   3.802   4.824   7.602  0.3921 -1.1694  0.4714
   75MOL   H11023938   3.999   5.043   7.929  1.0488  0.8779 -1.9960
   75MOL   H11123939   3.947   4.870   8.071 -0.4647  2.5032 -0.7656
   75MOL   H11223940   3.950   4.633   8.161  1.8830 -0.9212 -1.6683
   75MOL   H11323941   3.862   4.486   8.154  1.1304  0.5895  0.8690
   75MOL   C11423942   4.002   4.492   8.000  0.1093 -0.0648  0.2054
   75MOL   C11523943   4.121   4.583   7.968  0.6833 -0.0883 -0.0481
   75MOL   C11623944   4.129   4.636   7.841 -0.4524  0.3767  0.1738
   75MOL   C11723945   4.225   4.726   7.812  0.7747 -0.2237  0.0946
   75MOL   C11823946   4.324   4.755   7.909 -0.4029 -0.1969 -0.2256
   75MOL  Cl11923947   4.426   4.886   7.879 -0.6514 -0.1594 -0.3237
   75MOL   C12023948   4.328   4.688   8.034 -0.5355 -0.8194 -0.2735
   75MOL   C12123949   4.223   4.600   8.064  0.0282  0.5352  0.2935
   75MOL   C12223950   4.048   4.347   8.061 -0.2259 -0.2123  0.2942
   75MOL   H12323951   3.936   4.460   7.920  0.5432  0.9214 -0.5572
   75MOL   H12423952   4.051   4.620   7.768  0.3016  1.0102 -0.7969
   75MOL   H12523953   4.217   4.785   7.722  1.5286 -0.2240  0.0282
   75MOL   H12623954   4.408   4.710   8.102 -2.6002  0.5380  1.7792
   75MOL   H12723955   4.216   4.558   8.163  0.9272 -0.6413 -0.1384
   75MOL   H12823956   4.128   4.315   7.994 -1.5943 -0.8052 -1.1033
   75MOL   H12923957   4.104   4.369   8.152  2.4454 -0.6534 -1.1934
   75MOL   C13023958   3.940   4.232   8.075  0.1744  0.2954  0.1634
   75MOL   C13123959   3.845   4.204   7.966  0.2493 -0.0663 -0.1628
   75MOL   C13223960   3.712   4.148   7.990 -0.0858 -0.0287  0.5440
   75MOL   C13323961   3.626   4.120   7.882 -0.0423 -0.2131 -0.4737
   75MOL   C13423962   3.672   4.139   7.752 -0.3716  0.0201  0.6101
   75MOL  Cl13523963   3.560   4.112   7.630 -0.1403  0.0219 -0.0721
   75MOL   C13623964   3.806   4.172   7.721 -0.2329  0.0735 -0.8842
   75MOL   C13723965   3.890   4.216   7.829 -0.1886 -0.4231 -0.2412
   75MOL   C13823966   4.026   4.105   8.106  0.7471 -0.0051 -0.4194
   75MOL   H13923967   3.872   4.258   8.155  0.2805 -0.3441  0.4665
   75MOL   H14023968   3.671   4.147   8.090 -0.0059 -1.0739  0.5731
   75MOL   H14123969   3.522   4.096   7.897 -0.2679  1.3886  0.6591
   75MOL   H14223970   3.834   4.193   7.619 -0.5983 -0.1190 -1.0245
   75MOL   H14323971   3.986   4.263   7.817 -1.4062  2.3119  0.3061
   75MOL   H14423972   3.995   4.018   8.049  2.3002 -1.4505  0.9130
   75MOL   H14523973   4.126   4.123   8.066  2.2333  0.0043  3.1777
   75MOL   C14623974   4.041   4.059   8.250  0.2881 -0.2539 -0.0072
   75MOL   C14723975   3.904   4.020   8.306 -0.5124 -0.5404 -0.2436
   75MOL   C14823976   3.847   4.106   8.406  1.0946 -0.8262  0.0987
   75MOL   C14923977   3.715   4.070   0.017 -0.2666 -0.1137  0.2094
   75MOL   C15023978   3.659   3.946   8.427 -0.1793  0.2276 -0.1341
   75MOL  Cl15123979   3.510   3.891   0.064  0.3023  0.1899  0.0025
   75MOL   C15223980   3.721   3.854   8.332 -0.6961  0.0970  0.1691
   75MOL   C15323981   3.842   3.899   8.269  0.1727 -0.0598  0.0236
   75MOL   C15423982   4.144   3.947   8.267 -0.1668 -0.3102 -0.2321
   75MOL   H15523983   4.071   4.146   8.307 -0.4460  0.1808 -0.2775
   75MOL   H15623984   3.903   4.196   8.425  0.6091 -0.5668  0.2960
   75MOL   H15723985   3.665   4.140   0.081 -0.5851 -1.1991  1.1486
   75MOL   H15823986   3.664   3.768   8.300 -0.2670 -0.4954  0.9980
   75MOL   H15923987   3.880   3.845   8.184 -2.0468 -2.5075  0.5356
   75MOL   H16023988   4.131   3.899   8.364 -2.5889  0.5648 -0.1028
   75MOL   H16123989   4.131   3.878   8.184  0.4755 -2.1187  1.1356
   75MOL   C16223990   4.283   4.013   8.261  0.4476  0.1265  0.5498
   75MOL   C16323991   4.334   4.029   8.399 -0.6714  0.2265 -0.5420
   75MOL   C16423992   4.380   3.915   0.033  1.3553  0.0330 -0.2389
   75MOL   C16523993   4.421   3.929   0.166  0.5845  0.4168  0.4018
   75MOL   C16623994   4.421   4.055   0.231 -0.1905  0.2971  0.5168
   75MOL  Cl16723995   4.476   4.070   0.395  0.1617  0.6003  0.0656
   75MOL   C16823996   4.375   4.162   0.157  0.2677 -0.3729  0.0621
   75MOL   C16923997   4.335   4.154   0.023  0.0442  0.4613  0.2221
   75MOL   C17023998   4.388   3.949   8.175  0.3495  0.4654 -1.0096
   75MOL   H17123999   4.274   4.114   8.220  1.0681 -0.4576 -1.0855
   75MOL   H17224000   4.364   3.822   8.424  0.0257 -0.1158  0.4056
   75MOL   H17324001   4.445   3.846   0.231 -1.3090  1.9426  3.2044
   75MOL   H17424002   4.366   4.259   0.202  0.3546  0.8970 -2.5915
   75MOL   H17524003   4.304   4.244   8.415 -1.3588 -0.3138 -0.3108
   75MOL   H17624004   4.490   3.972   8.206  0.1457  0.9842 -0.7120
   75MOL   H17724005   4.374   3.841   8.184 -0.7564  0.6671 -0.2327
   75MOL   C17824006   4.385   3.985   8.024 -0.5323 -0.0838 -0.3496
   75MOL   C17924007   4.433   4.124   8.000 -0.8100 -0.1572  0.2281
   75MOL   C18024008   4.557   4.173   8.055  0.2533 -0.3356 -0.0001
   75MOL   C18124009   4.604   4.299   7.998 -0.1755 -0.2442 -0.7799
   75MOL   C18224010   4.531   4.367   7.897 -0.6704 -0.7156 -0.6477
   75MOL  Cl18324011   4.598   4.505   7.828  0.5115  0.1290  0.2537
   75MOL   C18424012   4.415   4.310   7.839  0.2987  0.8518 -0.8053
   75MOL   C18524013   4.368   4.187   7.891 -0.4374  0.3683 -0.0953
   75MOL   C18624014   4.469   3.883   7.937  0.1265 -0.0123  0.3892
   75MOL   H18724015   4.284   3.976   7.984  0.1142  1.4655 -2.4413
   75MOL   H18824016   4.618   4.116   8.123 -0.6979 -0.6377  0.6073
   75MOL   H18924017   4.699   4.340   8.028 -0.5152 -1.8587  2.6699
   75MOL   H19024018   4.361   4.358   7.759 -1.2580 -1.1206 -0.9733
   75MOL   H19124019   4.278   4.144   7.849 -1.3906  3.0279 -0.8881
   75MOL   H19224020   4.482   3.927   7.838  0.6257 -1.0293 -0.0103
   75MOL   H19324021   4.570   3.876   7.978  0.8921 -1.0865 -1.6312
   75MOL   C19424022   4.412   3.744   7.907 -0.6895  0.8243 -0.6710
   75MOL   C19524023   4.281   3.755   7.828 -0.4786  0.1262 -0.2017
   75MOL   C19624024   4.163   3.686   7.866  0.3286 -0.6357  0.3897
   75MOL   C19724025   4.039   3.721   7.807 -0.2035 -0.4184 -0.1248
   75MOL   C19824026   4.031   3.805   7.697 -0.5073  0.7715 -0.3169
   75MOL  Cl19924027   3.876   3.835   7.626  0.2350 -0.0174  0.2289
   75MOL   C20024028   4.151   3.868   7.655 -0.6755 -0.6789 -0.8600
   75MOL   C20124029   4.273   3.841   7.718 -0.4157  0.5637 -0.3972
   75MOL   C20224030   4.507   3.642   7.839  0.8558 -0.0115  0.1926
   75MOL   H20324031   4.371   3.706   8.001  0.6521 -0.3238 -0.5319
   75MOL   H20424032   4.163   3.611   7.944  0.3851 -1.9783 -0.8858
   75MOL   H20524033   3.949   3.676   7.847  0.6669 -1.9681  0.1227
   75MOL   H20624034   4.162   3.938   7.573  0.5096  1.2516  0.9067
   75MOL   H20724035   4.360   3.890   7.678  1.6972 -1.3846  1.7262
   75MOL   H20824036   4.459   3.547   7.816  0.4158  0.1750  0.3233
   75MOL   H20924037   4.533   3.690   7.744 -0.8233  2.0564  0.7142
   75MOL   C21024038   4.641   3.611   7.919  0.8551  0.3573  0.1836
   75MOL   C21124039   4.614   3.562   8.059 -0.0667  0.4985 -0.0031
   75MOL   C21224040   4.703   3.599   8.167 -0.0041  0.3683 -0.0974
   75MOL   C21324041   4.662   3.564   8.301 -0.1132 -0.5827 -0.5141
   75MOL   C21424042   4.546   3.492   8.327  0.8433  0.0141  0.5983
   75MOL  Cl21524043   4.509   3.450   0.043 -0.1869  0.3669 -0.0762
   75MOL   C21624044   4.473   3.449   8.217 -0.4671  0.0053 -0.1458
   75MOL   C21724045   4.499   3.490   8.090  0.5716  0.0797  0.0325
   75MOL   C21824046   4.730   3.511   7.831 -0.6252 -0.2296  0.1505
   75MOL   H21924047   4.706   3.700   7.922  2.5787 -0.8314 -0.8532
   75MOL   H22024048   4.798   3.648   8.154  0.7515  0.4114  4.5182
   75MOL   H22124049   4.715   3.599   8.389 -2.5385  0.9445  0.3856
   75MOL   H22224050   4.381   3.395   8.233 -0.2252 -0.2978  0.2137
   75MOL   H22324051   4.435   3.454   8.011 -0.2826  2.3908 -0.3716
   75MOL   H22424052   4.685   3.412   7.827 -1.3116  0.1215 -0.9282
   75MOL   H22524053   4.733   3.540   7.726  1.3341 -1.2333 -0.0954
   75MOL   C22624054   4.880   3.493   7.872  0.4029  0.3753  0.1239
   75MOL   C22724055   4.938   3.395   7.762 -0.6057 -0.6126 -0.4033
   75MOL   C22824056   4.972   3.439   7.632  0.0611  0.6988  0.0481
   75MOL   C22924057   5.048   3.360   7.540 -0.5957 -0.0205 -0.2588
   75MOL   C23024058   5.065   3.227   7.567 -0.1399  0.5802 -0.3739
   75MOL  Cl23124059   5.128   3.120   7.451 -0.2896 -0.2133 -0.0340
   75MOL   C23224060   5.030   3.176   7.699  0.4531 -0.1969 -0.1135
   75MOL   C23324061   4.969   3.259   7.794 -0.5069  0.1300 -0.3490
   75MOL   C23424062   4.961   3.623   7.876  0.7770  0.4504  0.0912
   75MOL   H23524063   4.880   3.443   7.969 -1.4418  0.3461  0.1238
   75MOL   H23624064   4.948   3.538   7.595  0.5014 -0.2553 -2.9431
   75MOL   H23724065   5.064   3.401   7.441  0.6821 -1.4311 -0.6398
   75MOL   H23824066   5.039   3.073   7.730 -0.0816 -0.3458 -0.4577
   75MOL   H23924067   4.940   3.222   7.891 -3.3039 -2.8871 -2.1967
   75MOL   H24024068   4.922   3.693   7.802  1.7280  1.6666  0.7270
   75MOL   H24124069   4.948   3.673   7.971 -0.8045  0.2205  0.0213
   75MOL   C24224070   5.114   3.613   7.867  0.4493 -0.6536 -0.6390
   75MOL   C24324071   5.180   3.751   7.899 -0.1899  0.6885  0.1736
   75MOL   C24424072   5.158   3.806   8.026 -0.3382 -0.4208  0.6920
   75MOL   C24524073   5.221   3.931   8.063  0.1667  0.6064  0.2235
   75MOL   C24624074   5.321   3.982   7.974 -0.0668  0.0135 -0.0878
   75MOL  Cl24724075   5.397   4.129   8.020 -0.1925  0.0438  0.1876
   75MOL   C24824076   5.358   3.915   7.855 -0.3593  0.2623 -0.3891
   75MOL   C24924077   5.280   3.806   7.813  0.0355 -0.1259 -0.0341
   75MOL   C25024078   5.186   3.509   7.958 -0.0293 -0.1514 -0.5725
   75MOL   H25124079   5.135   3.595   7.762  0.5309  0.4796 -0.8282
   75MOL   H25224080   5.090   3.760   8.096  2.5887 -3.0962  1.8643
   75MOL   H25324081   5.206   3.977   8.159  1.0078 -0.3212  0.8062
   75MOL   H25424082   5.442   3.943   7.793 -0.4658  0.2606 -0.5368
   75MOL   H25524083   5.309   3.757   7.721 -1.8633  0.3105 -0.9002
   75MOL   H25624084   5.170   3.539   8.062  0.9294 -1.4226 -0.0393
   75MOL   H25724085   5.133   3.417   7.934 -1.8608  0.9112 -0.6863
   75MOL   C25824086   5.338   3.482   7.919  0.7331  0.1926 -0.3468
   75MOL   C25924087   5.423   3.424   8.035  0.7435  0.0358  0.1697
   75MOL   C26024088   5.499   3.507   8.117 -0.2509 -0.5231  0.0048
   75MOL   C26124089   5.557   3.458   8.235 -0.0462  0.5255  0.1584
   75MOL   C26224090   5.537   3.326   8.276  0.3299 -0.5890  0.0526
   75MOL  Cl26324091   5.615   3.270   8.419  0.5060  0.0133 -0.0204
   75MOL   C26424092   5.469   3.239   8.185 -0.5298 -0.2428  0.4807
   75MOL   C26524093   5.409   3.285   8.065  0.0978  0.2020 -0.7190
   75MOL   C26624094   5.343   3.400   7.781  0.2231  0.2590 -0.0618
   75MOL   H26724095   5.373   3.584   7.903 -0.1185  0.8632  1.9583
   75MOL   H26824096   5.507   3.612   8.095 -2.1116 -0.0876  1.3051
   75MOL   H26924097   5.624   3.522   8.292  1.1435 -0.7431  0.2193
   75MOL   H27024098   5.464   3.136   8.217 -0.8869  0.6545  3.4394
   75MOL   H27124099   5.346   3.228   7.999  1.4890 -0.2481 -1.6902
   75MOL   H27224100   5.295   3.303   7.792 -1.4461  1.0247 -0.3910
   75MOL   H27324101   5.269   3.446   7.714 -0.3251 -0.7116 -0.1269
   75MOL   C27424102   5.475   3.403   7.699 -0.1639  0.2097 -0.1366
   75MOL   C27524103   5.532   3.544   7.662 -0.0795  0.3703  0.1639
   75MOL   C27624104   5.492   3.608   7.540 -0.8381 -0.0607  0.0477
   75MOL   C27724105   5.543   3.738   7.521  0.2000  0.1247  0.7199
   75MOL   C27824106   5.632   3.804   7.610 -0.3530 -0.1291 -0.1885
   75MOL  Cl27924107   5.705   3.957   7.563 -0.0354 -0.2598 -0.0037
   75MOL   C28024108   5.668   3.740   7.728  0.5960  0.4099  0.5144
   75MOL   C28124109   5.619   3.612   7.754  0.6739  0.0375 -0.7522
   75MOL   C28224110   5.587   3.301   7.741 -0.1113  0.0224  0.2007
   75MOL   H28324111   5.443   3.365   7.602  0.8651  0.0879 -0.4274
   75MOL   H28424112   5.424   3.560   7.471 -0.5205 -1.0208  0.3889
   75MOL   H28524113   5.521   3.776   7.423  2.3327 -0.0298  0.1490
   75MOL   H28624114   5.732   3.793   7.797  2.3167  1.0188 -1.4799
   75MOL   H28724115   5.650   3.566   7.847 -0.1790  0.5348 -0.2133
   75MOL   H28824116   5.643   3.338   7.828  0.1005  0.9116 -0.3119
   75MOL   H28924117   5.544   3.209   7.783  0.3243 -0.9842 -1.5311
   75MOL   C29024118   5.692   3.263   7.634  0.6172  0.2484 -0.0708
   75MOL   C29124119   5.832   3.239   7.696 -0.3965  0.8332 -0.2534
   75MOL   C29224120   5.915   3.354   7.714 -0.0881 -0.0175 -0.7771
   75MOL   C29324121   6.037   3.350   7.780 -0.4407  0.2697 -0.3147
   75MOL   C29424122   6.072   3.229   7.840 -0.2408  0.5671 -1.0360
   75MOL  Cl29524123   6.219   3.229   7.929 -0.0011  0.2160  0.3152
   75MOL   C29624124   5.992   3.118   7.822 -0.1434 -0.1973 -0.3733
   75MOL   C29724125   5.870   3.118   7.752  0.0702  0.1655  0.5558
   75MOL   C29824126   5.639   3.137   7.555 -0.1820  0.3664  0.1849
   75MOL   H29924127   5.698   3.342   7.560 -1.5482 -1.5840 -2.2970
   75MOL   H30024128   5.869   3.445   7.678  1.0256  1.4244  1.3810
   75MOL   H30124129   6.093   3.441   7.794  0.2386 -0.4517  1.8697
   75MOL   H30224130   6.012   3.026   7.874  0.4508 -0.0924 -0.4148
   75MOL   H30324131   5.813   3.028   7.740  1.9450 -1.5292  3.7943
   75MOL   H30424132   5.631   3.055   7.627  2.5583  0.8637  1.1240
   75MOL   H30524133   5.542   3.164   7.515 -0.3677  4.4857  3.1535
   75MOL   C30624134   5.736   3.084   7.446  0.2564  0.3136  0.2528
   75MOL   C30724135   5.706   2.935   7.424 -0.6447  0.0192 -0.0062
   75MOL   C30824136   5.584   2.899   7.366 -0.0272  0.0291  0.1209
   75MOL   C30924137   5.549   2.763   7.376  0.5971  0.0184  0.0220
   75MOL   C31024138   5.626   2.666   7.439 -0.5583  0.9920  0.2562
   75MOL  Cl31124139   5.563   2.506   7.451  0.0730 -0.0768  0.3009
   75MOL   C31224140   5.751   2.705   7.490 -0.1638  0.1643  0.2307
   75MOL   C31324141   5.790   2.839   7.481 -0.2735  0.1426  0.3643
   75MOL   C31424142   5.740   3.167   7.312 -0.4961 -0.4487  0.0147
   75MOL   H31524143   5.835   3.089   7.491  0.5470 -0.5113 -0.2789
   75MOL   H31624144   5.507   2.965   7.330 -0.4022 -0.6627 -0.3575
   75MOL   H31724145   5.457   2.729   7.333  1.9993 -1.5839 -1.7953
   75MOL   H31824146   5.818   2.632   7.532  1.3552  0.9343 -0.8099
   75MOL   H31924147   5.886   2.869   7.520 -0.4362  0.7175  0.3140
   75MOL   H32024148   5.642   3.195   7.274  0.4125  2.1190 -0.4741
   75MOL   H32124149   5.797   3.258   7.332  0.3477 -0.9041 -0.2682
   75MOL   H32224150   5.792   3.106   7.238  0.9890  2.5792 -1.5197
   76MOL     C124151   5.182   1.379   7.883  0.1914  0.0221  0.5672
   76MOL     C224152   5.110   1.364   7.756 -0.0701 -0.1809  0.3653
   76MOL     C324153   5.125   1.451   7.646 -0.5022  0.1436  0.1176
   76MOL     C424154   5.059   1.420   7.523 -0.8258 -0.0154  0.6403
   76MOL     C524155   4.967   1.314   7.512 -0.1729  0.3566 -0.4757
   76MOL    Cl624156   4.848   1.313   7.382  0.1854 -0.0035  0.2966
   76MOL     C724157   4.950   1.225   7.625 -0.0196  0.4191 -0.6707
   76MOL     C824158   5.023   1.252   7.744  0.5622  0.4617  0.8725
   76MOL     C924159   5.127   1.454   7.997  0.1850 -0.6212 -0.3335
   76MOL    H1024160   5.282   1.413   7.858 -0.3621  1.0940 -0.2318
   76MOL    H1124161   5.194   1.533   7.662 -0.3348 -0.2264  1.3354
   76MOL    H1224162   5.064   1.492   7.443  2.6601 -1.3485 -0.4207
   76MOL    H1324163   4.877   1.144   7.626 -1.0507  1.3389 -0.2453
   76MOL    H1424164   5.023   1.184   7.827  3.3969  1.5411  1.8036
   76MOL    H1524165   5.199   1.494   8.068 -1.0251  1.2262 -0.1204
   76MOL    H1624166   5.093   1.555   7.974  0.4019 -0.4935 -0.1016
   76MOL    H1724167   5.209   1.277   7.913  0.7710 -0.2690 -0.9249
   76MOL    C1824168   5.001   1.385   8.068  0.6958  0.3544 -0.0914
   76MOL    C1924169   5.040   1.261   8.143 -0.0941 -0.8526 -0.4184
   76MOL    C2024170   5.174   1.228   8.188 -0.2479 -0.2624 -0.2713
   76MOL    C2124171   5.189   1.106   8.260  0.2875 -0.8170  0.4996
   76MOL    C2224172   5.081   1.023   8.288  0.3768  0.6412 -0.3423
   76MOL   Cl2324173   5.109   0.878   8.382 -0.1253  0.3360 -0.0828
   76MOL    C2424174   4.948   1.060   8.251 -0.6794 -0.0227  0.6770
   76MOL    C2524175   4.932   1.178   8.177 -0.5066  0.1313  0.6577
   76MOL    C2624176   4.919   1.478   8.165  0.3610  0.0713 -0.3218
   76MOL    H2724177   4.939   1.343   7.988  1.9430 -1.5095 -0.1129
   76MOL    H2824178   5.255   1.286   8.145  0.0233 -0.7576 -0.4352
   76MOL    H2924179   5.285   1.072   8.296  0.8476 -0.0191 -0.2215
   76MOL    H3024180   4.862   1.004   8.284 -1.4455  1.0763  0.5552
   76MOL    H3124181   4.830   1.209   8.158 -0.7270 -0.3732  1.0019
   76MOL    H3224182   4.882   1.555   8.097  2.4596  1.5949  0.2109
   76MOL    H3324183   4.833   1.420   8.198  1.8399 -0.9416  1.9276
   76MOL    C3424184   4.991   1.523   8.297 -0.6648 -0.4405  0.2291
   76MOL    C3524185   4.961   1.665   8.328  0.7852  0.2160 -0.1085
   76MOL    C3624186   5.062   1.761   8.306 -0.7410 -1.1264 -0.8261
   76MOL    C3724187   5.045   1.899   8.340  0.7963  0.3896  0.2443
   76MOL    C3824188   4.922   1.929   8.410 -0.0138  0.2667  0.1626
   76MOL   Cl3924189   4.903   2.082   0.040  0.0187  0.1517 -0.0046
   76MOL    C4024190   4.827   1.827   8.436  0.1019 -0.3007  0.8716
   76MOL    C4124191   4.834   1.703   8.384  0.1626  0.5028  0.1213
   76MOL    C4224192   4.962   1.430   8.419  0.5570  0.1725  0.2893
   76MOL    H4324193   5.097   1.516   8.277 -0.1157  0.0161  2.8239
   76MOL    H4424194   5.160   1.730   8.271 -1.5361 -1.4504 -2.8198
   76MOL    H4524195   5.126   1.970   8.323  2.4260 -0.9128  2.3802
   76MOL    H4624196   4.734   1.854   0.042 -0.4437 -0.3777 -0.1003
   76MOL    H4724197   4.758   1.628   8.397  2.3148 -2.2259 -2.2549
   76MOL    H4824198   4.859   1.447   0.006  1.1162  2.3660  1.1360
   76MOL    H4924199   4.973   1.330   8.377  0.5155 -1.0575  3.0564
   76MOL    C5024200   5.062   1.445   0.097 -0.2036  0.4575 -0.2277
   76MOL    C5124201   5.006   1.373   0.218  0.7983 -0.2239  0.0777
   76MOL    C5224202   5.001   1.231   0.211  0.3027  0.4304  0.0308
   76MOL    C5324203   4.974   1.153   0.326  0.0074  0.6253 -0.0497
   76MOL    C5424204   4.944   1.225   0.449 -0.3952 -0.6562 -0.2571
   76MOL   Cl5524205   4.912   1.139   0.595 -0.2425  0.0119  0.1370
   76MOL    C5624206   4.932   1.365   0.453 -0.1522  0.6185  0.5793
   76MOL    C5724207   4.973   1.439   0.340 -0.5342  0.7799  0.1613
   76MOL    C5824208   5.210   1.406   0.063  0.0047 -0.3192 -0.0765
   76MOL    H5924209   5.063   1.548   0.135  1.4645 -0.4391  2.3233
   76MOL    H6024210   5.039   1.182   0.123 -0.4872 -0.9060  0.4185
   76MOL    H6124211   4.987   1.046   0.315 -0.7355  0.6239 -0.9052
   76MOL    H6224212   4.920   1.422   0.544 -2.8258  2.3285 -0.7905
   76MOL    H6324213   4.971   1.547   0.344 -1.9047  0.7744 -0.1171
   76MOL    H6424214   5.201   1.315   0.003 -2.0436  0.1658 -0.5496
   76MOL    H6524215   5.254   1.473   8.432 -0.8590 -1.0716 -1.2899
   76MOL    C6624216   5.306   1.374   0.177 -0.1435 -0.0818  0.0679
   76MOL    C6724217   5.430   1.291   0.142 -0.4235  0.3199 -0.5241
   76MOL    C6824218   5.434   1.157   0.187 -0.3478  0.1492  0.1381
   76MOL    C6924219   5.541   1.074   0.156 -0.0609  0.2749  0.3138
   76MOL    C7024220   5.641   1.122   0.072  0.5662 -0.0605  0.5046
   76MOL   Cl7124221   5.762   1.015   0.004 -0.3940 -0.4535  0.2521
   76MOL    C7224222   5.641   1.254   0.022  1.1020 -0.8101 -0.0521
   76MOL    C7324223   5.533   1.338   0.060 -0.3969  0.4760  0.2559
   76MOL    C7424224   5.340   1.494   0.264 -0.3708  0.7106  0.3858
   76MOL    H7524225   5.245   1.315   0.245 -2.5039  1.9929 -0.1922
   76MOL    H7624226   5.347   1.124   0.242  0.5609 -1.3836  0.7008
   76MOL    H7724227   5.550   0.972   0.190  2.7468 -0.8260 -3.3733
   76MOL    H7824228   5.716   1.286   8.394  0.6275 -3.5314 -1.8624
   76MOL    H7924229   5.535   1.439   0.020  0.2453  0.7605  1.0033
   76MOL    H8024230   5.397   1.558   0.197 -2.3832  1.2660 -0.8640
   76MOL    H8124231   5.250   1.548   0.294  0.2453  0.2268  3.2614
   76MOL    C8224232   5.419   1.461   0.392 -0.3118 -0.7138  0.1382
   76MOL    C8324233   5.459   1.590   0.461  0.0573  0.5569 -0.8424
   76MOL    C8424234   5.589   1.627   0.449  0.0795 -0.0370  0.1438
   76MOL    C8524235   5.629   1.748   0.509 -0.7558 -0.4734  0.0743
   76MOL    C8624236   5.532   1.844   0.546 -0.1838  1.3467  0.0235
   76MOL   Cl8724237   5.598   2.004   0.575 -0.0433  0.0872  0.7224
   76MOL    C8824238   5.398   1.815   0.538  0.2545  0.0801 -0.1049
   76MOL    C8924239   5.362   1.679   0.511  0.0940 -0.0668  0.3321
   76MOL    C9024240   5.355   1.365   0.488 -0.2201  0.3362  0.0033
   76MOL    H9124241   5.516   1.418   0.364  0.2650  1.8563 -2.0055
   76MOL    H9224242   5.669   1.575   0.398  0.1827  0.7335 -0.4788
   76MOL    H9324243   5.734   1.773   0.511 -1.0932  1.0223 -0.3919
   76MOL    H9424244   5.326   1.889   0.571  0.8840  0.5497  0.2236
   76MOL    H9524245   5.257   1.651   0.508  0.1722 -0.5194  1.7188
   76MOL    H9624246   5.261   1.393   0.536 -0.1961  2.0212 -0.8674
   76MOL    H9724247   5.327   1.276   0.432  3.3111  0.3995 -2.0155
   76MOL    C9824248   5.446   1.314   0.606  1.0676 -0.3844  0.0657
   76MOL    C9924249   5.358   1.251   0.711  0.2099 -0.3530  0.6374
   76MOL   C10024250   5.273   1.134   0.676 -0.0460 -0.5909  0.0842
   76MOL   C10124251   5.190   1.074   0.776  0.0109 -0.6241  0.0778
   76MOL   C10224252   5.190   1.140   0.905 -0.0519  0.5392 -0.6409
   76MOL  Cl10324253   5.103   1.063   1.040  0.0416 -0.3772  0.7299
   76MOL   C10424254   5.266   1.247   0.938 -1.1375 -0.7096  0.3680
   76MOL   C10524255   5.357   1.304   0.844 -0.1411 -0.0611 -0.4449
   76MOL   C10624256   5.562   1.222   0.545  0.0508 -0.3848  0.4574
   76MOL   H10724257   5.498   1.395   0.657  1.9002  0.6687 -2.3587
   76MOL   H10824258   5.283   1.083   0.581 -1.1756  1.9314 -1.4421
   76MOL   H10924259   5.129   0.986   0.761 -1.3834  0.3585 -0.1612
   76MOL   H11024260   5.270   1.278   1.041 -0.9491  0.7969 -0.0831
   76MOL   H11124261   5.408   1.392   0.877 -3.6773  1.9968 -0.1735
   76MOL   H11224262   5.507   1.154   0.480  1.7679 -0.2026 -1.2312
   76MOL   H11324263   5.630   1.281   0.483  0.1932 -1.1322 -0.1139
   76MOL   C11424264   5.654   1.142   0.642 -0.5383 -0.1677 -0.1693
   76MOL   C11524265   5.736   1.046   0.564 -0.0971 -0.1549  0.8027
   76MOL   C11624266   5.698   0.912   0.549 -0.6000 -0.6930 -0.1550
   76MOL   C11724267   5.771   0.833   0.463 -0.6491  0.1031 -0.7079
   76MOL   C11824268   5.886   0.884   0.399 -0.7894  0.2750  1.4865
   76MOL  Cl11924269   5.973   0.783   0.289  0.3323  0.3242  0.4427
   76MOL   C12024270   5.932   1.013   0.423  0.1309  0.5346  0.7140
   76MOL   C12124271   5.855   1.098   0.500  0.4031 -0.1867 -0.0446
   76MOL   C12224272   5.734   1.216   0.749  0.0803  0.3998 -0.0665
   76MOL   H12324273   5.579   1.081   0.692 -2.2476  1.6910 -0.3950
   76MOL   H12424274   5.600   0.893   0.589 -0.7640  0.8037  0.1878
   76MOL   H12524275   5.736   0.734   0.433 -1.7910  0.0168  0.8464
   76MOL   H12624276   6.024   1.055   0.384  0.1682 -1.3083 -1.2724
   76MOL   H12724277   5.884   1.202   0.509 -0.7683  0.1941 -0.5262
   76MOL   H12824278   5.792   1.301   0.713  0.9457  0.3414  1.1775
   76MOL   H12924279   5.657   1.272   0.802  0.2069  0.2812  0.2442
   76MOL   C13024280   5.801   1.119   0.851 -0.2295 -0.2121 -0.1533
   76MOL   C13124281   5.955   1.135   0.845  0.6836  0.2514 -0.1628
   76MOL   C13224282   6.026   1.027   0.795 -0.1832 -0.3066 -0.7730
   76MOL   C13324283   6.165   1.039   0.774 -0.6830 -0.2015 -0.2596
   76MOL   C13424284   6.235   1.149   0.824  0.0999 -0.0654 -0.2892
   76MOL  Cl13524285   6.408   1.165   0.800  0.3041 -0.1732 -0.4495
   76MOL   C13624286   6.163   1.260   0.884 -0.3952 -0.5901 -0.2635
   76MOL   C13724287   6.021   1.248   0.894 -0.6881  0.0786 -0.1821
   76MOL   C13824288   5.753   1.130   1.001 -0.0756  0.1864 -0.0878
   76MOL   H13924289   5.785   1.017   0.816 -1.2082 -1.0901  2.6923
   76MOL   H14024290   5.981   0.939   0.750 -2.4003 -0.1875  1.1288
   76MOL   H14124291   6.214   0.967   0.710 -1.7896 -0.1764 -1.1486
   76MOL   H14224292   6.216   1.345   0.924 -1.4013  0.3041 -0.7984
   76MOL   H14324293   5.976   1.331   0.946  2.3137  0.5970  1.7396
   76MOL   H14424294   5.827   1.070   1.054 -1.3283 -0.7151  0.6520
   76MOL   H14524295   5.761   1.232   1.041  1.0810  0.4616 -0.9973
   76MOL   C14624296   5.622   1.066   1.034 -0.3191 -0.3132  0.6970
   76MOL   C14724297   5.607   0.930   0.974 -0.0610 -0.2817  0.0385
   76MOL   C14824298   5.687   0.827   1.023  0.8680  0.3140 -0.6688
   76MOL   C14924299   5.674   0.702   0.967 -0.8673  0.0290 -0.1373
   76MOL   C15024300   5.579   0.672   0.871  0.3688  0.1781  0.4407
   76MOL  Cl15124301   5.571   0.517   0.799 -0.0593 -0.2426  0.2692
   76MOL   C15224302   5.484   0.771   0.835  0.5261 -0.2787 -0.0581
   76MOL   C15324303   5.502   0.902   0.885 -0.1627  0.6219  0.0343
   76MOL   C15424304   5.564   1.077   1.178 -0.2408  0.3788 -0.0890
   76MOL   H15524305   5.550   1.125   0.978 -0.7988  0.5613  2.2061
   76MOL   H15624306   5.759   0.833   1.103  0.0873 -2.6185  0.3109
   76MOL   H15724307   5.735   0.620   1.002 -1.0142  0.5038  1.2445
   76MOL   H15824308   5.414   0.755   0.755  1.8781 -0.2423 -1.2610
   76MOL   H15924309   5.448   0.990   0.855 -0.6320  0.5670  0.7099
   76MOL   H16024310   5.503   1.166   1.192  0.5792  0.7643  1.2156
   76MOL   H16124311   5.504   0.987   1.190 -1.4662  1.3583  1.3182
   76MOL   C16224312   5.670   1.091   1.288 -0.4399 -0.0806 -0.0679
   76MOL   C16324313   5.738   1.229   1.287 -0.1371  0.5553 -0.2185
   76MOL   C16424314   5.876   1.231   1.308 -1.0238  0.1989  0.0510
   76MOL   C16524315   5.951   1.354   1.315  0.1179  0.4472 -0.6381
   76MOL   C16624316   5.871   1.476   1.314 -0.0443  0.0924  0.4447
   76MOL  Cl16724317   5.942   1.631   1.340 -0.1585  0.2816  0.1623
   76MOL   C16824318   5.735   1.476   1.285 -1.0098 -0.4029 -0.1498
   76MOL   C16924319   5.669   1.354   1.280  0.3380 -0.4592 -0.4422
   76MOL   C17024320   5.634   1.052   1.427 -0.0482 -0.1722 -0.8013
   76MOL   H17124321   5.747   1.021   1.256 -0.3945  0.4299 -1.1149
   76MOL   H17224322   5.927   1.136   1.299 -0.8771  0.1574  1.2130
   76MOL   H17324323   6.058   1.360   1.328  0.1583 -0.6630 -0.4526
   76MOL   H17424324   5.682   1.570   1.284  0.3585  0.4394  2.1385
   76MOL   H17524325   5.563   1.347   1.258 -0.1297 -1.9221  2.0576
   76MOL   H17624326   5.709   1.080   1.502 -1.5032 -2.2424  1.5116
   76MOL   H17724327   5.550   1.113   1.458 -0.1308 -0.1922 -0.9843
   76MOL   C17824328   5.614   0.904   1.456 -0.2876 -0.0162 -0.9560
   76MOL   C17924329   5.738   0.817   1.432  1.0229  0.1096 -0.1726
   76MOL   C18024330   5.723   0.696   1.365  0.0787  0.7254 -0.9291
   76MOL   C18124331   5.841   0.630   1.325  0.1333 -0.3737  0.7169
   76MOL   C18224332   5.971   0.684   1.345  0.3183  0.0775 -0.2183
   76MOL  Cl18324333   6.111   0.610   1.269 -0.4264  0.3465 -0.2558
   76MOL   C18424334   5.984   0.795   1.428  0.2899  0.2820  0.4470
   76MOL   C18524335   5.872   0.864   1.468  1.1778 -0.5084 -0.2727
   76MOL   C18624336   5.560   0.883   1.604 -0.0531 -0.7729 -0.1964
   76MOL   H18724337   5.544   0.878   1.377 -2.4891  3.3966 -0.2201
   76MOL   H18824338   5.627   0.657   1.336  0.3369 -2.5883  2.2767
   76MOL   H18924339   5.824   0.539   1.270 -1.9227 -0.5554  1.5994
   76MOL   H19024340   6.083   0.834   1.448  1.1973 -1.6264 -0.1700
   76MOL   H19124341   5.883   0.959   1.518  1.8534 -1.1876  0.8943
   76MOL   H19224342   5.648   0.884   1.669  0.0438 -1.3676 -0.3127
   76MOL   H19324343   5.510   0.975   1.636  0.5749 -0.4810 -0.0329
   76MOL   C19424344   5.478   0.755   1.619 -0.3459  0.2377 -0.6338
   76MOL   C19524345   5.516   0.682   1.749 -0.0586  0.0081  0.2257
   76MOL   C19624346   5.643   0.626   1.748  0.1874  0.2187  0.1993
   76MOL   C19724347   5.701   0.588   1.872  0.4938  0.4758  0.0284
   76MOL   C19824348   5.632   0.596   1.988  0.2887 -0.2554 -0.6726
   76MOL  Cl19924349   5.703   0.539   2.130 -0.2819  0.0232  0.2099
   76MOL   C20024350   5.500   0.643   1.994  0.2750 -0.5786  0.5933
   76MOL   C20124351   5.441   0.695   1.873  0.0894 -0.1047 -0.4343
   76MOL   C20224352   5.329   0.789   1.616 -0.3468  0.7293  0.4496
   76MOL   H20324353   5.500   0.685   1.538 -0.0853 -0.8574  0.3618
   76MOL   H20424354   5.701   0.609   1.659  1.5519 -0.2047  1.1385
   76MOL   H20524355   5.804   0.560   1.878  1.2880  2.6957 -2.2231
   76MOL   H20624356   5.445   0.636   2.086  0.0457  0.6069  0.5577
   76MOL   H20724357   5.335   0.713   1.883  0.3224  1.6900 -1.1347
   76MOL   H20824358   5.273   0.714   1.671 -0.1665 -0.1013 -0.4833
   76MOL   H20924359   5.325   0.876   1.682 -1.1097  0.0487  1.3047
   76MOL   C21024360   5.273   0.835   1.482  0.5375 -0.7173  0.4035
   76MOL   C21124361   5.276   0.736   1.367 -0.2775 -0.7616 -0.3140
   76MOL   C21224362   5.281   0.781   1.230  0.3759 -0.9447  0.0935
   76MOL   C21324363   5.282   0.689   1.123  0.0518 -0.2212  0.2127
   76MOL   C21424364   5.253   0.555   1.146  0.5080  0.1602 -0.6003
   76MOL  Cl21524365   5.249   0.454   1.015  0.0595  0.1811 -0.1173
   76MOL   C21624366   5.255   0.507   1.281 -0.2873 -0.4837  0.7584
   76MOL   C21724367   5.262   0.598   1.389  0.2800 -0.2535 -0.9100
   76MOL   C21824368   5.123   0.888   1.506  0.2513  0.2297  0.0236
   76MOL   H21924369   5.328   0.924   1.451 -1.0298 -0.9433 -3.2518
   76MOL   H22024370   5.307   0.882   1.203 -0.3284 -1.2666 -1.8269
   76MOL   H22124371   5.289   0.731   1.024  2.0235 -2.6383 -0.7217
   76MOL   H22224372   5.244   0.400   1.294  2.5133 -0.7502  1.0803
   76MOL   H22324373   5.258   0.549   1.485  2.7941 -0.9480 -1.1255
   76MOL   H22424374   5.072   0.886   1.410  1.5425  0.0725 -0.6761
   76MOL   H22524375   5.075   0.798   1.544 -0.9997 -0.1071 -2.2478
   76MOL   C22624376   5.094   1.012   1.593  0.1471 -0.1754  0.5040
   76MOL   C22724377   5.187   1.130   1.570 -0.1566 -0.3259  0.3698
   76MOL   C22824378   5.239   1.206   1.673  0.2638 -0.5856 -0.4715
   76MOL   C22924379   5.317   1.324   1.651 -0.0630  0.2853  0.1304
   76MOL   C23024380   5.343   1.370   1.524  0.6557  0.3721 -0.7103
   76MOL  Cl23124381   5.435   1.513   1.486  0.2556  0.1451  0.1608
   76MOL   C23224382   5.293   1.291   1.417 -0.1261 -0.6991 -0.4289
   76MOL   C23324383   5.225   1.171   1.436 -0.3005  0.2702 -0.1819
   76MOL   C23424384   4.947   1.063   1.581 -0.2967  0.1754  0.3279
   76MOL   H23524385   5.096   0.988   1.699 -0.6189 -0.3242  0.4877
   76MOL   H23624386   5.222   1.166   1.772  0.3069  1.5596  0.4401
   76MOL   H23724387   5.363   1.373   1.736 -2.9869  1.7805  0.9389
   76MOL   H23824388   5.319   1.317   1.315 -1.4248 -0.0295 -0.5952
   76MOL   H23924389   5.191   1.119   1.348  0.1032  1.3700 -0.9950
   76MOL   H24024390   4.926   1.158   1.630 -0.6259  1.4232 -2.1858
   76MOL   H24124391   4.940   1.083   1.474 -0.6232 -0.9010  0.1448
   76MOL   C24224392   4.834   0.957   1.606 -0.5219  0.4049  0.3502
   76MOL   C24324393   4.823   0.908   1.749 -0.2422 -0.3333  0.0411
   76MOL   C24424394   4.821   0.765   1.770 -0.1504 -0.3859 -0.1198
   76MOL   C24524395   4.833   0.721   1.905 -0.5338  0.4281 -0.5364
   76MOL   C24624396   4.825   0.812   2.011  0.1951 -0.9686  0.0011
   76MOL  Cl24724397   4.803   0.755   2.166 -0.0952  0.1708 -0.4845
   76MOL   C24824398   4.811   0.950   1.987  0.4364  0.0483  0.5605
   76MOL   C24924399   4.817   0.994   1.852  0.0920 -0.5178 -0.0251
   76MOL   C25024400   4.698   1.015   1.556  0.5472  0.1447  0.0596
   76MOL   H25124401   4.850   0.867   1.547 -1.1060  0.3316  0.2978
   76MOL   H25224402   4.814   0.701   1.684  3.0751 -0.2834 -0.5103
   76MOL   H25324403   4.843   0.616   1.927 -0.1939  0.6788  0.5129
   76MOL   H25424404   4.805   1.024   2.065 -0.7882  0.3478  0.1867
   76MOL   H25524405   4.815   1.100   1.829  1.5469 -0.6374 -0.7633
   76MOL   H25624406   4.626   0.942   1.591  1.2824 -0.7345 -0.2383
   76MOL   H25724407   4.673   1.108   1.606  0.2590 -0.4892  1.1123
   76MOL   C25824408   4.680   1.029   1.406 -0.5177  0.0747  0.0972
   76MOL   C25924409   4.706   0.897   1.326 -0.0440  0.3963  0.0621
   76MOL   C26024410   4.645   0.779   1.370 -0.6394 -0.3162  0.2460
   76MOL   C26124411   4.681   0.653   1.323 -0.0494 -0.3161 -1.0031
   76MOL   C26224412   4.787   0.645   1.232 -0.6561  0.2501  0.2601
   76MOL  Cl26324413   4.851   0.496   1.198 -0.1076  0.1306 -0.5026
   76MOL   C26424414   4.859   0.762   1.187 -0.2537  0.4817 -0.3089
   76MOL   C26524415   4.811   0.885   1.234  0.3736  0.1484 -0.0549
   76MOL   C26624416   4.547   1.098   1.369  0.0871  0.0027  0.0522
   76MOL   H26724417   4.757   1.091   1.360 -0.9255  1.3485  1.1060
   76MOL   H26824418   4.564   0.781   1.441 -1.5008 -2.2855 -0.6445
   76MOL   H26924419   4.630   0.564   1.356  1.3659  0.1580  2.6459
   76MOL   H27024420   4.957   0.765   1.142  0.3960 -1.0324  0.9740
   76MOL   H27124421   4.859   0.976   1.201 -0.3693  1.0165  1.2052
   76MOL   H27224422   4.520   1.070   1.267 -1.7932  2.1439 -0.1050
   76MOL   H27324423   4.463   1.052   1.422  0.3528 -0.0277  0.4439
   76MOL   C27424424   4.540   1.252   1.370  0.3202 -0.3748 -0.3229
   76MOL   C27524425   4.639   1.304   1.267 -0.0475 -0.2875  0.4100
   76MOL   C27624426   4.739   1.396   1.310  0.0469  0.5393 -0.3651
   76MOL   C27724427   4.840   1.435   1.215 -0.6090 -0.6990  0.6975
   76MOL   C27824428   4.826   1.397   1.078 -0.0679 -0.4839  0.6975
   76MOL  Cl27924429   4.945   1.460   0.973  0.0904 -0.0656 -0.0488
   76MOL   C28024430   4.727   1.305   1.040  0.7360 -0.4429  0.0664
   76MOL   C28124431   4.629   1.257   1.129  0.4146 -0.5957 -0.2782
   76MOL   C28224432   4.399   1.317   1.354  0.4800  0.5281  0.4195
   76MOL   H28324433   4.581   1.277   1.468 -2.2911 -1.6741  1.1379
   76MOL   H28424434   4.735   1.450   1.404 -0.3530 -2.0386  1.1403
   76MOL   H28524435   4.926   1.495   1.242  0.9958 -2.5464 -0.1941
   76MOL   H28624436   4.713   1.275   0.937 -0.3838  2.2614 -0.6306
   76MOL   H28724437   4.559   1.184   1.091 -0.5305 -0.2694  0.8120
   76MOL   H28824438   4.427   1.422   1.360  2.4678  0.1332 -1.1690
   76MOL   H28924439   4.359   1.294   1.255  0.1151  1.7789  0.2805
   76MOL   C29024440   4.303   1.283   1.473 -0.6145 -0.1980 -0.3317
   76MOL   C29124441   4.360   1.328   1.612 -0.1110  0.2362  0.7066
   76MOL   C29224442   4.366   1.461   1.657 -0.4122 -0.1194  0.1408
   76MOL   C29324443   4.429   1.497   1.779  0.3049 -0.3127 -0.5397
   76MOL   C29424444   4.488   1.401   1.858 -0.3247  0.7218 -0.1976
   76MOL  Cl29524445   4.575   1.448   1.998  0.2191  0.1044 -0.3345
   76MOL   C29624446   4.485   1.265   1.815  0.4660  0.3515  0.2913
   76MOL   C29724447   4.425   1.227   1.687 -0.3961 -0.1490 -0.2965
   76MOL   C29824448   4.167   1.354   1.447 -0.0091  0.4941 -0.7580
   76MOL   H29924449   4.277   1.177   1.474  0.4481 -0.4929 -2.0707
   76MOL   H30024450   4.333   1.541   1.592 -0.8260 -1.1782 -0.9855
   76MOL   H30124451   4.434   1.599   1.815 -2.0280  0.3389 -1.9175
   76MOL   H30224452   4.525   1.189   1.882 -0.2046 -0.9056 -0.6998
   76MOL   H30324453   4.399   1.123   1.670 -1.9136  0.5029 -2.1922
   76MOL   H30424454   4.109   1.359   1.539  2.1156  1.4617  0.5700
   76MOL   H30524455   4.194   1.455   1.414 -1.9461  1.4666  0.5059
   76MOL   C30624456   4.068   1.285   1.348  0.0703  0.1361 -0.0876
   76MOL   C30724457   3.997   1.168   1.409  0.1612 -0.2615  0.3445
   76MOL   C30824458   4.038   1.039   1.362  0.3400 -0.0986 -0.4858
   76MOL   C30924459   3.971   0.928   1.411 -0.3585 -0.1096 -0.2770
   76MOL   C31024460   3.879   0.934   1.509  0.0466 -0.0475  0.1174
   76MOL  Cl31124461   3.794   0.793   1.554  0.1714  0.4603  0.2077
   76MOL   C31224462   3.836   1.061   1.551  0.3924 -0.2899  0.6715
   76MOL   C31324463   3.888   1.181   1.498  0.1823  0.6041 -0.5803
   76MOL   C31424464   3.964   1.376   1.290 -0.0829 -0.4061  0.1220
   76MOL   H31524465   4.118   1.236   1.263 -0.7084 -1.0534  0.1229
   76MOL   H31624466   4.124   1.031   1.297  0.9369  0.1526  0.2581
   76MOL   H31724467   4.001   0.827   1.387 -0.9639 -0.8038  1.7814
   76MOL   H31824468   3.761   1.068   1.628  0.9137 -0.2792  1.1722
   76MOL   H31924469   3.851   1.277   1.530 -0.0047  0.5942 -0.7631
   76MOL   H32024470   3.900   1.425   1.364 -1.7363 -1.9547 -0.2511
   76MOL   H32124471   4.005   1.439   1.211  0.5895 -1.2071 -0.1708
   76MOL   H32224472   3.894   1.312   1.237 -1.4798 -1.1723  2.7761
   77MOL     C124473   6.345   2.599   1.859  0.4592 -0.6679 -0.1855
   77MOL     C224474   6.245   2.718   1.850  0.6416  0.3510  0.1076
   77MOL     C324475   6.236   2.804   1.963  0.0488  0.2741 -0.7135
   77MOL     C424476   6.133   2.902   1.971 -0.3387 -0.3207 -0.5181
   77MOL     C524477   6.035   2.900   1.867 -0.5891 -0.1646 -0.5101
   77MOL    Cl624478   5.910   3.008   1.864 -0.1463 -0.2602 -0.6507
   77MOL     C724479   6.052   2.823   1.750  0.1627 -0.5019  0.4054
   77MOL     C824480   6.155   2.730   1.742  0.0033  0.0987  0.0251
   77MOL     C924481   6.489   2.638   1.821  0.5916 -1.0838 -0.5116
   77MOL    H1024482   6.302   2.528   1.789  0.2510 -0.5661 -0.1649
   77MOL    H1124483   6.300   2.803   2.049  0.1380  2.7205 -0.7280
   77MOL    H1224484   6.134   2.974   2.051  1.0153  0.0553 -0.8653
   77MOL    H1324485   5.982   2.818   1.668 -1.7192 -0.6576  1.9904
   77MOL    H1424486   6.158   2.663   1.658 -1.3032 -0.2137  0.2100
   77MOL    H1524487   6.491   2.680   1.720  1.7093 -1.2160 -0.5510
   77MOL    H1624488   6.514   2.730   1.873  0.9219 -0.3793 -1.8938
   77MOL    H1724489   6.335   2.565   1.962  1.8567  0.2430  0.2529
   77MOL    C1824490   6.603   2.545   1.850  0.1336  0.5733 -0.0038
   77MOL    C1924491   6.565   2.399   1.808  0.1377  0.0262  0.6679
   77MOL    C2024492   6.537   2.357   1.674  0.0208  0.8064  0.0409
   77MOL    C2124493   6.501   2.225   1.644 -0.4098  0.1263  0.5156
   77MOL    C2224494   6.487   2.125   1.748 -0.0711 -0.4414  0.6404
   77MOL   Cl2324495   6.452   1.959   1.712 -0.2909  0.2102 -0.6573
   77MOL    C2424496   6.511   2.165   1.881  0.5348  0.8276 -0.6914
   77MOL    C2524497   6.539   2.303   1.909  0.1471 -0.3422 -0.0479
   77MOL    C2624498   6.724   2.587   1.771  0.6122 -0.0271  0.8022
   77MOL    H2724499   6.618   2.543   1.958  0.3995  1.6572 -0.0220
   77MOL    H2824500   6.547   2.427   1.592 -0.7484 -0.4521 -1.1314
   77MOL    H2924501   6.483   2.195   1.542 -0.6288  0.5941  0.4168
   77MOL    H3024502   6.499   2.092   1.959 -1.0282  0.7909 -0.9570
   77MOL    H3124503   6.545   2.342   2.009 -0.0875  0.3167 -0.2871
   77MOL    H3224504   6.802   2.522   1.810  1.5405  1.1408  0.9154
   77MOL    H3324505   6.719   2.579   1.662  2.1887  1.3163  0.6127
   77MOL    C3424506   6.767   2.738   1.790  0.1681  0.2024 -0.2478
   77MOL    C3524507   6.803   2.771   1.931  0.1996 -0.0037 -0.1918
   77MOL    C3624508   6.906   2.707   1.995  0.7308 -0.4663  0.2445
   77MOL    C3724509   6.952   2.740   2.125 -0.2015  0.1255  0.1616
   77MOL    C3824510   6.900   2.850   2.189 -0.0795  0.6223 -0.1062
   77MOL   Cl3924511   6.945   2.911   2.346 -0.4682 -0.0952  0.4808
   77MOL    C4024512   6.780   2.908   2.132 -0.1130 -0.1080 -0.6346
   77MOL    C4124513   6.741   2.877   2.002 -0.3529 -0.3950  0.9659
   77MOL    C4224514   6.875   2.787   1.698  0.3512  0.4893  0.2932
   77MOL    H4324515   6.686   2.806   1.766  0.1359 -0.2632 -1.4846
   77MOL    H4424516   6.944   2.615   1.952 -0.1698 -0.0243 -1.5286
   77MOL    H4524517   7.038   2.690   2.167  0.5455 -1.7127 -3.3843
   77MOL    H4624518   6.730   2.986   2.188  0.1916  0.0299 -0.5562
   77MOL    H4724519   6.656   2.920   1.951  0.3009 -1.2415 -0.8884
   77MOL    H4824520   6.914   2.884   1.726  0.2760  1.4265 -2.6612
   77MOL    H4924521   6.964   2.726   1.705  0.8887  1.1554 -0.6422
   77MOL    C5024522   6.816   2.801   1.550 -0.4104 -0.1114  0.3403
   77MOL    C5124523   6.801   2.948   1.500  0.2112 -0.0811 -0.6407
   77MOL    C5224524   6.670   3.011   1.499  0.3264  0.0006  0.0929
   77MOL    C5324525   6.662   3.148   1.459 -0.0980 -0.7320  0.2111
   77MOL    C5424526   6.782   3.214   1.427 -0.6815  0.0274  0.1754
   77MOL   Cl5524527   6.777   3.388   1.387 -0.5157 -0.0754  0.0874
   77MOL    C5624528   6.907   3.150   1.420 -0.3982  0.3379 -0.3972
   77MOL    C5724529   6.916   3.016   1.463 -0.4631  0.2688  0.2860
   77MOL    C5824530   6.883   2.703   1.446 -0.2751  0.5790  0.0875
   77MOL    H5924531   6.711   2.777   1.566 -0.7259  0.5144 -0.7083
   77MOL    H6024532   6.581   2.956   1.523 -0.5627  1.2918 -0.2226
   77MOL    H6124533   6.564   3.192   1.461 -0.4278 -1.3530 -1.5205
   77MOL    H6224534   6.995   3.203   1.389  0.2773 -0.8772 -0.5815
   77MOL    H6324535   7.013   2.970   1.463  0.2873  1.7743  2.2231
   77MOL    H6424536   6.992   2.706   1.449 -0.2887 -0.1648  1.9753
   77MOL    H6524537   6.853   2.603   1.477 -0.7527  0.9160  0.7167
   77MOL    C6624538   6.831   2.728   1.304 -0.7189  0.2452  0.2098
   77MOL    C6724539   6.909   2.652   1.192  0.5195  0.9516 -0.2178
   77MOL    C6824540   6.930   2.510   1.193 -0.5398 -0.3036  0.0723
   77MOL    C6924541   6.986   2.444   1.085  0.9937  0.2998 -0.5878
   77MOL    C7024542   7.018   2.519   0.971  0.2232 -0.4373 -0.1886
   77MOL   Cl7124543   7.090   2.442   0.836 -0.4880  0.5264 -0.6676
   77MOL    C7224544   7.013   2.660   0.965  0.4209  0.3552 -0.0645
   77MOL    C7324545   6.959   2.722   1.081 -0.0896  0.1508 -0.5642
   77MOL    C7424546   6.684   2.694   1.298 -0.1820  0.2695 -0.1232
   77MOL    H7524547   6.845   2.834   1.281 -0.0059 -0.5666 -3.4200
   77MOL    H7624548   6.905   2.448   1.278 -0.2336  0.4095  0.6888
   77MOL    H7724549   6.999   2.338   1.074 -0.1351  0.3448 -2.6438
   77MOL    H7824550   7.043   2.710   0.874  1.0711 -1.5888 -0.9543
   77MOL    H7924551   6.950   2.830   1.082  3.0968  0.4603 -0.3061
   77MOL    H8024552   6.658   2.598   1.253 -3.1111  0.1130  1.7722
   77MOL    H8124553   6.638   2.684   1.396 -0.7731 -0.7851 -0.4923
   77MOL    C8224554   6.595   2.807   1.236  0.4824 -0.5697 -0.5818
   77MOL    C8324555   6.629   2.831   1.089  0.0879  0.3347 -0.1821
   77MOL    C8424556   6.615   2.730   0.995  0.0462  0.1505  0.7827
   77MOL    C8524557   6.651   2.750   0.861  0.2816 -0.1419  0.4884
   77MOL    C8624558   6.721   2.870   0.833 -0.0533 -0.3146 -0.9321
   77MOL   Cl8724559   6.775   2.898   0.673 -0.0875 -0.4360 -0.2424
   77MOL    C8824560   6.746   2.970   0.926  0.3386 -0.0729  0.4247
   77MOL    C8924561   6.695   2.949   1.056 -0.0449  0.2730  0.1655
   77MOL    C9024562   6.440   2.780   1.254 -0.6840  0.7256 -0.9521
   77MOL    H9124563   6.624   2.895   1.293  0.9723  0.5540 -2.5473
   77MOL    H9224564   6.555   2.643   1.019 -2.2109  1.0313 -1.3207
   77MOL    H9324565   6.638   2.676   0.785 -0.8815 -0.6026  1.1187
   77MOL    H9424566   6.795   3.064   0.904 -1.9593  0.8737 -0.8232
   77MOL    H9524567   6.714   3.021   1.134  0.8559 -0.1297  0.3169
   77MOL    H9624568   6.428   2.679   1.214  0.6087 -0.3005  1.1437
   77MOL    H9724569   6.416   2.780   1.360  1.3378 -1.2842 -0.4470
   77MOL    C9824570   6.339   2.870   1.176 -0.3796  0.1491  0.0754
   77MOL    C9924571   6.195   2.811   1.207 -0.0832 -0.4655 -0.5160
   77MOL   C10024572   6.119   2.765   1.103 -0.0982  0.2149 -0.2259
   77MOL   C10124573   5.994   2.705   1.129  0.2647 -0.2621  0.2350
   77MOL   C10224574   5.951   2.685   1.262 -0.1637 -0.2544  0.3463
   77MOL  Cl10324575   5.800   2.607   1.291 -0.0678 -0.2831 -0.3081
   77MOL   C10424576   6.027   2.738   1.373  0.7895  0.4348  0.4743
   77MOL   C10524577   6.154   2.791   1.342  0.6325 -0.3237 -0.0549
   77MOL   C10624578   6.355   3.018   1.211  0.1647  0.5632 -0.1565
   77MOL   H10724579   6.360   2.858   1.070  0.8837  0.0927  0.3299
   77MOL   H10824580   6.145   2.769   0.998 -0.5698 -1.0587 -0.4060
   77MOL   H10924581   5.931   2.662   1.053  0.8125  1.5967 -1.2873
   77MOL   H11024582   5.986   2.729   1.472  1.5748  1.3596  0.8790
   77MOL   H11124583   6.223   2.836   1.413  2.3929 -0.8138 -1.4173
   77MOL   H11224584   6.321   3.026   1.314  1.4850 -2.0857  0.5348
   77MOL   H11324585   6.459   3.048   1.202  0.1994  0.5856  0.3311
   77MOL   C11424586   6.281   3.112   1.111  0.3393 -0.6719 -0.0538
   77MOL   C11524587   6.284   3.256   1.163  0.1597  0.2888 -0.4689
   77MOL   C11624588   6.388   3.307   1.245 -0.0779  0.4610 -0.1458
   77MOL   C11724589   6.379   3.438   1.289  0.4132 -0.1115 -0.2075
   77MOL   C11824590   6.290   3.521   1.228  0.5445  0.2063 -0.3141
   77MOL  Cl11924591   6.283   3.688   1.266  0.2609 -0.2185 -0.0992
   77MOL   C12024592   6.182   3.472   1.147  0.2473 -0.4221 -0.6635
   77MOL   C12124593   6.172   3.333   1.123  0.5431  0.3318  0.6894
   77MOL   C12224594   6.355   3.115   0.966  0.3470 -0.0989  0.0982
   77MOL   H12324595   6.176   3.084   1.098 -0.1361  1.3411 -0.8118
   77MOL   H12424596   6.474   3.255   1.284  1.7987  1.3323 -3.0065
   77MOL   H12524597   6.455   3.476   1.356 -0.4096 -0.7510  1.0982
   77MOL   H12624598   6.105   3.530   1.097  0.1866 -0.6009 -0.7788
   77MOL   H12724599   6.089   3.291   1.068  1.0114  0.1715  0.1026
   77MOL   H12824600   6.436   3.186   0.986  1.6648 -0.9325 -2.0832
   77MOL   H12924601   6.411   3.025   0.943  2.1724 -0.1657  4.2825
   77MOL   C13024602   6.264   3.151   0.847  0.4563  0.5088 -0.0308
   77MOL   C13124603   6.342   3.171   0.719  0.6236  0.2450 -0.6563
   77MOL   C13224604   6.343   3.298   0.655 -0.1645 -0.2622  0.2896
   77MOL   C13324605   6.406   3.317   0.531  0.0495 -0.7334  0.3675
   77MOL   C13424606   6.464   3.208   0.463  0.1667  0.6466  0.5918
   77MOL  Cl13524607   6.557   3.240   0.318  0.0785 -0.0431 -0.0314
   77MOL   C13624608   6.477   3.086   0.535  0.1970  0.4842 -0.1697
   77MOL   C13724609   6.410   3.065   0.657  0.5697  0.2041  0.4841
   77MOL   C13824610   6.146   3.051   0.822  0.5184 -0.3731  0.5559
   77MOL   H13924611   6.216   3.244   0.879  1.8549  0.2951  2.7985
   77MOL   H14024612   6.300   3.387   0.697  1.2134  0.7027 -0.2908
   77MOL   H14124613   6.397   3.412   0.482  0.4210 -0.9604 -0.1448
   77MOL   H14224614   6.534   3.006   0.492 -1.5452 -1.2316  0.6215
   77MOL   H14324615   6.420   2.964   0.695  0.2593  0.0749  0.2273
   77MOL   H14424616   6.202   2.960   0.804 -2.8448 -2.5044  0.3167
   77MOL   H14524617   6.084   3.024   0.908  2.1899  0.4234  2.0632
   77MOL   C14624618   6.059   3.079   0.700 -0.0385  0.6497 -0.4855
   77MOL   C14724619   6.063   2.957   0.601 -0.3053 -0.2767  0.2464
   77MOL   C14824620   6.146   2.955   0.490 -0.9390  0.0317 -0.2003
   77MOL   C14924621   6.148   2.842   0.409  0.3191 -0.2501  0.8696
   77MOL   C15024622   6.067   2.727   0.438 -0.3547 -0.5789  0.2204
   77MOL  Cl15124623   6.087   2.586   0.345 -0.2541 -0.2134  0.0328
   77MOL   C15224624   5.990   2.726   0.559  0.1757 -0.5515  0.1953
   77MOL   C15324625   5.993   2.838   0.639 -0.4196 -0.2910 -0.2453
   77MOL   C15424626   5.912   3.107   0.736  0.8473  0.2826 -0.0812
   77MOL   H15524627   6.099   3.158   0.636  1.9765 -0.0623 -0.1089
   77MOL   H15624628   6.204   3.042   0.462 -1.1896 -0.2685 -1.6975
   77MOL   H15724629   6.203   2.851   0.317  0.5995  1.7347  1.2073
   77MOL   H15824630   5.928   2.645   0.596  0.8635 -0.2760  2.0212
   77MOL   H15924631   5.954   2.828   0.739 -2.2961  0.8407 -0.8367
   77MOL   H16024632   5.848   3.091   0.649 -0.8115 -1.2522  1.4024
   77MOL   H16124633   5.878   3.031   0.806 -0.4251 -0.1814 -1.1758
   77MOL   C16224634   5.889   3.251   0.784  0.7460  0.5581  0.2123
   77MOL   C16324635   5.952   3.359   0.683  0.5820  0.6437 -0.5203
   77MOL   C16424636   6.039   3.453   0.721 -0.1148 -0.2439  0.0534
   77MOL   C16524637   6.097   3.544   0.633 -0.3006  0.4237 -0.7115
   77MOL   C16624638   6.046   3.549   0.504  0.1668 -0.0077  0.2806
   77MOL  Cl16724639   6.112   3.667   0.399  0.1273  0.4434 -0.1401
   77MOL   C16824640   5.945   3.458   0.462  0.1895 -0.3723  0.5041
   77MOL   C16924641   5.897   3.357   0.554 -0.0166 -0.4044  0.2601
   77MOL   C17024642   5.743   3.289   0.808  0.3638 -0.1520 -0.6934
   77MOL   H17124643   5.945   3.286   0.871 -0.4970  1.9860  0.4613
   77MOL   H17224644   6.071   3.450   0.824  2.2935 -2.5199 -0.6891
   77MOL   H17324645   6.184   3.603   0.659 -0.1152 -0.2928  0.3349
   77MOL   H17424646   5.907   3.467   0.362  1.1243  0.2443  0.1943
   77MOL   H17524647   5.841   3.272   0.520 -0.6139  0.3532 -0.6966
   77MOL   H17624648   5.737   3.392   0.842 -0.7875 -1.4500  3.3026
   77MOL   H17724649   5.691   3.295   0.712 -0.7785 -1.8380 -0.2003
   77MOL   C17824650   5.667   3.207   0.916 -0.6577  0.1079  0.0914
   77MOL   C17924651   5.742   3.193   1.047 -0.6470  0.8610 -0.4814
   77MOL   C18024652   5.807   3.069   1.079  0.8687  0.7722  0.2680
   77MOL   C18124653   5.888   3.062   1.197  1.2543  0.0414 -0.9273
   77MOL   C18224654   5.920   3.179   1.264  0.2212 -0.3705  0.4173
   77MOL  Cl18324655   6.029   3.166   1.393 -0.2272  0.3054  0.2120
   77MOL   C18424656   5.866   3.301   1.225 -0.3049 -0.0529  0.4090
   77MOL   C18524657   5.771   3.310   1.125  0.2761 -0.2227  0.1179
   77MOL   C18624658   5.530   3.269   0.942 -1.1244 -0.0856 -0.3788
   77MOL   H18724659   5.647   3.112   0.868  0.4302 -0.2161  0.2815
   77MOL   H18824660   5.783   2.977   1.027 -2.3123  2.7597 -1.9755
   77MOL   H18924661   5.933   2.970   1.232 -0.0210 -0.0631  0.4350
   77MOL   H19024662   5.902   3.391   1.273 -1.2606  1.0216 -0.8384
   77MOL   H19124663   5.734   3.407   1.094 -3.8130 -1.1181  1.8074
   77MOL   H19224664   5.536   3.343   1.021  1.1481  0.7343 -1.2720
   77MOL   H19324665   5.496   3.329   0.857 -0.8126 -0.2620 -0.6294
   77MOL   C19424666   5.409   3.175   0.981 -1.2515  0.0604 -0.1097
   77MOL   C19524667   5.298   3.249   1.060  0.3323 -0.2527  0.5231
   77MOL   C19624668   5.246   3.372   1.017 -0.1872  0.1533  0.3809
   77MOL   C19724669   5.137   3.433   1.081  0.0424  0.3311  0.3557
   77MOL   C19824670   5.088   3.368   1.195  0.1068 -0.1973  0.3946
   77MOL  Cl19924671   4.955   3.444   1.278 -0.6122 -0.0568  0.0853
   77MOL   C20024672   5.146   3.243   1.238 -0.0386 -0.6393  0.0016
   77MOL   C20124673   5.252   3.184   1.175 -0.8698  0.0131  0.0670
   77MOL   C20224674   5.331   3.096   0.865  0.3008  0.0006  0.0463
   77MOL   H20324675   5.449   3.101   1.051 -0.6503 -0.2054 -0.7267
   77MOL   H20424676   5.301   3.418   0.937  1.2985 -0.3702  1.0711
   77MOL   H20524677   5.093   3.520   1.036  2.1560 -0.2401 -2.9703
   77MOL   H20624678   5.104   3.201   1.328  1.1611 -0.8937  0.4550
   77MOL   H20724679   5.293   3.091   1.209  1.1259  0.3263 -1.4128
   77MOL   H20824680   5.236   3.066   0.908  1.6454 -1.5280  2.0851
   77MOL   H20924681   5.308   3.163   0.783 -1.2328 -2.6535 -1.7713
   77MOL   C21024682   5.399   2.970   0.795  0.2615 -0.8919 -0.0634
   77MOL   C21124683   5.446   2.864   0.891  0.1334  0.1744  0.1469
   77MOL   C21224684   5.362   2.809   0.991  0.3172  0.4326  0.0529
   77MOL   C21324685   5.399   2.695   1.062 -0.4238  0.0356  0.3325
   77MOL   C21424686   5.519   2.628   1.024 -0.2899  0.2837 -0.2351
   77MOL  Cl21524687   5.554   2.477   1.093  0.0985 -0.2469  0.1706
   77MOL   C21624688   5.606   2.685   0.934  0.4298  0.4634 -0.6887
   77MOL   C21724689   5.572   2.806   0.870  0.2051 -0.5426  0.2657
   77MOL   C21824690   5.300   2.901   0.699 -0.4267 -0.1626 -0.3343
   77MOL   H21924691   5.488   3.005   0.744  1.6840 -3.2618  0.7301
   77MOL   H22024692   5.264   2.850   1.009  0.1083  1.2284 -2.7138
   77MOL   H22124693   5.340   2.648   1.140 -2.4062 -1.9143 -2.2628
   77MOL   H22224694   5.698   2.630   0.917  0.2594  0.0926 -0.4143
   77MOL   H22324695   5.631   2.831   0.783 -0.7731  1.3372  0.1022
   77MOL   H22424696   5.327   2.796   0.701 -0.9964 -0.3122 -0.1249
   77MOL   H22524697   5.200   2.892   0.742 -0.5844 -0.9125 -0.8553
   77MOL   C22624698   5.295   2.946   0.549  0.0900  0.4602  0.0325
   77MOL   C22724699   5.428   2.968   0.484  0.1746 -0.5813  0.1418
   77MOL   C22824700   5.519   2.866   0.452  0.6472  0.4892 -0.5840
   77MOL   C22924701   5.656   2.904   0.412 -0.0163  0.6734 -1.6644
   77MOL   C23024702   5.694   3.038   0.405  0.2729 -0.1050 -0.3522
   77MOL  Cl23124703   5.856   3.072   0.347 -0.0155  0.8519 -0.2983
   77MOL   C23224704   5.596   3.139   0.433  0.4934 -0.0248 -1.0802
   77MOL   C23324705   5.470   3.106   0.480 -0.3615  0.1563  0.5299
   77MOL   C23424706   5.212   2.842   0.472  0.4802 -0.4567  0.4094
   77MOL   H23524707   5.242   3.041   0.539  2.4112  1.6559 -1.1296
   77MOL   H23624708   5.487   2.764   0.463  0.0879  0.6396 -0.7937
   77MOL   H23724709   5.726   2.826   0.386 -1.5112 -1.1953 -0.1958
   77MOL   H23824710   5.615   3.245   0.422  0.1231  0.1740  0.1608
   77MOL   H23924711   5.402   3.185   0.507  0.3252  0.0751  2.5989
   77MOL   H24024712   5.256   2.744   0.453  1.5345 -0.4939  2.8890
   77MOL   H24124713   5.126   2.817   0.535  0.5127 -1.6281 -0.0080
   77MOL   C24224714   5.148   2.886   0.339  0.6199 -0.6210  0.0312
   77MOL   C24324715   5.251   2.901   0.229 -0.6758  0.1035  0.4933
   77MOL   C24424716   5.273   3.027   0.176  0.1235 -0.4356  0.0844
   77MOL   C24524717   5.362   3.045   0.068  0.0883 -0.0633  0.8650
   77MOL   C24624718   5.442   2.935   0.025  0.2357 -0.2903 -0.5740
   77MOL  Cl24724719   5.563   2.947   8.346  0.0138 -0.1896  0.0934
   77MOL   C24824720   5.424   2.811   0.082  0.1614  0.1345  0.1548
   77MOL   C24924721   5.331   2.795   0.185  0.3986 -0.1307 -0.0567
   77MOL   C25024722   5.030   2.794   0.296 -0.2078  0.0342  0.1846
   77MOL   H25124723   5.112   2.987   0.358  0.0794  0.0566 -4.0897
   77MOL   H25224724   5.211   3.108   0.211  1.7015  1.3341 -1.1236
   77MOL   H25324725   5.392   3.141   0.028 -2.4729  0.6585  0.5852
   77MOL   H25424726   5.484   2.730   0.045  1.2233  0.8339  0.3213
   77MOL   H25524727   5.302   2.695   0.213  0.4445  0.0764  0.7368
   77MOL   H25624728   5.004   2.823   0.194 -1.4423  3.4512  1.3964
   77MOL   H25724729   5.071   2.693   0.301 -0.3108  0.0382  1.2372
   77MOL   C25824730   4.907   2.794   0.385  0.1601 -1.0318 -0.2648
   77MOL   C25924731   4.833   2.927   0.372  0.3001 -0.0345 -0.0449
   77MOL   C26024732   4.732   2.942   0.276 -0.4114  0.5981 -0.0217
   77MOL   C26124733   4.664   3.065   0.259 -0.0637 -0.3899 -0.3843
   77MOL   C26224734   4.691   3.172   0.351 -0.0402 -0.2131 -0.3413
   77MOL  Cl26324735   4.602   3.316   0.342  0.6115  0.0560  0.1354
   77MOL   C26424736   4.789   3.153   0.450 -0.2977 -0.0241  0.7127
   77MOL   C26524737   4.864   3.035   0.459  0.0824  0.7015 -0.0488
   77MOL   C26624738   4.815   2.671   0.359 -0.2647  0.3583 -0.1263
   77MOL   H26724739   4.938   2.795   0.489 -0.0995 -3.1212 -0.1611
   77MOL   H26824740   4.707   2.860   0.212 -1.6511 -0.1635  1.3904
   77MOL   H26924741   4.590   3.082   0.183  1.3343  2.5487 -1.1449
   77MOL   H27024742   4.817   3.232   0.518  2.7442 -1.2734  0.9911
   77MOL   H27124743   4.942   3.022   0.532  0.7898  2.7004 -0.4165
   77MOL   H27224744   4.718   2.684   0.407 -0.2049  0.9775 -0.1754
   77MOL   H27324745   4.795   2.664   0.252  1.6720  1.1213 -0.5479
   77MOL   C27424746   4.870   2.537   0.410 -0.0676  0.0156  0.0482
   77MOL   C27524747   4.888   2.536   0.563  0.1294 -0.3057 -0.4439
   77MOL   C27624748   4.778   2.559   0.652 -0.7486 -0.2982 -0.0673
   77MOL   C27724749   4.791   2.564   0.789 -0.0224  0.1973  0.1365
   77MOL   C27824750   4.917   2.570   0.845  0.2005  0.6422  0.0811
   77MOL  Cl27924751   4.934   2.612   1.008 -0.1845 -0.0037  0.0174
   77MOL   C28024752   5.029   2.554   0.767 -0.3270  0.0759 -0.2950
   77MOL   C28124753   5.018   2.535   0.626  0.9946  0.3942 -0.2720
   77MOL   C28224754   4.790   2.419   0.358  0.0506 -0.1369  0.4511
   77MOL   H28324755   4.970   2.526   0.368  0.7509  0.1718  1.9013
   77MOL   H28424756   4.675   2.557   0.618 -0.5198  3.2504 -1.1026
   77MOL   H28524757   4.708   2.582   0.855  1.3383  3.3240  1.0902
   77MOL   H28624758   5.129   2.560   0.806  0.2287 -1.6670 -1.4218
   77MOL   H28724759   5.111   2.531   0.570 -0.0580  3.1348 -2.3339
   77MOL   H28824760   4.688   2.448   0.381 -0.0577 -1.3483  1.5218
   77MOL   H28924761   4.793   2.423   0.249 -0.8315  2.3045  0.4808
   77MOL   C29024762   4.819   2.284   0.420 -0.9781  0.2528  1.1620
   77MOL   C29124763   4.708   2.179   0.385 -0.7797 -0.4806 -0.0880
   77MOL   C29224764   4.666   2.089   0.484  0.9228  0.7896 -0.1558
   77MOL   C29324765   4.560   1.999   0.456  0.3824 -0.3719  0.1933
   77MOL   C29424766   4.511   1.993   0.324  0.0864  1.2233  0.2854
   77MOL  Cl29524767   4.387   1.877   0.290 -0.4287 -0.2835 -0.1227
   77MOL   C29624768   4.552   2.084   0.225 -0.5072  0.3836  0.7725
   77MOL   C29724769   4.644   2.185   0.260  0.9305 -0.0654  0.2258
   77MOL   C29824770   4.954   2.233   0.360  0.4077 -0.1072  0.4381
   77MOL   H29924771   4.823   2.290   0.529  0.4592 -2.1343  1.2955
   77MOL   H30024772   4.689   2.110   0.587  1.0457 -0.8412  0.1537
   77MOL   H30124773   4.519   1.936   0.533  1.9557  0.3453  1.6479
   77MOL   H30224774   4.515   2.077   0.124  1.2749 -3.2227  0.2865
   77MOL   H30324775   4.676   2.258   0.188 -0.4830  1.9369  1.6005
   77MOL   H30424776   4.942   2.207   0.255  0.4005  2.1463 -0.1509
   77MOL   H30524777   5.026   2.311   0.337  1.5555 -1.1457  0.4532
   77MOL   C30624778   5.018   2.124   0.446  0.1621 -0.0579  0.0056
   77MOL   C30724779   5.115   2.045   0.369 -0.0945  0.2838 -0.0172
   77MOL   C30824780   5.243   2.110   0.347 -0.3411  0.6113 -0.2058
   77MOL   C30924781   5.339   2.047   0.268  0.3054  0.5918  0.2321
   77MOL   C31024782   5.322   1.920   0.218 -0.6469  0.1600 -0.7372
   77MOL  Cl31124783   5.441   1.855   0.110 -0.1385 -0.2433  0.0431
   77MOL   C31224784   5.204   1.848   0.249  0.8928 -0.2451 -0.4559
   77MOL   C31324785   5.102   1.908   0.327  0.6127  0.5310 -0.3766
   77MOL   C31424786   5.078   2.167   0.582  0.5719  1.0977 -0.2548
   77MOL   H31524787   4.946   2.050   0.481  1.2025 -0.5612  1.1236
   77MOL   H31624788   5.270   2.207   0.386  1.3939 -0.0098  0.2062
   77MOL   H31724789   5.433   2.098   0.249  2.5915 -3.3516  0.3065
   77MOL   H31824790   5.198   1.742   0.225  2.8738 -0.6292  0.6323
   77MOL   H31924791   5.011   1.849   0.338  1.3665 -0.9232 -1.7518
   77MOL   H32024792   5.187   2.171   0.587  0.5850 -1.6687  3.4666
   77MOL   H32124793   5.036   2.259   0.623 -0.1607  0.8948 -0.5398
   77MOL   H32224794   5.066   2.087   0.655 -2.6808  0.4087 -1.4495
   78MOL     C124795   2.850   1.702   2.704  0.5955 -0.1800 -0.2526
   78MOL     C224796   2.854   1.770   2.839 -0.0782  0.7601  0.3190
   78MOL     C324797   2.970   1.762   2.919  0.3322  0.6728 -0.4628
   78MOL     C424798   2.983   1.828   3.041 -0.1380 -0.0627 -0.6505
   78MOL     C524799   2.873   1.900   3.090  0.1914  0.1134  0.1503
   78MOL    Cl624800   2.885   1.989   3.236  0.1334 -0.0351  0.0922
   78MOL     C724801   2.749   1.893   3.022 -0.0232 -0.4320  0.5064
   78MOL     C824802   2.740   1.836   2.892  0.4735 -0.1862  0.3632
   78MOL     C924803   2.765   1.769   2.591 -0.1453 -0.2904 -0.3530
   78MOL    H1024804   2.805   1.606   2.728  0.7707 -0.4321 -0.9349
   78MOL    H1124805   3.057   1.705   2.891  1.3052  1.3211  1.1614
   78MOL    H1224806   3.079   1.824   3.091  0.1534  0.3127 -1.1730
   78MOL    H1324807   2.662   1.949   3.055 -1.4369 -1.3474 -1.5924
   78MOL    H1424808   2.648   1.842   2.835  0.3133 -1.4413  0.4623
   78MOL    H1524809   2.682   1.829   2.630 -0.1760  0.1209 -1.0436
   78MOL    H1624810   2.830   1.844   2.545  1.6023 -3.1453 -2.7089
   78MOL    H1724811   2.951   1.693   2.665  0.9915 -0.1320  0.7437
   78MOL    C1824812   2.716   1.682   2.469 -0.1263  0.3067  0.2755
   78MOL    C1924813   2.821   1.611   2.387  0.1047 -0.8209 -0.0337
   78MOL    C2024814   2.921   1.688   2.333 -0.0883  0.3046 -0.8152
   78MOL    C2124815   3.010   1.627   2.244  0.4807  0.2529 -0.4818
   78MOL    C2224816   3.008   1.489   2.207 -0.1468 -0.1726  0.7476
   78MOL   Cl2324817   3.121   1.432   2.090 -0.1663  0.0608 -0.1074
   78MOL    C2424818   2.913   1.413   2.276  0.2382 -0.2381  0.3402
   78MOL    C2524819   2.827   1.473   2.371 -0.1160 -0.1481  0.6314
   78MOL    C2624820   2.591   1.597   2.487  0.1603 -0.6476 -1.1168
   78MOL    H2724821   2.682   1.761   2.402 -1.0649 -2.0528 -2.1165
   78MOL    H2824822   2.926   1.794   2.352 -1.7524 -0.0168  1.6624
   78MOL    H2924823   3.076   1.695   2.190  0.3642 -0.1855 -1.1826
   78MOL    H3024824   2.914   1.306   2.264  1.9288 -0.0827 -1.1738
   78MOL    H3124825   2.755   1.404   2.410 -0.7413 -0.8960 -1.7795
   78MOL    H3224826   2.561   1.547   2.395 -2.0918 -3.2571  0.9574
   78MOL    H3324827   2.621   1.520   2.558 -0.5887 -0.9448 -1.1165
   78MOL    C3424828   2.466   1.669   2.539  1.1126 -0.8725 -0.1067
   78MOL    C3524829   2.431   1.787   2.450  0.0887  0.5810  0.0717
   78MOL    C3624830   2.418   1.766   2.314 -0.7330 -0.2558  0.4730
   78MOL    C3724831   2.403   1.873   2.222  0.0629 -0.6224 -0.6157
   78MOL    C3824832   2.385   2.003   2.271 -0.2990  0.1234 -0.2846
   78MOL   Cl3924833   2.341   2.131   2.167  0.2087  0.1889 -0.0794
   78MOL    C4024834   2.392   2.023   2.411 -0.1347 -0.7656  0.0698
   78MOL    C4124835   2.407   1.917   2.499 -0.2536 -0.2475 -0.0541
   78MOL    C4224836   2.334   1.594   2.553  0.1062 -0.7346  0.4286
   78MOL    H4324837   2.493   1.711   2.636 -0.7706 -0.3623  0.2225
   78MOL    H4424838   2.437   1.667   2.275  2.4928  0.1849  0.7966
   78MOL    H4524839   2.398   1.849   2.116  1.7482 -0.1863 -0.7996
   78MOL    H4624840   2.367   2.122   2.448  0.0096 -1.0955  1.0609
   78MOL    H4724841   2.402   1.941   2.604  2.3153 -1.3988  0.3859
   78MOL    H4824842   2.253   1.656   2.592  0.8102 -0.5059  1.5398
   78MOL    H4924843   2.303   1.566   2.452  0.9968 -2.4268  0.6050
   78MOL    C5024844   2.332   1.480   2.647  0.1893 -0.0789  0.0334
   78MOL    C5124845   2.405   1.512   2.780 -0.4678 -0.4382  0.2028
   78MOL    C5224846   2.532   1.462   2.804  0.4009  0.2128  0.0379
   78MOL    C5324847   2.609   1.510   2.912  0.7059  0.1986 -0.3448
   78MOL    C5424848   2.535   1.580   3.012 -0.3815  0.0794  0.0894
   78MOL   Cl5524849   2.620   1.599   3.166  0.1551  0.3438 -0.0746
   78MOL    C5624850   2.405   1.631   2.997  0.7195 -0.1402  0.4057
   78MOL    C5724851   2.344   1.591   2.875  0.0853 -0.2142  0.3589
   78MOL    C5824852   2.191   1.418   2.673 -0.9190  0.6175  0.2405
   78MOL    H5924853   2.388   1.397   2.604 -0.8059 -2.0707  2.4277
   78MOL    H6024854   2.577   1.389   2.738 -0.1521 -0.3966  0.3291
   78MOL    H6124855   2.706   1.467   2.934  1.2037  1.6029  0.2135
   78MOL    H6224856   2.361   1.693   3.075 -1.2962 -1.6016  0.4694
   78MOL    H6324857   2.252   1.638   2.843  0.5480 -0.7357 -1.8008
   78MOL    H6424858   2.129   1.492   2.722  0.7167  0.5291  2.5267
   78MOL    H6524859   2.152   1.398   2.573  0.7207  0.8720 -0.4831
   78MOL    C6624860   2.194   1.279   2.748  0.3118  1.0160 -0.7715
   78MOL    C6724861   2.064   1.259   2.825 -0.9398 -0.1771  0.2183
   78MOL    C6824862   2.067   1.263   2.969 -0.1741  0.0330 -0.3393
   78MOL    C6924863   1.947   1.247   3.043  0.0621  0.3546  0.0129
   78MOL    C7024864   1.825   1.222   2.972  0.7042 -0.0543 -0.3160
   78MOL   Cl7124865   1.691   1.164   3.063  0.0386 -0.4617 -0.3268
   78MOL    C7224866   1.823   1.224   2.833  0.8354 -0.4048  0.1595
   78MOL    C7324867   1.939   1.249   2.760 -0.2952  0.1856 -0.6626
   78MOL    C7424868   2.225   1.148   2.671 -0.3668  0.1853 -0.5036
   78MOL    H7524869   2.271   1.292   2.824  0.5098  1.0176 -0.9741
   78MOL    H7624870   2.159   1.269   3.025  0.0514 -0.2503 -0.6760
   78MOL    H7724871   1.944   1.220   3.148 -1.5512 -1.7195 -0.5191
   78MOL    H7824872   1.729   1.206   2.783  1.4834 -1.7292 -0.6133
   78MOL    H7924873   1.936   1.244   2.652  0.5228  1.2982 -0.7364
   78MOL    H8024874   2.140   1.115   2.612 -0.2549 -1.6201  0.2940
   78MOL    H8124875   2.305   1.190   2.611 -1.6276 -0.4754 -2.6872
   78MOL    C8224876   2.303   1.037   2.755  0.0179  0.8457  0.0649
   78MOL    C8324877   2.239   0.984   2.883 -0.0457  0.4509  0.2924
   78MOL    C8424878   2.115   0.921   2.875  0.0148 -0.0937 -0.3391
   78MOL    C8524879   2.055   0.869   2.987  0.1761  0.0521 -0.0917
   78MOL    C8624880   2.113   0.896   3.115 -0.1940  0.2750  0.1272
   78MOL   Cl8724881   2.019   0.860   3.256 -0.6426  0.6269  0.2240
   78MOL    C8824882   2.235   0.959   3.121  0.3444 -0.1599  0.4788
   78MOL    C8924883   2.304   0.997   3.008  0.1825 -0.6302  0.3428
   78MOL    C9024884   2.343   0.922   2.657  1.0260  0.0010  0.1862
   78MOL    H9124885   2.398   1.082   2.785  0.1777  0.6305 -0.1106
   78MOL    H9224886   2.067   0.914   2.778  1.1091  3.9808 -1.2796
   78MOL    H9324887   1.957   0.824   2.983  0.1127 -0.0457  2.0274
   78MOL    H9424888   2.276   0.981   3.219 -0.1119  1.7600  0.2670
   78MOL    H9524889   2.401   1.043   3.001 -0.7569  1.5226  0.9155
   78MOL    H9624890   2.268   0.844   2.669 -0.4830  1.5337  1.0076
   78MOL    H9724891   2.343   0.954   2.553 -0.8607  0.6271  0.3698
   78MOL    C9824892   2.488   0.867   2.663  0.1640  0.3194  0.6671
   78MOL    C9924893   2.505   0.813   2.800 -0.9273 -0.1927  0.4446
   78MOL   C10024894   2.587   0.879   2.895  0.8172 -0.0606 -0.2171
   78MOL   C10124895   2.613   0.833   3.020  0.0061  0.9194 -0.3698
   78MOL   C10224896   2.563   0.711   3.060  0.2391 -0.0019  0.3981
   78MOL  Cl10324897   2.579   0.637   3.220  0.0745  0.2401  0.0601
   78MOL   C10424898   2.482   0.639   2.964 -0.3205  0.5831 -0.3238
   78MOL   C10524899   2.445   0.690   2.837  0.2315  0.1144  0.0053
   78MOL   C10624900   2.529   0.760   2.558  0.0556  0.0458 -0.1750
   78MOL   H10724901   2.545   0.959   2.648 -0.5071  0.5038 -0.8142
   78MOL   H10824902   2.632   0.970   2.859  1.9219 -0.4833  0.0865
   78MOL   H10924903   2.675   0.887   3.090 -0.3404 -0.1551  0.7866
   78MOL   H11024904   2.443   0.541   2.987  1.5336 -0.3293 -0.9803
   78MOL   H11124905   2.375   0.629   2.782  0.3978 -1.1190  1.1331
   78MOL   H11224906   2.466   0.671   2.567 -0.0438  0.2322  0.9324
   78MOL   H11324907   2.506   0.786   2.454 -1.5089 -0.9089 -0.0953
   78MOL   C11424908   2.679   0.716   2.573  0.0723 -0.7337  0.4584
   78MOL   C11524909   2.691   0.571   2.522 -0.5173  0.0582 -0.5245
   78MOL   C11624910   2.700   0.540   2.388  0.1974  0.6756 -0.2655
   78MOL   C11724911   2.705   0.412   2.335  0.2101  0.1540  0.0647
   78MOL   C11824912   2.689   0.303   2.428  0.2937  0.6913  0.9018
   78MOL  Cl11924913   2.693   0.147   2.378 -0.2050 -0.0107  0.0571
   78MOL   C12024914   2.663   0.326   2.561 -0.3617 -0.8380  0.5930
   78MOL   C12124915   2.672   0.465   2.614  0.1437 -0.0017  0.3379
   78MOL   C12224916   2.784   0.816   2.516 -1.0419  0.1173 -0.4362
   78MOL   H12324917   2.698   0.701   2.680  1.1933 -0.9262  0.2404
   78MOL   H12424918   2.711   0.616   2.313  0.6173  0.0548 -0.8384
   78MOL   H12524919   2.709   0.385   2.230  0.2334 -0.4607  0.2191
   78MOL   H12624920   2.648   0.242   2.627  0.3216 -0.4169  1.2959
   78MOL   H12724921   2.656   0.489   2.719 -1.0405  0.7846 -0.0101
   78MOL   H12824922   2.755   0.838   2.413 -0.4538  1.1184 -0.3964
   78MOL   H12924923   2.773   0.909   2.571  0.8649 -0.5406  1.1098
   78MOL   C13024924   2.928   0.768   2.522  0.7879  0.1100 -0.0072
   78MOL   C13124925   3.026   0.855   2.441 -0.2531  0.8988  0.4216
   78MOL   C13224926   3.023   0.995   2.460 -0.0425  0.1033 -0.2948
   78MOL   C13324927   3.118   1.070   2.391 -0.1662  0.1928 -0.1251
   78MOL   C13424928   3.218   1.012   2.315 -1.0060 -0.6650 -0.2728
   78MOL  Cl13524929   3.332   1.113   2.229 -0.0864  0.2884 -0.3300
   78MOL   C13624930   3.220   0.869   2.305 -0.4199  0.1217  0.8146
   78MOL   C13724931   3.119   0.789   2.358 -0.2753  0.2234 -0.6463
   78MOL   C13824932   2.978   0.747   2.668  0.6600 -0.3292  0.5681
   78MOL   H13924933   2.922   0.672   2.472  2.6899  0.7814 -1.6056
   78MOL   H14024934   2.967   1.048   2.536  1.9481 -1.1391  2.0993
   78MOL   H14124935   3.123   1.176   2.408  0.5926 -0.0307  1.1285
   78MOL   H14224936   3.292   0.815   2.244 -0.9884 -2.0667  2.0065
   78MOL   H14324937   3.124   0.682   2.346  0.3473  0.3396 -1.4660
   78MOL   H14424938   3.046   0.829   2.694 -1.4523  1.7635 -0.3247
   78MOL   H14524939   2.901   0.760   2.743  0.4700  1.0525  0.1547
   78MOL   C14624940   3.046   0.614   2.694 -0.2642  0.3062 -0.3789
   78MOL   C14724941   3.170   0.600   2.605  0.7585  0.3425  0.1498
   78MOL   C14824942   3.277   0.690   2.637  0.2947  1.0782  0.4094
   78MOL   C14924943   3.401   0.681   2.568  0.1884 -0.0090 -0.4736
   78MOL   C15024944   3.420   0.579   2.471  0.6896 -0.2007  0.2943
   78MOL  Cl15124945   3.571   0.581   2.390 -0.5145  0.6084 -0.4401
   78MOL   C15224946   3.321   0.480   2.454 -0.0088 -0.4976 -0.0701
   78MOL   C15324947   3.192   0.495   2.514 -0.0271  0.0103 -0.0996
   78MOL   C15424948   3.058   0.569   2.844  0.2422 -0.4710  0.3440
   78MOL   H15524949   2.965   0.547   2.665  1.1764 -1.5206 -0.3138
   78MOL   H15624950   3.261   0.763   2.715  0.4079  0.5873  0.8983
   78MOL   H15724951   3.484   0.748   2.590  1.2304 -1.5826  0.5119
   78MOL   H15824952   3.343   0.387   2.403  0.9209 -1.2742  1.6873
   78MOL   H15924953   3.103   0.435   2.499 -0.5368  0.8025 -0.2830
   78MOL   H16024954   3.094   0.661   2.890  0.4989  0.8288 -2.3721
   78MOL   H16124955   2.958   0.548   2.883  0.8951 -2.1664  1.1636
   78MOL   C16224956   3.149   0.453   2.875 -0.5258  0.2684  0.0177
   78MOL   C16324957   3.185   0.444   3.016 -0.5177  0.1757  0.2371
   78MOL   C16424958   3.087   0.423   3.113  0.5231  0.2617 -0.7415
   78MOL   C16524959   3.119   0.418   3.248  0.4275  0.7185  0.2340
   78MOL   C16624960   3.250   0.437   3.290  0.3731 -0.7354 -0.4620
   78MOL  Cl16724961   3.299   0.427   3.459 -0.0745  0.3094 -0.0426
   78MOL   C16824962   3.348   0.461   3.197 -0.3000 -0.3260  0.5686
   78MOL   C16924963   3.319   0.471   3.059  0.1401 -0.4587  0.8651
   78MOL   C17024964   3.098   0.318   2.817  0.2684 -0.2167  0.5306
   78MOL   H17124965   3.246   0.465   2.827  0.3201  0.0037  1.6073
   78MOL   H17224966   2.983   0.397   3.099 -0.1318  2.5089 -0.2517
   78MOL   H17324967   3.047   0.396   3.325  0.7717  2.4296  1.0728
   78MOL   H17424968   3.447   0.482   3.234  0.2685  2.7031 -2.5035
   78MOL   H17524969   3.395   0.478   2.982 -2.1865 -1.5102 -1.6337
   78MOL   H17624970   3.005   0.287   2.864  0.6192 -0.1206  1.2986
   78MOL   H17724971   3.070   0.336   2.713  3.5371 -0.8148 -0.4942
   78MOL   C17824972   3.197   0.194   2.808 -0.0403 -0.0225 -0.2842
   78MOL   C17924973   3.137   0.069   2.738  0.2725  0.5770 -0.7445
   78MOL   C18024974   3.059   8.419   2.810  0.8650  0.0939  0.2531
   78MOL   C18124975   2.994   8.306   2.749 -0.3415 -0.0003  0.5148
   78MOL   C18224976   3.011   8.286   2.610 -0.2392  0.0763  0.5972
   78MOL  Cl18324977   2.947   8.146   2.530 -0.2064  0.1698  0.0398
   78MOL   C18424978   3.088   8.382   2.536  0.5921  0.1262 -0.3411
   78MOL   C18524979   3.141   0.056   2.596  0.6224  0.3325 -0.5885
   78MOL   C18624980   3.348   0.226   2.772 -1.0776 -0.2035  0.3185
   78MOL   H18724981   3.217   0.158   2.909  3.7825 -0.5112 -1.1273
   78MOL   H18824982   3.055   0.002   2.915  0.1356  5.6765 -1.0032
   78MOL   H18924983   2.942   8.230   2.805  0.0340 -0.5273  0.1542
   78MOL   H19024984   3.099   8.362   2.431 -0.7303 -1.5377 -0.1881
   78MOL   H19124985   3.202   0.125   2.539 -0.8164  1.8805 -0.3122
   78MOL   H19224986   3.347   0.284   2.680 -0.3754 -2.9725 -1.5008
   78MOL   H19324987   3.403   0.287   2.843 -2.7076  2.3579 -0.5395
   78MOL   C19424988   3.456   0.112   2.751  0.7697  0.3558 -0.1183
   78MOL   C19524989   3.581   0.165   2.679  0.1064 -0.2445  0.1691
   78MOL   C19624990   3.602   0.140   2.542 -0.4320  0.5125  0.6127
   78MOL   C19724991   3.714   0.199   2.471  0.5147  0.0896  0.6787
   78MOL   C19824992   3.804   0.285   2.547 -0.2043 -0.0330 -0.0237
   78MOL  Cl19924993   3.941   0.342   2.466 -0.2618 -0.0956  0.4702
   78MOL   C20024994   3.781   0.310   2.687 -0.9134  0.0879  0.0337
   78MOL   C20124995   3.669   0.242   2.750  0.1765 -0.3891  1.0871
   78MOL   C20224996   3.499   0.045   2.887  0.2477 -0.7124 -0.0238
   78MOL   H20324997   3.411   0.033   2.692 -1.0245  1.2290  0.0235
   78MOL   H20424998   3.537   0.073   2.488  1.8863  1.1302 -3.0820
   78MOL   H20524999   3.738   0.188   2.367  2.1477  2.3415  0.7863
   78MOL   H20625000   3.845   0.372   2.749 -0.2939 -1.6030  1.1045
   78MOL   H20725001   3.652   0.263   2.855  0.3171  0.6250  0.9165
   78MOL   H20825002   3.540   0.115   2.959 -0.0086 -0.9639  0.3716
   78MOL   H20925003   3.404   0.026   2.938  0.1059 -1.4998 -0.5638
   78MOL   C21025004   3.580   8.354   2.882 -0.1149  0.0045 -0.0448
   78MOL   C21125005   3.639   8.314   3.016  0.0591  0.0484  0.0602
   78MOL   C21225006   3.779   8.269   3.044 -0.2267  0.1720  0.4610
   78MOL   C21325007   3.816   8.237   3.177 -0.1367  0.4333 -0.1838
   78MOL   C21425008   3.715   8.220   3.272 -1.0437 -0.5743  0.3644
   78MOL  Cl21525009   3.765   8.169   3.427  0.2086 -0.4084  0.0284
   78MOL   C21625010   3.582   8.258   3.251  0.7193  0.1966 -0.3105
   78MOL   C21725011   3.547   8.305   3.130  0.1572 -0.3077 -0.5904
   78MOL   C21825012   3.495   8.240   2.815 -0.3528 -0.5770  0.4752
   78MOL   H21925013   3.663   8.376   2.815 -0.5846  0.8322 -0.3642
   78MOL   H22025014   3.849   8.269   2.961 -2.0331 -1.1135 -1.0976
   78MOL   H22125015   3.916   8.204   3.203 -0.3835  0.4098  0.7658
   78MOL   H22225016   3.503   8.276   3.323  2.1083  2.8018  0.6293
   78MOL   H22325017   3.446   8.341   3.121 -0.2852 -1.1630  0.7968
   78MOL   H22425018   3.502   8.158   2.886  1.5773 -0.2805  0.6653
   78MOL   H22525019   3.389   8.266   2.815  0.1140  1.5373 -1.1256
   78MOL   C22625020   3.546   8.207   2.667  0.0178 -0.4452 -0.2192
   78MOL   C22725021   3.694   8.163   2.672 -0.3097 -0.1718  0.1549
   78MOL   C22825022   3.738   8.074   2.774  0.1911  0.2353 -0.4160
   78MOL   C22925023   3.875   8.036   2.784  0.2813 -0.0263  0.4522
   78MOL   C23025024   3.968   8.091   2.698 -0.2427  0.1295  0.2336
   78MOL  Cl23125025   4.132   8.034   2.694 -0.0766 -0.5228 -0.1656
   78MOL   C23225026   3.925   8.182   2.597  0.3095  0.0845  0.2578
   78MOL   C23325027   3.793   8.217   2.586 -0.3914  0.0075  0.0088
   78MOL   C23425028   3.451   8.123   2.581  0.2665 -0.0363  0.3874
   78MOL   H23525029   3.540   8.301   2.611  2.2860  0.2993  0.7256
   78MOL   H23625030   3.678   8.036   2.856  0.9850 -0.4876 -0.1680
   78MOL   H23725031   3.898   7.967   2.863 -1.4405  0.2328  1.2040
   78MOL   H23825032   3.994   8.220   2.523 -0.6730  0.2147 -0.6095
   78MOL   H23925033   3.764   8.282   2.505 -1.2544 -0.8293 -0.3730
   78MOL   H24025034   3.352   8.168   2.577  0.2482 -0.0140  1.0552
   78MOL   H24125035   3.479   8.130   2.476 -1.3358 -1.5825 -0.1822
   78MOL   C24225036   3.433   7.975   2.624 -0.1547 -0.1795  0.1735
   78MOL   C24325037   3.291   7.927   2.591  0.4237  0.3199 -0.1833
   78MOL   C24425038   3.198   7.916   2.697 -0.0310  0.0882  0.0387
   78MOL   C24525039   3.067   7.862   2.676  0.4641  0.5285 -0.5044
   78MOL   C24625040   3.025   7.817   2.554  0.0493  0.0928  0.7946
   78MOL  Cl24725041   2.883   7.727   2.528  0.1216  0.1401 -0.3374
   78MOL   C24825042   3.114   7.833   2.443  0.8310 -0.6598 -0.2050
   78MOL   C24925043   3.242   7.884   2.461 -0.1669 -0.0520 -0.2417
   78MOL   C25025044   3.546   7.910   2.538 -0.2262 -0.2402 -0.3545
   78MOL   H25125045   3.448   7.953   2.730 -1.5618  1.1270  0.6538
   78MOL   H25225046   3.223   7.935   2.800 -1.6743  0.5060  0.3757
   78MOL   H25325047   3.009   7.842   2.765  0.4645  1.0488 -0.3850
   78MOL   H25425048   3.090   7.819   2.339  0.7329 -1.8560 -0.0344
   78MOL   H25525049   3.306   7.905   2.376 -2.7332 -1.5480 -2.6413
   78MOL   H25625050   3.514   7.916   2.434  0.6826 -1.0961 -0.6966
   78MOL   H25725051   3.642   7.961   2.551  0.5978 -1.7154 -0.4766
   78MOL   C25825052   3.570   7.761   2.557 -0.4383  0.6904  0.1890
   78MOL   C25925053   3.662   7.700   2.453  0.1092 -0.1719 -0.1998
   78MOL   C26025054   3.783   7.764   2.416 -0.2402 -0.3189  0.3212
   78MOL   C26125055   3.859   7.713   2.311 -0.4685 -1.1037 -0.4996
   78MOL   C26225056   3.813   7.603   2.245  0.3232 -0.0545 -0.1085
   78MOL  Cl26325057   3.912   7.525   2.129 -0.0581 -0.0678 -0.0378
   78MOL   C26425058   3.697   7.532   2.285  0.1639 -0.0294  0.1651
   78MOL   C26525059   3.619   7.578   2.390 -0.2677 -0.2839  0.9675
   78MOL   C26625060   3.624   7.733   2.699 -0.3486  1.1507 -0.4395
   78MOL   H26725061   3.475   7.709   2.549  0.5571 -1.5186  2.2461
   78MOL   H26825062   3.819   7.849   2.472  0.6519 -0.0778 -0.6058
   78MOL   H26925063   3.947   7.766   2.274 -1.1520  0.4032 -0.0031
   78MOL   H27025064   3.666   7.444   2.230 -0.6147  0.1389  0.3351
   78MOL   H27125065   3.531   7.520   2.412 -0.6970 -0.6460 -1.5556
   78MOL   H27225066   3.697   7.813   2.709  0.6852  0.0614  1.1292
   78MOL   H27325067   3.540   7.761   2.762  0.4936 -0.9432  1.6877
   78MOL   C27425068   3.673   7.589   2.734  0.1238  0.6525  0.3592
   78MOL   C27525069   3.829   7.579   2.723  0.7693 -0.1512 -0.5825
   78MOL   C27625070   3.893   7.462   2.668 -0.4777 -0.6906  0.2971
   78MOL   C27725071   4.032   7.457   2.651  0.3647  0.1628  0.1703
   78MOL   C27825072   4.110   7.570   2.696  0.7704  0.2322  0.3187
   78MOL  Cl27925073   4.282   7.578   2.687 -0.0982 -0.1438 -0.0016
   78MOL   C28025074   4.051   7.673   2.770  0.0172  0.4884  0.0011
   78MOL   C28125075   3.912   7.674   2.792 -1.1266  0.2546 -0.3493
   78MOL   C28225076   3.635   7.543   2.878  0.3467 -0.0645  0.6045
   78MOL   H28325077   3.630   7.518   2.664  0.4774  0.0321  0.7623
   78MOL   H28425078   3.834   7.378   2.635 -0.8939  0.1820 -1.2263
   78MOL   H28525079   4.080   7.369   2.609 -2.4464 -0.2855 -2.2493
   78MOL   H28625080   4.109   7.754   2.811 -0.6180  0.0088  1.8904
   78MOL   H28725081   3.869   7.749   2.858 -3.5956 -1.6158  0.2581
   78MOL   H28825082   3.687   7.448   2.893 -0.1647 -0.4540 -0.0760
   78MOL   H28925083   3.687   7.612   2.945  0.7765 -1.0531  1.3019
   78MOL   C29025084   3.492   7.542   2.918 -0.6330  0.4077 -0.3474
   78MOL   C29125085   3.399   7.469   2.825  0.2811  0.2267 -0.7673
   78MOL   C29225086   3.308   7.535   2.736 -0.5078 -0.0818 -0.2532
   78MOL   C29325087   3.219   7.461   2.656 -0.0031 -0.3306  1.0337
   78MOL   C29425088   3.225   7.318   2.655  0.6230  0.4675  0.6334
   78MOL  Cl29525089   3.107   7.226   2.562 -0.0700  0.4518 -0.1310
   78MOL   C29625090   3.313   7.253   2.737 -0.1715  0.2134  0.7526
   78MOL   C29725091   3.403   7.325   2.819  0.7888 -0.3245  0.0649
   78MOL   C29825092   3.484   7.490   3.063  0.6158  0.4770  1.1620
   78MOL   H29925093   3.460   7.647   2.913  2.0760  1.4460  2.3725
   78MOL   H30025094   3.319   7.642   2.733  2.0511 -0.3566 -2.7756
   78MOL   H30125095   3.155   7.518   2.590  0.1958  2.1712  2.9623
   78MOL   H30225096   3.323   7.146   2.732  0.0231  0.3217 -1.9242
   78MOL   H30325097   3.477   7.268   2.875  2.2307 -0.0835 -1.5430
   78MOL   H30425098   3.380   7.461   3.079  0.0427  2.0453  0.4419
   78MOL   H30525099   3.541   7.398   3.066  1.5284  1.0637  2.1222
   78MOL   C30625100   3.521   7.587   3.183 -0.2434  0.2156  0.1004
   78MOL   C30725101   3.429   7.710   3.164  0.0624  0.6366 -0.6108
   78MOL   C30825102   3.293   7.695   3.162 -0.4903  1.1269  0.3287
   78MOL   C30925103   3.201   7.801   3.152 -0.0620 -0.1153  0.2081
   78MOL   C31025104   3.257   7.929   3.131  0.2700 -0.5324  0.6778
   78MOL  Cl31125105   3.164   8.064   3.104 -0.5184  0.4003  0.0718
   78MOL   C31225106   3.394   7.947   3.130 -0.0845 -0.0097  0.2578
   78MOL   C31325107   3.484   7.842   3.150 -0.7918 -0.8810  0.1575
   78MOL   C31425108   3.512   7.520   3.323  0.0568  0.0104  0.3253
   78MOL   H31525109   3.624   7.607   3.155 -0.0891 -2.2718 -1.2676
   78MOL   H31625110   3.262   7.592   3.160  0.9168  0.6818  0.5647
   78MOL   H31725111   3.094   7.787   3.149 -0.2023  0.8907  0.3990
   78MOL   H31825112   3.439   8.045   3.117  0.9726 -0.7043 -1.4323
   78MOL   H31925113   3.590   7.864   3.151 -1.0818  0.6532 -0.8680
   78MOL   H32025114   3.562   7.423   3.325 -0.9979 -0.5348  0.7147
   78MOL   H32125115   3.565   7.570   3.404  0.7979  0.0904 -0.2014
   78MOL   H32225116   3.407   7.509   3.351  0.3615  0.5734  1.7172
   79MOL     C125117   0.766   4.534   3.446  0.0257  0.6784 -0.0861
   79MOL     C225118   0.687   4.409   3.471 -0.3458  0.3990  0.1480
   79MOL     C325119   0.654   4.380   3.605  0.2833  0.2431  1.0573
   79MOL     C425120   0.578   4.263   3.631  0.3761 -0.0695 -0.1041
   79MOL     C525121   0.538   4.174   3.528 -0.6014  0.3291 -0.6408
   79MOL    Cl625122   0.469   4.016   3.570 -0.0264 -0.4706  0.3171
   79MOL     C725123   0.574   4.208   3.398 -0.1177 -0.4380 -0.4010
   79MOL     C825124   0.643   4.326   3.367 -0.1732 -0.8579 -0.2083
   79MOL     C925125   0.674   4.636   3.382 -0.4667 -0.1224 -0.2366
   79MOL    H1025126   0.840   4.499   3.374  1.0997  2.9424 -0.1433
   79MOL    H1125127   0.687   4.445   3.684  2.3802 -0.7379  1.0044
   79MOL    H1225128   0.567   4.240   3.736 -1.5335 -0.4612 -0.3772
   79MOL    H1325129   0.556   4.135   3.320  2.4734 -0.2474 -1.2005
   79MOL    H1425130   0.674   4.341   3.264  1.1504 -2.3766 -0.0540
   79MOL    H1525131   0.637   4.595   3.288 -0.7256  1.1553 -0.7146
   79MOL    H1625132   0.585   4.654   3.444 -1.5288  0.0430 -1.7809
   79MOL    H1725133   0.821   4.564   3.535  0.6566  0.0697 -0.2672
   79MOL    C1825134   0.744   4.772   3.358 -0.6550 -0.4694 -0.2301
   79MOL    C1925135   0.867   4.765   3.273 -0.3596  0.4217  0.6053
   79MOL    C2025136   0.969   4.862   3.286  0.1436 -0.0745  0.9489
   79MOL    C2125137   1.081   4.873   3.193  0.5436  0.2750  0.4086
   79MOL    C2225138   1.085   4.785   3.086 -0.5756  0.6314  0.3699
   79MOL   Cl2325139   1.225   4.787   2.983  0.0458 -0.0865 -0.2220
   79MOL    C2425140   0.986   4.687   3.070 -0.2744  0.1017 -0.3177
   79MOL    C2525141   0.881   4.676   3.161  0.0855 -0.0246 -1.0312
   79MOL    C2625142   0.647   4.884   3.292  0.1233 -0.0582  0.1519
   79MOL    H2725143   0.780   4.811   3.453 -0.2423 -1.1758 -0.0885
   79MOL    H2825144   0.957   4.932   3.368  2.9658  1.1842  0.3506
   79MOL    H2925145   1.147   4.957   3.203  0.1220  0.4653  1.7409
   79MOL    H3025146   0.987   4.615   2.990  0.7906  0.3161 -0.5106
   79MOL    H3125147   0.811   4.596   3.141 -0.5749  0.5162 -0.9082
   79MOL    H3225148   0.687   4.977   3.252 -0.0974 -0.7190 -1.6432
   79MOL    H3325149   0.595   4.840   3.207  2.7635 -0.6342 -1.2244
   79MOL    C3425150   0.533   4.935   3.386  0.1745 -0.3934  0.4881
   79MOL    C3525151   0.587   5.000   3.509  0.7793  0.2080  0.2164
   79MOL    C3625152   0.657   5.117   3.492 -0.4659  0.8741 -0.0782
   79MOL    C3725153   0.721   5.182   3.600 -0.4095  0.0480  0.3782
   79MOL    C3825154   0.719   5.119   3.723  0.5893  0.8339 -0.2833
   79MOL   Cl3925155   0.807   5.184   3.855 -0.1722  0.0082 -0.7307
   79MOL    C4025156   0.641   5.001   3.741 -0.4227 -0.7000  0.2159
   79MOL    C4125157   0.581   4.938   3.632  1.0046  0.3102 -0.0915
   79MOL    C4225158   0.418   5.018   3.320  0.0735  0.2025 -0.0368
   79MOL    H4325159   0.479   4.844   3.413 -0.6804 -0.3317 -0.9705
   79MOL    H4425160   0.659   5.166   3.396  1.2710  1.1392  0.0783
   79MOL    H4525161   0.756   5.281   3.576 -1.3456 -0.3063 -2.7314
   79MOL    H4625162   0.647   4.958   3.840 -0.7433  2.0585  1.4715
   79MOL    H4725163   0.520   4.853   3.657 -0.1950  0.9090 -0.9415
   79MOL    H4825164   0.448   5.121   3.340 -3.3117  0.9965  1.1404
   79MOL    H4925165   0.420   5.014   3.211 -1.0034  0.0545 -0.0554
   79MOL    C5025166   0.274   4.980   3.348  0.0621  0.3168  0.7887
   79MOL    C5125167   0.235   4.847   3.280  0.3018  0.1723  0.0832
   79MOL    C5225168   0.256   4.719   3.340  0.0944  0.0532  0.1821
   79MOL    C5325169   0.229   4.599   3.270  1.3961 -0.2618 -0.6445
   79MOL    C5425170   0.191   4.603   3.134 -0.9378 -0.2608 -0.0109
   79MOL   Cl5525171   0.180   4.454   3.039  0.2943 -0.0601  0.4231
   79MOL    C5625172   0.163   4.734   3.076  0.3773  0.2091  0.9437
   79MOL    C5725173   0.189   4.854   3.147  0.1247  0.2846 -0.4338
   79MOL    C5825174   0.243   4.984   3.501 -0.1623 -0.2553  0.5584
   79MOL    H5925175   0.210   5.058   3.308  0.9415 -0.0600 -1.4625
   79MOL    H6025176   0.294   4.708   3.440  1.0635 -0.1814 -0.2053
   79MOL    H6125177   0.266   4.507   3.314  2.0957 -0.3564 -1.3986
   79MOL    H6225178   0.135   4.750   2.973  0.7970 -0.7407  0.6717
   79MOL    H6325179   0.190   4.945   3.089  0.5071  1.2271  1.0064
   79MOL    H6425180   0.309   4.915   3.553 -1.4747 -1.6328  0.4636
   79MOL    H6525181   0.257   5.087   3.532  2.3608 -0.3125 -0.3502
   79MOL    C6625182   0.097   4.938   3.549  0.7157 -0.5182 -0.1509
   79MOL    C6725183   0.099   4.934   3.706  0.4331  0.2070  0.0694
   79MOL    C6825184   0.124   5.045   3.789 -0.5493 -0.0699 -0.1994
   79MOL    C6925185   0.106   5.040   3.930 -0.4241  0.4737 -0.3311
   79MOL    C7025186   0.066   4.912   3.985 -0.2034 -0.6448  0.8872
   79MOL   Cl7125187   0.045   4.902   4.150 -0.0476 -0.2558 -0.2261
   79MOL    C7225188   0.052   4.803   3.907  0.1638 -0.4407 -0.3319
   79MOL    C7325189   0.062   4.808   3.765 -0.3236  0.0546  0.0813
   79MOL    C7425190   8.430   5.034   3.502  0.2810  0.4088 -0.1952
   79MOL    H7525191   0.086   4.841   3.499  1.7824  0.4016 -2.2168
   79MOL    H7625192   0.148   5.139   3.742 -1.4498 -0.1076 -0.7359
   79MOL    H7725193   0.125   5.123   3.996 -1.4003  0.3158  0.1717
   79MOL    H7825194   0.029   4.712   3.960  1.9686 -1.3115 -0.9814
   79MOL    H7925195   0.057   4.714   3.711 -1.2508 -0.1981  0.5994
   79MOL    H8025196   8.440   5.131   3.552  0.9972 -0.8766  2.2651
   79MOL    H8125197   0.011   5.037   3.396  2.5890  0.0718  0.2869
   79MOL    C8225198   8.291   4.975   3.523  0.2244  0.3769 -0.3245
   79MOL    C8325199   8.238   5.019   3.656 -0.1291  0.1457  0.0690
   79MOL    C8425200   8.214   4.927   3.759 -0.7795  0.0875  0.6683
   79MOL    C8525201   8.158   4.962   3.885  0.3389 -0.6831  0.1885
   79MOL    C8625202   8.116   5.092   3.902  0.0250 -0.5878 -0.3686
   79MOL   Cl8725203   8.011   5.132   4.035  0.1537 -0.4111 -0.0429
   79MOL    C8825204   8.147   5.193   3.805 -0.0702 -0.1483  0.0952
   79MOL    C8925205   8.209   5.152   3.679 -0.2133  0.4394 -0.5336
   79MOL    C9025206   8.194   5.006   3.409 -0.1406 -0.5480  1.0821
   79MOL    H9125207   8.309   4.868   3.530 -1.1317  0.1863  0.6194
   79MOL    H9225208   8.221   4.823   3.731  0.3558  0.7031 -1.5247
   79MOL    H9325209   8.125   4.896   3.963 -0.5772 -0.7662 -0.2508
   79MOL    H9425210   8.119   5.297   3.813 -1.8996 -0.7016  1.4579
   79MOL    H9525211   8.223   5.224   3.600 -1.6136  0.6189 -0.6264
   79MOL    H9625212   8.097   4.996   3.458 -1.7585  1.9966 -1.4701
   79MOL    H9725213   8.196   5.113   3.390 -0.6223 -0.0962  3.4329
   79MOL    C9825214   8.206   4.912   3.288 -0.3057  0.3538 -0.3461
   79MOL    C9925215   8.211   4.764   3.335  0.3063  0.1853  0.2075
   79MOL   C10025216   8.114   4.708   3.424 -0.2868  0.5212 -0.6991
   79MOL   C10125217   8.126   4.574   3.472  0.0073 -0.1343  1.2131
   79MOL   C10225218   8.240   4.493   3.441  0.1156  0.0404 -0.4366
   79MOL  Cl10325219   8.259   4.346   3.526  0.6773  0.3195 -0.0404
   79MOL   C10425220   8.333   4.551   3.358 -0.2186  0.4821  0.3724
   79MOL   C10525221   8.324   4.684   3.310  0.2305  0.1131 -0.0364
   79MOL   C10625222   8.091   4.947   3.191  1.0880 -0.6941 -0.2958
   79MOL   H10725223   8.301   4.930   3.237 -0.6432 -0.0118 -1.1130
   79MOL   H10825224   8.028   4.764   3.458  0.9817 -0.0010  3.6383
   79MOL   H10925225   8.045   4.536   3.531 -0.6327 -0.4245  0.1694
   79MOL   H11025226   8.422   4.499   3.325  0.2812  1.8658 -0.5142
   79MOL   H11125227   8.409   4.731   3.262  0.6555  1.6288  2.1194
   79MOL   H11225228   7.991   4.934   3.234  1.3954 -1.6669  0.1607
   79MOL   H11325229   8.099   5.055   3.190 -0.5260 -0.5623 -0.8572
   79MOL   C11425230   8.093   4.899   3.036  0.6050 -0.9152  0.1370
   79MOL   C11525231   8.093   4.751   3.023  0.1485  0.1227 -0.7938
   79MOL   C11625232   7.983   4.670   3.062 -0.3650  0.0031 -0.0072
   79MOL   C11725233   7.996   4.526   3.055  0.0882 -0.7326  0.1718
   79MOL   C11825234   8.105   4.460   2.997 -0.7082 -0.2614 -0.1582
   79MOL  Cl11925235   8.106   4.288   2.989  0.4419  0.0422 -0.2377
   79MOL   C12025236   8.213   4.542   2.959 -0.6545  0.2856 -0.3294
   79MOL   C12125237   8.209   4.686   2.975 -0.0803  0.0808  0.0899
   79MOL   C12225238   7.971   4.961   2.968 -0.3822 -0.3380 -0.0771
   79MOL   H12325239   8.175   4.923   2.969 -1.4401  0.4557 -1.9619
   79MOL   H12425240   7.893   4.715   3.100 -1.4672 -2.0235 -0.1385
   79MOL   H12525241   7.909   4.467   3.078  0.5381 -1.7626 -0.7067
   79MOL   H12625242   8.301   4.496   2.915  0.8589  1.1297  1.7674
   79MOL   H12725243   8.292   4.749   2.947 -0.7898  1.3238  0.7653
   79MOL   H12825244   7.963   4.912   2.871 -1.7206 -0.7464  0.2358
   79MOL   H12925245   7.883   4.936   3.028  0.6606 -1.2369  1.1155
   79MOL   C13025246   7.977   5.115   2.942  0.0177  0.2802  0.0585
   79MOL   C13125247   8.074   5.154   2.833  0.5792 -0.5255 -0.3218
   79MOL   C13225248   8.115   5.066   2.730  0.5030 -0.3023 -0.0839
   79MOL   C13325249   8.206   5.112   2.634  0.0702  0.0781 -0.4155
   79MOL   C13425250   8.254   5.242   2.630 -0.8313 -0.4049  0.3324
   79MOL  Cl13525251   8.345   5.293   2.492 -0.1779 -0.0198  0.0595
   79MOL   C13625252   8.214   5.329   2.730 -0.1382  0.4985  0.1348
   79MOL   C13725253   8.130   5.284   2.836  0.0953 -0.2587  0.0020
   79MOL   C13825254   7.841   5.178   2.923 -0.3817 -1.0183  0.1934
   79MOL   H13925255   8.024   5.161   3.029  2.9055 -0.5961 -0.9848
   79MOL   H14025256   8.086   4.962   2.732 -1.2044  0.1612  0.5413
   79MOL   H14125257   8.246   5.048   2.556  1.1169 -1.7575  1.5841
   79MOL   H14225258   8.249   5.431   2.731 -0.0583  0.4701  0.2862
   79MOL   H14325259   8.103   5.361   2.906 -0.8065  0.6283 -1.3200
   79MOL   H14425260   7.846   5.281   2.888 -0.6536 -1.0639  0.0183
   79MOL   H14525261   7.782   5.138   2.841 -1.1055 -1.6146  0.9851
   79MOL   C14625262   7.762   5.192   3.053  0.2766 -0.9986  0.5987
   79MOL   C14725263   7.838   5.262   3.172 -0.1737 -0.0405 -0.4842
   79MOL   C14825264   7.895   5.391   3.160 -0.2374  0.1673 -0.7331
   79MOL   C14925265   7.950   5.460   3.271 -0.0184  0.3863 -0.1746
   79MOL   C15025266   7.962   5.384   3.391 -0.4911  0.7778 -0.0325
   79MOL  Cl15125267   8.036   5.459   3.524  0.2889 -0.1294  0.5204
   79MOL   C15225268   7.909   5.255   3.403 -0.5497  0.7482 -0.4678
   79MOL   C15325269   7.854   5.195   3.297 -0.4203 -0.1149  0.0656
   79MOL   C15425270   7.629   5.263   3.020  0.1456  0.0937  0.0648
   79MOL   H15525271   7.739   5.093   3.093  1.2587 -1.9570 -1.1590
   79MOL   H15625272   7.883   5.446   3.067 -0.0212 -0.8137 -1.3414
   79MOL   H15725273   7.999   5.556   3.258  2.0608 -0.4945  0.9223
   79MOL   H15825274   7.899   5.202   3.497 -1.8870 -1.0564 -1.5944
   79MOL   H15925275   7.816   5.094   3.299  0.0180 -0.2723  0.4782
   79MOL   H16025276   7.657   5.362   2.984  0.0925  0.0012 -0.2360
   79MOL   H16125277   7.585   5.203   2.940  0.6643  1.0119 -0.9215
   79MOL   C16225278   7.523   5.267   3.136 -0.0314  0.2414 -0.6284
   79MOL   C16325279   7.466   5.407   3.146 -0.2342  0.1465  0.2248
   79MOL   C16425280   7.478   5.484   3.261 -0.5514 -0.5069 -0.2934
   79MOL   C16525281   7.429   5.615   3.257  0.6290 -0.1368  0.8353
   79MOL   C16625282   7.357   5.660   3.146 -0.7627  0.0036  0.8534
   79MOL  Cl16725283   7.318   5.824   3.135 -0.0065 -0.0392 -0.0698
   79MOL   C16825284   7.337   5.577   3.038 -0.2196  0.4949  0.1578
   79MOL   C16925285   7.392   5.452   3.038 -0.4089  0.8816 -0.1291
   79MOL   C17025286   7.423   5.153   3.137 -0.3574 -0.2129  1.0253
   79MOL   H17125287   7.586   5.268   3.224 -1.8687  0.5189  0.7085
   79MOL   H17225288   7.527   5.444   3.349 -1.8962 -2.3663 -0.3604
   79MOL   H17325289   7.449   5.677   3.343 -0.1268  2.5334 -0.8582
   79MOL   H17425290   7.279   5.613   2.954  1.0840 -0.8942 -1.3863
   79MOL   H17525291   7.383   5.387   2.952 -0.2172  0.5075  0.1292
   79MOL   H17625292   7.358   5.162   3.050  1.2051  0.4195 -0.0910
   79MOL   H17725293   7.486   5.066   3.121  1.3670  1.0346  0.9180
   79MOL   C17825294   7.334   5.132   3.262  0.6102 -0.1018 -0.3724
   79MOL   C17925295   7.217   5.235   3.271 -0.5257  0.2203 -0.4854
   79MOL   C18025296   7.218   5.335   3.371  0.1751 -0.8235 -0.5572
   79MOL   C18125297   7.125   5.440   3.372  0.1304  0.1132 -0.3657
   79MOL   C18225298   7.031   5.454   3.263  0.5545  0.0245 -0.6183
   79MOL  Cl18325299   6.918   5.587   3.252  0.1603 -0.0444 -0.3124
   79MOL   C18425300   7.021   5.347   3.171 -0.6980  0.0374  0.7702
   79MOL   C18525301   7.116   5.243   3.177  0.2175  0.3881 -0.0379
   79MOL   C18625302   7.286   4.988   3.278 -0.0432  0.3410  0.0337
   79MOL   H18725303   7.387   5.161   3.353 -0.7422  1.4061 -0.0464
   79MOL   H18825304   7.294   5.330   3.448  0.5968  2.2187 -0.6915
   79MOL   H18925305   7.133   5.518   3.447  3.2860  0.3546 -0.8823
   79MOL   H19025306   6.951   5.340   3.090  0.0948 -2.6693  0.2820
   79MOL   H19125307   7.125   5.166   3.101 -1.2144 -0.4930  0.6652
   79MOL   H19225308   7.213   4.999   3.359 -0.7197 -2.7598 -0.0927
   79MOL   H19325309   7.217   4.960   3.198 -0.6281  0.6348  0.4249
   79MOL   C19425310   7.369   4.866   3.312 -0.9967  0.2256 -0.5018
   79MOL   C19525311   7.483   4.896   3.413 -0.4213 -0.6282  0.2730
   79MOL   C19625312   7.619   4.854   3.386  0.1585 -0.2104  0.0934
   79MOL   C19725313   7.724   4.884   3.479  0.6585  1.1288  0.5269
   79MOL   C19825314   7.696   4.952   3.600  0.3363 -0.0053 -0.2425
   79MOL  Cl19925315   7.830   4.987   3.708  0.6167 -0.0319  0.0359
   79MOL   C20025316   7.562   4.996   3.623  0.2214  0.7302 -0.0223
   79MOL   C20125317   7.453   4.958   3.534  0.2695  0.0698 -0.3478
   79MOL   C20225318   7.272   4.751   3.364 -0.1296  0.8188 -0.3786
   79MOL   H20325319   7.415   4.834   3.218 -0.8954 -1.4930  0.1156
   79MOL   H20425320   7.639   4.801   3.294  1.3319  1.3275 -0.5676
   79MOL   H20525321   7.822   4.845   3.457 -0.3310 -0.2709 -1.6658
   79MOL   H20625322   7.539   5.042   3.718 -1.2359 -1.3509  0.6828
   79MOL   H20725323   7.354   4.994   3.555 -0.9068 -2.0401 -2.1171
   79MOL   H20825324   7.272   4.739   3.472 -1.1908  2.5353 -0.1566
   79MOL   H20925325   7.175   4.792   3.335 -0.1489  3.1427  2.6751
   79MOL   C21025326   7.294   4.615   3.299 -0.5691 -0.3039  0.5409
   79MOL   C21125327   7.431   4.560   3.340 -0.1609  0.1938  0.1056
   79MOL   C21225328   7.515   4.503   3.246  0.8091 -0.2859 -0.2123
   79MOL   C21325329   7.642   4.457   3.281 -0.2311 -0.5784  0.1755
   79MOL   C21425330   7.672   4.453   3.416 -0.5059 -0.3183  0.0564
   79MOL  Cl21525331   7.808   4.358   3.457 -0.0765 -0.3993  0.2964
   79MOL   C21625332   7.597   4.513   3.518  0.8186 -0.4478  0.1136
   79MOL   C21725333   7.469   4.555   3.474  0.5226  0.4649  0.6196
   79MOL   C21825334   7.180   4.515   3.323  0.0933 -0.1740 -0.3956
   79MOL   H21925335   7.305   4.633   3.192  1.2042  1.1996  0.9470
   79MOL   H22025336   7.485   4.492   3.143 -1.0974  2.7301 -0.0224
   79MOL   H22125337   7.707   4.426   3.201  0.9444 -0.8339  1.2208
   79MOL   H22225338   7.634   4.519   3.619 -0.2077  0.0174  0.4659
   79MOL   H22325339   7.410   4.601   3.552 -0.1471  0.0272  0.3741
   79MOL   H22425340   7.197   4.422   3.268  0.5809 -0.7327  0.6929
   79MOL   H22525341   7.174   4.485   3.428 -0.9651 -0.9519 -0.6690
   79MOL   C22625342   7.035   4.567   3.283  0.2502 -0.5102  0.3954
   79MOL   C22725343   7.038   4.639   3.147 -0.3307 -0.4577 -0.1831
   79MOL   C22825344   7.056   4.571   3.022  0.1125 -0.0095 -1.0394
   79MOL   C22925345   7.045   4.637   2.902 -0.4409 -0.4183  0.1680
   79MOL   C23025346   7.010   4.775   2.904  0.7085  0.4849  0.3758
   79MOL  Cl23125347   7.000   4.864   2.758 -0.3485  0.2051  0.2595
   79MOL   C23225348   6.988   4.841   3.021 -0.0123 -0.5717  0.1577
   79MOL   C23325349   7.013   4.781   3.141 -0.4718  0.2337 -0.7037
   79MOL   C23425350   6.942   4.443   3.271 -0.0964 -0.1574  0.5042
   79MOL   H23525351   7.003   4.634   3.363  4.0995  0.2078  1.4288
   79MOL   H23625352   7.055   4.463   3.017 -0.3248 -0.2301  2.1714
   79MOL   H23725353   7.051   4.581   2.810  1.1149 -0.5418  0.3316
   79MOL   H23825354   6.955   4.944   3.022 -1.1291 -0.9263 -0.2900
   79MOL   H23925355   6.979   4.834   3.228 -0.4845  1.0922 -1.2319
   79MOL   H24025356   6.856   4.480   3.214  0.1896 -0.0054  0.1702
   79MOL   H24125357   6.990   4.373   3.202  1.7865  0.3240  1.2934
   79MOL   C24225358   6.914   4.366   3.411 -0.4207 -0.0840  0.8232
   79MOL   C24325359   6.811   4.439   3.500  0.6436  0.0794  0.0862
   79MOL   C24425360   6.827   4.472   3.636 -0.4730  0.1711  0.1396
   79MOL   C24525361   6.724   4.541   3.703 -0.4878 -0.5078 -0.7653
   79MOL   C24625362   6.610   4.582   3.638 -0.0612  0.1117 -0.4740
   79MOL  Cl24725363   6.486   4.659   3.719  0.2470  0.1821  0.1541
   79MOL   C24825364   6.595   4.552   3.505 -0.1456 -0.9993  0.3353
   79MOL   C24925365   6.691   4.480   3.435  0.7890  0.2343  0.1238
   79MOL   C25025366   6.885   4.220   3.403  0.7851  0.3822 -0.7517
   79MOL   H25125367   7.007   4.365   3.467  1.1288  0.3715 -1.6487
   79MOL   H25225368   6.909   4.426   3.689 -1.3446 -2.5769 -0.8075
   79MOL   H25325369   6.736   4.559   3.809 -3.0166 -0.1725 -0.5049
   79MOL   H25425370   6.506   4.582   3.450 -0.0073 -0.0361  0.6303
   79MOL   H25525371   6.676   4.466   3.329  2.0008 -0.6804  0.0740
   79MOL   H25625372   6.854   4.183   3.501 -1.6311  0.5061 -1.4413
   79MOL   H25725373   6.800   4.193   3.341  0.9630 -1.6566 -0.1578
   79MOL   C25825374   7.002   4.121   3.381 -0.8432  0.1526  0.0312
   79MOL   C25925375   7.114   4.137   3.475  0.0358  0.1662  0.5154
   79MOL   C26025376   7.101   4.132   3.614  0.0444  0.3198  0.3963
   79MOL   C26125377   7.209   4.157   3.701 -0.2319 -0.5658 -0.2838
   79MOL   C26225378   7.337   4.183   3.644 -0.1821 -0.1182 -0.6128
   79MOL  Cl26325379   7.471   4.203   3.745  0.2405  0.3257  0.0402
   79MOL   C26425380   7.353   4.179   3.506 -0.0180 -0.2172 -0.0060
   79MOL   C26525381   7.243   4.168   3.423 -0.1454  1.8728 -0.7671
   79MOL   C26625382   6.960   3.972   3.373  0.0264 -0.3604 -0.4837
   79MOL   H26725383   7.044   4.144   3.283 -0.3452 -0.9776 -0.0201
   79MOL   H26825384   7.004   4.109   3.655 -0.7757  1.6370 -0.7479
   79MOL   H26925385   7.189   4.154   3.807  1.2128  0.6334  0.0390
   79MOL   H27025386   7.451   4.199   3.464  0.9573  2.9154  3.5517
   79MOL   H27125387   7.263   4.185   3.319  1.8979  0.0965 -0.7055
   79MOL   H27225388   7.032   3.907   3.423 -1.1419  1.2295  3.4732
   79MOL   H27325389   6.872   3.970   3.438 -0.5637 -0.1103 -1.2618
   79MOL   C27425390   6.945   3.908   3.234  0.0242  0.2160 -0.3473
   79MOL   C27525391   7.072   3.913   3.149 -0.3315  0.4241 -0.7893
   79MOL   C27625392   7.190   3.864   3.203 -0.3368  0.2663  0.8051
   79MOL   C27725393   7.314   3.888   3.138  0.8859 -0.5774 -0.0150
   79MOL   C27825394   7.318   3.949   3.014  0.3061  0.5539 -0.7773
   79MOL  Cl27925395   7.469   3.979   2.933  0.0093  0.1361  0.1457
   79MOL   C28025396   7.193   3.976   2.946  0.4627  0.3600 -0.4608
   79MOL   C28125397   7.069   3.961   3.017  0.6310 -0.0769 -0.6983
   79MOL   C28225398   6.890   3.765   3.242  0.1870  0.0253 -0.3588
   79MOL   H28325399   6.873   3.965   3.175 -2.1358  0.4055  2.4221
   79MOL   H28425400   7.181   3.812   3.298 -0.7521 -1.0282  0.0668
   79MOL   H28525401   7.407   3.859   3.186  0.1230  0.2946  2.0656
   79MOL   H28625402   7.196   4.018   2.846  1.2565 -1.8704 -1.4258
   79MOL   H28725403   6.980   3.993   2.966 -0.8784  0.3319  2.1553
   79MOL   H28825404   6.893   3.726   3.141 -2.2576 -0.5687 -0.2302
   79MOL   H28925405   6.950   3.690   3.293 -0.2356 -0.4555 -0.5671
   79MOL   C29025406   6.745   3.756   3.292 -0.3088  0.2914 -0.1667
   79MOL   C29125407   6.657   3.858   3.218 -0.1896 -0.8517  0.2791
   79MOL   C29225408   6.616   3.856   3.085  0.0616  0.8309  0.3466
   79MOL   C29325409   6.543   3.956   3.019 -0.7716  0.2946  0.4037
   79MOL   C29425410   6.507   4.066   3.094 -0.6789  0.7020 -0.7527
   79MOL  Cl29525411   6.411   4.190   3.020 -0.0292 -0.0601 -0.3286
   79MOL   C29625412   6.535   4.069   3.234 -0.2941  0.0398  0.7362
   79MOL   C29725413   6.604   3.963   3.292 -0.1471 -0.2318  0.5850
   79MOL   C29825414   6.696   3.614   3.273 -0.3907  0.3420  0.1795
   79MOL   H29925415   6.742   3.771   3.400 -0.3556  0.4404 -0.1887
   79MOL   H30025416   6.647   3.773   3.023 -0.9640 -0.6259  1.7677
   79MOL   H30125417   6.518   3.957   2.914 -0.4373  2.3086  0.3127
   79MOL   H30225418   6.504   4.153   3.295 -0.7006  0.0230  0.5567
   79MOL   H30325419   6.621   3.962   3.399  3.4638 -2.5089  0.0775
   79MOL   H30425420   6.701   3.579   3.170  0.0664 -0.4391  0.4645
   79MOL   H30525421   6.770   3.549   3.321 -0.3124  1.4571  1.6221
   79MOL   C30625422   6.574   3.569   3.348 -0.3436  0.7486 -0.4051
   79MOL   C30725423   6.450   3.612   3.268  0.1524  0.0988  0.4266
   79MOL   C30825424   6.403   3.548   3.148 -0.5091 -0.2389 -0.2921
   79MOL   C30925425   6.288   3.593   3.082  0.7836  0.4475 -0.3477
   79MOL   C31025426   6.208   3.693   3.141 -0.5986 -0.3929  0.4830
   79MOL  Cl31125427   6.067   3.742   3.067  0.3271 -0.2729  0.0144
   79MOL   C31225428   6.251   3.749   3.261 -0.7214 -0.0863 -0.1695
   79MOL   C31325429   6.372   3.712   3.326 -0.5281  0.5113  0.0269
   79MOL   C31425430   6.567   3.417   3.364 -0.3144  0.3155  0.8981
   79MOL   H31525431   6.571   3.608   3.449 -1.4313 -1.6680  0.5467
   79MOL   H31625432   6.465   3.471   3.104  0.3052  2.1149 -3.3684
   79MOL   H31725433   6.250   3.539   2.996 -1.4345 -0.1930  1.0062
   79MOL   H31825434   6.194   3.825   3.312 -0.2878  1.0686 -1.3594
   79MOL   H31925435   6.393   3.759   3.421 -0.2773 -0.9482  0.6946
   79MOL   H32025436   6.652   3.381   3.423 -0.0606 -0.9616 -0.2010
   79MOL   H32125437   6.479   3.372   3.409  1.1496 -2.6920  0.9090
   79MOL   H32225438   6.582   3.354   3.276 -1.2583 -0.7268  1.4624
   80MOL     C125439   5.472   3.622   2.166 -0.0223 -0.0611 -0.0566
   80MOL     C225440   5.534   3.708   2.061  0.4707  0.0641  0.8816
   80MOL     C325441   5.483   3.687   1.931 -0.2037 -0.1842 -0.2761
   80MOL     C425442   5.534   3.757   1.822  0.6563  0.2044  0.0889
   80MOL     C525443   5.635   3.850   1.838  0.8985  0.7260 -0.2568
   80MOL    Cl625444   5.699   3.940   1.705 -0.1206  0.2179  0.0475
   80MOL     C725445   5.672   3.886   1.971 -0.3893  0.6988 -0.1948
   80MOL     C825446   5.624   3.809   2.084 -0.2940 -0.0021 -0.0495
   80MOL     C925447   5.339   3.679   2.233  0.7588  0.6380  0.0268
   80MOL    H1025448   5.548   3.615   2.244 -0.8002 -0.4632  0.6669
   80MOL    H1125449   5.403   3.615   1.917 -0.7919  0.6942 -1.4919
   80MOL    H1225450   5.486   3.744   1.726 -2.6453  0.1114  1.6855
   80MOL    H1325451   5.738   3.970   1.980 -1.2668  1.6835 -2.4996
   80MOL    H1425452   5.656   3.843   2.181  2.0446 -0.5226 -0.5879
   80MOL    H1525453   5.292   3.594   2.284  0.2205 -0.6738 -2.6084
   80MOL    H1625454   5.376   3.744   2.313  1.4535  1.3134 -0.8326
   80MOL    H1725455   5.454   3.526   2.118 -0.2393 -0.1791  0.2642
   80MOL    C1825456   5.243   3.751   2.145  0.5835 -0.8898  0.1591
   80MOL    C1925457   5.184   3.673   2.031 -0.0696  0.2612 -0.4492
   80MOL    C2025458   5.165   3.535   2.040  0.7944 -0.1370  0.7199
   80MOL    C2125459   5.140   3.463   1.920  0.5459 -0.0490  0.3543
   80MOL    C2225460   5.120   3.529   1.800 -0.3118 -0.8249  0.1578
   80MOL   Cl2325461   5.086   3.443   1.653  0.2850  0.3657 -0.3287
   80MOL    C2425462   5.126   3.669   1.797 -0.1933  0.9093  0.4508
   80MOL    C2525463   5.158   3.736   1.913 -0.3986 -0.1617  0.1247
   80MOL    C2625464   5.139   3.829   2.227 -0.0939  0.1487  0.1607
   80MOL    H2725465   5.293   3.834   2.096 -0.3831 -0.2471  0.2579
   80MOL    H2825466   5.190   3.491   2.135 -0.1338 -0.0634  1.0060
   80MOL    H2925467   5.132   3.355   1.924  3.4407 -0.3361 -0.2345
   80MOL    H3025468   5.108   3.718   1.702  2.3280 -0.8533 -1.0053
   80MOL    H3125469   5.159   3.844   1.914 -2.7445 -0.0939 -1.2885
   80MOL    H3225470   5.188   3.910   2.282  1.4190  0.0103 -0.9382
   80MOL    H3325471   5.079   3.894   2.164  1.0614  2.3304  1.2495
   80MOL    C3425472   5.036   3.762   2.327  0.3527 -0.4096 -0.2605
   80MOL    C3525473   5.091   3.675   2.432  0.2267 -0.5775 -0.3675
   80MOL    C3625474   5.162   3.733   2.543  0.1629  0.1906  0.0542
   80MOL    C3725475   5.210   3.654   2.647 -0.6717  0.8348 -0.0874
   80MOL    C3825476   5.184   3.521   2.652 -0.1772 -0.1961 -0.2696
   80MOL   Cl3925477   5.231   3.423   2.781  0.2232  0.5487  0.2582
   80MOL    C4025478   5.104   3.466   2.552  0.2804 -0.6320 -0.2023
   80MOL    C4125479   5.056   3.543   2.450  0.0099  0.2918  0.5586
   80MOL    C4225480   4.938   3.864   2.385  0.3273  0.2392 -0.2327
   80MOL    H4325481   4.976   3.697   2.263 -1.9541  1.2592  0.1580
   80MOL    H4425482   5.184   3.838   2.555  1.8305 -0.0974 -0.4347
   80MOL    H4525483   5.271   3.702   2.723 -0.6721  1.7448 -0.6541
   80MOL    H4625484   5.088   3.360   2.557  0.5130 -0.6327  0.6444
   80MOL    H4725485   4.996   3.496   2.374 -0.3922  1.7143 -0.0281
   80MOL    H4825486   4.989   3.921   2.462 -0.8170  0.5039  0.3435
   80MOL    H4925487   4.916   3.939   2.309  1.0901  0.2363 -0.4627
   80MOL    C5025488   4.798   3.808   2.431 -0.5637 -0.3009 -0.0238
   80MOL    C5125489   4.817   3.724   2.558  0.0569 -0.1891  0.0206
   80MOL    C5225490   4.854   3.790   2.682 -0.1218  0.6489  0.8244
   80MOL    C5325491   4.838   3.720   2.801  0.3141 -0.0447 -0.2561
   80MOL    C5425492   4.777   3.592   2.798 -0.3947 -0.2966 -0.3486
   80MOL   Cl5525493   4.753   3.509   2.948  0.1638  0.2305  0.4111
   80MOL    C5625494   4.739   3.533   2.677 -0.7403 -0.5352 -0.0372
   80MOL    C5725495   4.755   3.599   2.556 -0.4930 -0.4020 -0.2630
   80MOL    C5825496   4.697   3.913   2.460  0.0693  0.2107  0.2429
   80MOL    H5925497   4.755   3.743   2.354  0.9210  0.1962 -1.3229
   80MOL    H6025498   4.910   3.882   2.678  2.1434 -0.6899  0.5341
   80MOL    H6125499   4.878   3.759   2.894 -0.6861  0.5569 -0.0589
   80MOL    H6225500   4.695   3.434   2.675 -2.3262  0.1150 -4.5535
   80MOL    H6325501   4.725   3.560   2.460  0.9043  0.1608 -0.9583
   80MOL    H6425502   4.623   3.879   2.532 -0.2859  0.8355  0.1822
   80MOL    H6525503   4.740   3.996   2.517  0.7781  0.7891 -1.1083
   80MOL    C6625504   4.619   3.966   2.334 -0.2020  0.0643 -0.4838
   80MOL    C6725505   4.540   3.859   2.258  0.0153  0.0593  0.1549
   80MOL    C6825506   4.446   3.781   2.335 -0.2342  0.4234 -0.2006
   80MOL    C6925507   4.372   3.676   2.271 -0.2475 -0.0314 -0.3227
   80MOL    C7025508   4.391   3.653   2.133  0.0375 -0.4267  0.8159
   80MOL   Cl7125509   4.328   3.511   2.057  0.3766 -0.2747  0.0233
   80MOL    C7225510   4.472   3.737   2.058 -0.1574 -0.8173 -0.0244
   80MOL    C7325511   4.558   3.831   2.121 -1.0189 -0.0288  0.2676
   80MOL    C7425512   4.527   4.075   2.381  0.5180 -0.2417 -0.3143
   80MOL    H7525513   4.688   4.014   2.265 -0.8344  0.0627 -1.1222
   80MOL    H7625514   4.430   3.796   2.441 -0.8032 -0.1209 -0.2035
   80MOL    H7725515   4.310   3.604   2.322  1.9725 -1.4937  0.3887
   80MOL    H7825516   4.494   3.716   1.954 -0.3118  1.8681 -0.6382
   80MOL    H7925517   4.625   3.898   2.068 -0.6182  0.2063  1.0662
   80MOL    H8025518   4.437   4.042   2.434  0.8384  1.0307  1.0695
   80MOL    H8125519   4.585   4.134   2.452  0.9274  0.3148 -1.1060
   80MOL    C8225520   4.491   4.185   2.282 -1.0369 -0.1522 -0.1148
   80MOL    C8325521   4.408   4.149   2.166 -0.6274 -0.0153 -1.1545
   80MOL    C8425522   4.302   4.054   2.158  0.3440 -0.6093  0.7353
   80MOL    C8525523   4.249   4.017   2.035  0.2560  0.3280 -0.3197
   80MOL    C8625524   4.287   4.077   1.915  0.6151 -0.2616 -0.2175
   80MOL   Cl8725525   4.216   4.027   1.767 -0.2729  0.0965  0.1437
   80MOL    C8825526   4.383   4.177   1.916 -0.5261  0.3339  0.3512
   80MOL    C8925527   4.440   4.218   2.042  0.7026 -0.1744 -0.0683
   80MOL    C9025528   4.421   4.306   2.348 -1.0846 -0.1721 -0.3777
   80MOL    H9125529   4.587   4.219   2.246 -0.9240  0.3856  0.6793
   80MOL    H9225530   4.261   4.010   2.247  1.1220 -0.1979  1.2977
   80MOL    H9325531   4.181   3.932   2.035  0.4779  0.1318 -1.5407
   80MOL    H9425532   4.413   4.216   1.820  1.0219  1.1358  1.1461
   80MOL    H9525533   4.516   4.294   2.031  0.9621 -0.5152 -0.6753
   80MOL    H9625534   4.392   4.379   2.273 -0.7468 -0.7800 -1.0965
   80MOL    H9725535   4.328   4.269   2.390  0.9298 -0.8564  3.7781
   80MOL    C9825536   4.494   4.383   2.470 -0.0396  0.4395 -0.6389
   80MOL    C9925537   4.626   4.448   2.433  0.2377  0.3392 -0.7227
   80MOL   C10025538   4.625   4.530   2.322 -0.2891 -0.8606 -0.1909
   80MOL   C10125539   4.749   4.592   2.289 -0.7009  0.0191  0.5502
   80MOL   C10225540   4.866   4.580   2.362  0.0366  0.3321 -0.1297
   80MOL  Cl10325541   5.021   4.655   2.320 -0.5184 -0.0290 -0.2874
   80MOL   C10425542   4.868   4.493   2.474  0.3149  0.1573  0.6799
   80MOL   C10525543   4.741   4.430   2.509 -0.2850 -0.3395  0.2920
   80MOL   C10625544   4.403   4.491   2.533 -0.0864 -0.0055  0.2592
   80MOL   H10725545   4.518   4.319   2.555 -0.9091 -0.5621 -1.1245
   80MOL   H10825546   4.541   4.552   2.257 -0.6353  0.3234  0.6327
   80MOL   H10925547   4.763   4.652   2.200 -0.3389  0.6776  1.0447
   80MOL   H11025548   4.961   4.473   2.524 -0.6825 -0.4589  2.3188
   80MOL   H11125549   4.742   4.358   2.590  3.4119 -0.6106  0.0993
   80MOL   H11225550   4.462   4.560   2.593  1.2312  1.3734 -2.5270
   80MOL   H11325551   4.369   4.544   2.445  1.3713  2.1311  0.9329
   80MOL   C11425552   4.275   4.441   2.601  0.3732 -0.4313  0.4352
   80MOL   C11525553   4.299   4.383   2.737  0.2474 -0.7119  0.0267
   80MOL   C11625554   4.247   4.255   2.773 -0.6588 -0.4905 -0.2997
   80MOL   C11725555   4.260   4.213   2.911  0.4974 -0.7118 -0.6623
   80MOL   C11825556   4.327   4.291   3.008 -0.6615 -0.7180 -0.1435
   80MOL  Cl11925557   4.326   4.245   3.173  0.0094  0.1388 -0.3501
   80MOL   C12025558   4.393   4.410   2.965 -0.4747 -0.0471  0.6776
   80MOL   C12125559   4.378   4.456   2.831  0.3368 -0.5322  0.5200
   80MOL   C12225560   4.162   4.544   2.624 -0.3304  0.2515  0.1334
   80MOL   H12325561   4.227   4.357   2.552 -2.4430  0.4247  1.6136
   80MOL   H12425562   4.192   4.195   2.703  0.3941 -0.7644 -0.8985
   80MOL   H12525563   4.209   4.120   2.932 -0.8322 -0.3356 -2.1364
   80MOL   H12625564   4.442   4.480   3.031  2.5490 -0.1005 -1.3750
   80MOL   H12725565   4.421   4.549   2.797  0.6779 -1.4489 -1.6754
   80MOL   H12825566   4.091   4.485   2.680  0.1089  0.7760  1.2514
   80MOL   H12925567   4.202   4.610   2.701 -0.2511 -1.2220  1.3649
   80MOL   C13025568   4.103   4.601   2.502 -0.3501 -0.1208  0.0840
   80MOL   C13125569   4.039   4.500   2.412  0.2874  0.0999 -0.1145
   80MOL   C13225570   4.096   4.480   2.280  0.1011  0.8974  0.2422
   80MOL   C13325571   4.061   4.372   2.199  0.2725 -0.2778  0.0249
   80MOL   C13425572   3.965   4.277   2.241  1.1200  0.5119  0.3331
   80MOL  Cl13525573   3.924   4.138   2.152  0.0205  0.2535 -0.1267
   80MOL   C13625574   3.904   4.299   2.366 -0.2450 -1.1543  0.6630
   80MOL   C13725575   3.945   4.401   2.454  0.5462 -0.4665 -0.3948
   80MOL   C13825576   4.002   4.710   2.545 -0.2809 -0.1442 -0.2161
   80MOL   H13925577   4.179   4.653   2.444  0.3488 -0.6698  0.5057
   80MOL   H14025578   4.175   4.539   2.238 -0.3760  0.0290 -1.9417
   80MOL   H14125579   4.116   4.361   2.107 -0.8774 -0.3173 -0.6594
   80MOL   H14225580   3.839   4.222   2.404 -1.3154  0.0106  1.2009
   80MOL   H14325581   3.914   4.412   2.556 -2.2620  0.5933 -1.3248
   80MOL   H14425582   3.932   4.726   2.463  1.3309  2.6424 -1.1079
   80MOL   H14525583   3.952   4.672   2.634 -0.8018 -0.4614 -0.6439
   80MOL   C14625584   4.059   4.847   2.597  0.1805 -0.2517  0.1754
   80MOL   C14725585   4.126   4.924   2.482  0.2181 -0.6760  0.2141
   80MOL   C14825586   4.059   4.961   2.363  0.1877 -0.6346  0.0115
   80MOL   C14925587   4.122   5.031   2.262  0.2366  0.0692  0.2638
   80MOL   C15025588   4.254   5.071   2.283  0.9075  0.6353 -0.1643
   80MOL  Cl15125589   4.334   5.136   2.138 -0.0325  0.3451 -0.5722
   80MOL   C15225590   4.325   5.042   2.403  0.7451 -0.4111  0.0845
   80MOL   C15325591   4.259   4.969   2.502  0.4169 -0.0689 -0.1361
   80MOL   C15425592   3.963   4.933   2.684  0.6450  0.1629  0.4535
   80MOL   H15525593   4.145   4.819   2.658  2.2027  0.0534 -2.4385
   80MOL   H15625594   3.961   4.917   2.352 -0.6880  1.4285 -0.8040
   80MOL   H15725595   4.073   5.045   2.166  0.1921  0.6791  0.3781
   80MOL   H15825596   4.431   5.058   2.413  0.8883 -1.7183  0.6733
   80MOL   H15925597   4.310   4.937   2.592 -1.7976 -1.9854  0.4646
   80MOL   H16025598   3.872   4.948   2.626  2.2904  2.2351 -1.7125
   80MOL   H16125599   3.928   4.880   2.772  0.7593  0.6957  0.8224
   80MOL   C16225600   4.013   5.071   2.731  0.1550 -0.3773 -0.6438
   80MOL   C16325601   3.921   5.177   2.680 -0.4331  1.2226  0.6643
   80MOL   C16425602   3.795   5.189   2.735 -0.6817 -0.0052  0.2169
   80MOL   C16525603   3.695   5.278   2.689 -0.0577  0.4836 -0.3706
   80MOL   C16625604   3.726   5.343   2.569  0.2295 -0.3334 -0.6355
   80MOL  Cl16725605   3.610   5.457   2.506  0.2643 -0.3191 -0.3453
   80MOL   C16825606   3.854   5.339   2.512  0.4982 -0.3368  0.0226
   80MOL   C16925607   3.953   5.259   2.568 -0.2225 -0.0672 -0.1456
   80MOL   C17025608   4.028   5.065   2.883 -0.4225  0.1821  0.3345
   80MOL   H17125609   4.116   5.089   2.701 -0.1831 -0.4281 -1.8867
   80MOL   H17225610   3.762   5.138   2.825 -0.7770  1.8116  1.2469
   80MOL   H17325611   3.602   5.278   2.744 -0.1141 -1.1695 -0.4348
   80MOL   H17425612   3.871   5.392   2.419  3.0936  0.5268  0.9465
   80MOL   H17525613   4.046   5.252   2.514  0.7120 -1.4991  1.6177
   80MOL   H17625614   4.028   5.166   2.926  0.3880  0.0284  0.7108
   80MOL   H17725615   3.935   5.027   2.925 -0.9791  1.0941 -0.0496
   80MOL   C17825616   4.155   4.993   2.934  0.8705 -0.3440  0.9329
   80MOL   C17925617   4.288   5.073   2.906 -0.0176 -0.0074 -0.1309
   80MOL   C18025618   4.395   4.988   2.871 -0.5780  0.1284 -0.3062
   80MOL   C18125619   4.526   5.030   2.867 -0.1232  0.3016 -0.6825
   80MOL   C18225620   4.555   5.169   2.889  0.1502  0.1465 -0.0218
   80MOL  Cl18325621   4.720   5.231   2.873  0.2526 -0.2663  0.2194
   80MOL   C18425622   4.448   5.259   2.914  0.2944 -0.1321 -0.2526
   80MOL   C18525623   4.308   5.210   2.926 -0.3409 -0.0612 -0.0764
   80MOL   C18625624   4.140   4.965   3.091 -0.2795  0.0098 -0.0508
   80MOL   H18725625   4.147   4.898   2.882 -0.0896  0.0207  0.3987
   80MOL   H18825626   4.384   4.881   2.869 -1.5877  0.2495 -1.5555
   80MOL   H18925627   4.611   4.965   2.851 -0.0437 -0.4260  2.2853
   80MOL   H19025628   4.465   5.363   2.937 -1.5365  0.2634 -0.5623
   80MOL   H19125629   4.225   5.276   2.947 -1.7519 -1.5936 -0.7965
   80MOL   H19225630   4.236   4.933   3.131 -0.2322  0.7765  0.4695
   80MOL   H19325631   4.125   5.067   3.129  1.7776 -0.0236  0.9611
   80MOL   C19425632   4.030   4.873   3.154  0.4980 -0.6737 -0.2174
   80MOL   C19525633   4.002   4.745   3.080  1.0757  0.8291 -0.0363
   80MOL   C19625634   3.875   4.716   3.026  0.5341 -0.4349 -0.4716
   80MOL   C19725635   3.846   4.591   2.964  0.0396  0.5918 -0.6041
   80MOL   C19825636   3.952   4.498   2.952 -0.1019  0.1169  0.2004
   80MOL  Cl19925637   3.933   4.330   2.884  0.5563 -0.1175  0.0150
   80MOL   C20025638   4.078   4.535   3.000 -0.0084  0.3423  1.2516
   80MOL   C20125639   4.106   4.651   3.067  0.2599  0.5674 -0.3350
   80MOL   C20225640   4.054   4.842   3.304 -0.1086 -0.3216  0.5155
   80MOL   H20325641   3.937   4.931   3.148 -0.1414 -1.6194  0.3646
   80MOL   H20425642   3.798   4.791   3.030 -1.1320 -2.0968 -0.5113
   80MOL   H20525643   3.748   4.568   2.924  0.3213  2.0459 -2.1883
   80MOL   H20625644   4.158   4.462   2.999 -0.6151 -0.3060 -0.1344
   80MOL   H20725645   4.203   4.663   3.114  0.2419  2.5950 -0.7766
   80MOL   H20825646   4.010   4.744   3.323 -1.7218  0.2963  0.0544
   80MOL   H20925647   4.159   4.824   3.326 -0.1194 -1.2459 -0.1966
   80MOL   C21025648   4.005   4.952   3.406 -0.6676 -0.1206  0.4318
   80MOL   C21125649   3.862   5.000   3.394  0.4388 -0.3135  0.1649
   80MOL   C21225650   3.824   5.138   3.402 -0.9774 -0.3044 -0.0828
   80MOL   C21325651   3.690   5.181   3.399 -0.7444  0.1856  0.7690
   80MOL   C21425652   3.593   5.086   3.399  0.4676  0.1957 -0.0550
   80MOL  Cl21525653   3.430   5.133   3.392 -0.3760  0.6814  0.0919
   80MOL   C21625654   3.627   4.952   3.401 -0.4194 -0.1231  0.9144
   80MOL   C21725655   3.756   4.904   3.396  0.6994 -0.1831  0.7234
   80MOL   C21825656   4.030   4.893   3.540 -0.5259 -0.7642 -0.1591
   80MOL   H21925657   4.079   5.029   3.383  1.4937 -2.4291 -0.4361
   80MOL   H22025658   3.903   5.210   3.419  0.0568 -0.7879 -2.6365
   80MOL   H22125659   3.663   5.283   3.419  0.0730  0.4565  0.5385
   80MOL   H22225660   3.546   4.882   3.414  0.2412 -1.1218 -0.2819
   80MOL   H22325661   3.774   4.799   3.384 -0.6384 -0.5872  2.1600
   80MOL   H22425662   3.948   4.932   3.600 -1.1009 -0.1664 -1.3354
   80MOL   H22525663   4.001   4.790   3.522  0.2604 -0.6418 -2.2866
   80MOL   C22625664   4.173   4.896   3.608  0.0232  0.4031 -0.2365
   80MOL   C22725665   4.221   5.037   3.650  0.6242  0.6072  0.4327
   80MOL   C22825666   4.361   5.069   3.647  0.2981  0.1822 -0.0902
   80MOL   C22925667   4.406   5.190   3.692 -0.3293 -0.3476 -0.2671
   80MOL   C23025668   4.312   5.286   3.736  0.3003 -0.6714  0.1003
   80MOL  Cl23125669   4.365   5.437   3.802 -0.1608 -0.0693  0.3177
   80MOL   C23225670   4.175   5.258   3.728 -0.9369  0.1018 -0.6260
   80MOL   C23325671   4.131   5.139   3.680  0.2688 -0.1071  0.2501
   80MOL   C23425672   4.180   4.804   3.730  0.3871  0.6167  0.1731
   80MOL   H23525673   4.242   4.844   3.543  0.8309  1.4935 -0.2617
   80MOL   H23625674   4.424   4.997   3.597 -0.0170 -1.4606  1.8298
   80MOL   H23725675   4.510   5.216   3.707  0.3280 -2.5122 -0.9948
   80MOL   H23825676   4.113   5.342   3.756  0.5159  1.4137 -1.2013
   80MOL   H23925677   4.024   5.126   3.669 -0.2376  3.0091  0.8594
   80MOL   H24025678   4.259   4.834   3.799  0.9363 -2.9967  1.2278
   80MOL   H24125679   4.090   4.814   3.790  0.8501 -0.4665  1.0668
   80MOL   C24225680   4.217   4.658   3.690 -0.2728 -0.1873  0.0457
   80MOL   C24325681   4.363   4.638   3.634 -0.5943  0.0080 -0.3630
   80MOL   C24425682   4.385   4.575   3.512  0.0472  0.4769  0.7045
   80MOL   C24525683   4.516   4.560   3.460 -0.5427 -0.6539  0.0150
   80MOL   C24625684   4.625   4.612   3.533  0.1681  0.2921  0.0542
   80MOL  Cl24725685   4.785   4.601   3.474  0.1526  0.4327  0.0012
   80MOL   C24825686   4.599   4.665   3.662 -0.0593 -0.0443  0.6147
   80MOL   C24925687   4.472   4.679   3.710 -0.3710 -0.2026 -0.3104
   80MOL   C25025688   4.186   4.561   3.808  0.2983 -0.1213 -0.6806
   80MOL   H25125689   4.157   4.622   3.606 -0.4679 -0.2119  0.1951
   80MOL   H25225690   4.306   4.563   3.439  2.0553  1.4387 -1.7346
   80MOL   H25325691   4.534   4.513   3.365 -0.0188 -0.8358  0.2043
   80MOL   H25425692   4.681   4.697   3.725  1.9196 -1.0050 -1.3800
   80MOL   H25525693   4.449   4.724   3.806  0.4142  1.6073 -0.9389
   80MOL   H25625694   4.231   4.469   3.769 -3.6541 -0.8416 -3.7869
   80MOL   H25725695   4.245   4.593   3.894  1.1159 -1.9389 -0.5411
   80MOL   C25825696   4.031   4.538   3.839  0.2158 -0.1791  0.1892
   80MOL   C25925697   3.955   4.518   3.712  0.1170 -0.0754  0.2728
   80MOL   C26025698   3.992   4.421   3.614  0.2688  0.2862 -0.5028
   80MOL   C26125699   3.914   4.416   3.498 -0.7459 -0.1532 -0.0926
   80MOL   C26225700   3.814   4.511   3.483 -0.5794 -0.3552 -0.2803
   80MOL  Cl26325701   3.745   4.512   3.323  0.4041  0.1302 -0.0807
   80MOL   C26425702   3.779   4.607   3.577  0.0685  0.3158 -0.1141
   80MOL   C26525703   3.850   4.611   3.696 -0.6561  1.2735 -0.1147
   80MOL   C26625704   4.015   4.422   3.934  0.6121 -0.6933  0.1854
   80MOL   H26725705   3.998   4.628   3.890  0.6960 -0.5698  1.2048
   80MOL   H26825706   4.076   4.354   3.624 -1.4429 -1.5730  1.8406
   80MOL   H26925707   3.950   4.353   3.418 -0.0965  2.1165 -1.6367
   80MOL   H27025708   3.694   4.671   3.555  0.5780  0.7637 -0.8061
   80MOL   H27125709   3.828   4.693   3.763 -2.1759  0.0976  0.8469
   80MOL   H27225710   4.048   4.330   3.886  0.9612  0.5177 -1.9754
   80MOL   H27325711   4.081   4.441   4.019 -1.8050  1.2355  1.6741
   80MOL   C27425712   3.873   4.410   4.000 -0.0244  0.1020 -0.3405
   80MOL   C27525713   3.843   4.542   4.077  0.1919 -0.8410  1.0876
   80MOL   C27625714   3.920   4.564   4.192 -0.3421  0.1041 -0.4878
   80MOL   C27725715   3.906   4.688   4.261  0.5634 -0.1336 -0.0785
   80MOL   C27825716   3.812   4.781   4.219  0.5071 -0.5887 -0.8096
   80MOL  Cl27925717   3.817   4.938   4.305  0.0526 -0.0137  0.1551
   80MOL   C28025718   3.727   4.754   4.111  0.1975  0.0952 -0.0771
   80MOL   C28125719   3.741   4.634   4.041 -0.0149  1.0769  0.0093
   80MOL   C28225720   3.756   4.354   3.920 -0.0674 -0.2999  0.0839
   80MOL   H28325721   3.895   4.336   4.077 -1.1620 -0.3069 -0.3961
   80MOL   H28425722   4.002   4.497   4.214  0.1128  0.7898 -0.0967
   80MOL   H28525723   3.961   4.706   4.353 -0.3609 -0.4804  0.5561
   80MOL   H28625724   3.649   4.826   4.091 -0.0202 -0.1814 -0.2447
   80MOL   H28725725   3.676   4.616   3.957 -2.5954  3.2042  1.4766
   80MOL   H28825726   3.670   4.334   3.984 -0.3708  2.1450  0.4823
   80MOL   H28925727   3.724   4.417   3.837 -1.4155 -1.0764  0.0010
   80MOL   C29025728   3.786   4.226   3.840  1.3202 -0.5292 -0.2611
   80MOL   C29125729   3.811   4.107   3.938 -0.6562 -0.1997  0.3842
   80MOL   C29225730   3.726   4.078   4.048  0.5187 -0.0600  0.3441
   80MOL   C29325731   3.762   3.970   4.125 -1.0227 -0.3405 -0.7673
   80MOL   C29425732   3.885   3.893   4.114  0.5708  0.8395  0.0090
   80MOL  Cl29525733   3.904   3.762   4.216  0.3396  0.2239 -0.4884
   80MOL   C29625734   3.963   3.916   4.001 -0.4511 -1.2102  0.1663
   80MOL   C29725735   3.929   4.025   3.916 -0.1424 -0.5102  0.1652
   80MOL   C29825736   3.667   4.195   3.741  0.3919 -0.3485 -0.3389
   80MOL   H29925737   3.869   4.234   3.770  0.3712  0.0600 -1.3271
   80MOL   H30025738   3.631   4.129   4.058  0.1367 -1.2587  3.1154
   80MOL   H30125739   3.695   3.945   4.206  0.4950 -1.4644  0.1723
   80MOL   H30225740   4.058   3.867   3.984 -0.4159 -1.8259  2.0161
   80MOL   H30325741   3.983   4.046   3.825 -0.4128  0.7449  0.2884
   80MOL   H30425742   3.570   4.185   3.789  0.4329 -1.1329 -0.4222
   80MOL   H30525743   3.658   4.284   3.678 -0.9287  0.4208  0.9265
   80MOL   C30625744   3.684   4.075   3.650 -0.2329 -0.1990  0.0142
   80MOL   C30725745   3.563   4.062   3.559 -0.6745  0.2585 -0.6885
   80MOL   C30825746   3.461   3.965   3.574  1.3239 -0.1003 -0.0675
   80MOL   C30925747   3.354   3.951   3.484 -0.5489 -0.6101 -0.3050
   80MOL   C31025748   3.336   4.047   3.387 -0.1602  0.7957 -0.2219
   80MOL  Cl31125749   3.202   4.029   3.279  0.2254  0.1323  0.1002
   80MOL   C31225750   3.429   4.151   3.373 -0.0818 -0.1066  0.3787
   80MOL   C31325751   3.537   4.157   3.455 -0.2122  0.2644  0.4945
   80MOL   C31425752   3.814   4.072   3.564 -0.1762  0.0872 -0.5038
   80MOL   H31525753   3.693   3.987   3.714  2.2261 -1.1737 -1.5837
   80MOL   H31625754   3.464   3.903   3.662 -1.8924  0.7203  0.6696
   80MOL   H31725755   3.279   3.874   3.495  0.3136 -1.3950  0.1507
   80MOL   H31825756   3.413   4.220   3.292  2.8064 -0.6544 -0.6867
   80MOL   H31925757   3.613   4.230   3.430  0.5804 -1.0740 -1.0716
   80MOL   H32025758   3.827   3.979   3.509  1.3526  0.5124 -0.9045
   80MOL   H32125759   3.812   4.160   3.500 -2.3079 -0.2363 -0.9132
   80MOL   H32225760   3.911   4.084   3.614 -0.7943 -0.9630  0.9753
   81MOL     C125761   4.312   3.118   1.156 -0.0917  0.0226  0.0480
   81MOL     C225762   4.450   3.116   1.224 -0.3038 -0.5452 -0.4824
   81MOL     C325763   4.450   3.099   1.367  0.2634 -0.3838 -0.1385
   81MOL     C425764   4.574   3.111   1.435  0.0518 -0.3762 -0.1337
   81MOL     C525765   4.686   3.152   1.369  0.1014  0.6983 -0.2649
   81MOL    Cl625766   4.838   3.138   1.450 -0.1745  0.4368  0.1096
   81MOL     C725767   4.687   3.178   1.229  0.0203  0.2039 -0.8660
   81MOL     C825768   4.568   3.160   1.160  0.2095  0.1650 -0.2481
   81MOL     C925769   4.234   3.249   1.175 -0.1025 -1.0982 -0.0147
   81MOL    H1025770   4.260   3.027   1.185 -1.4610 -0.2432 -3.1039
   81MOL    H1125771   4.358   3.065   1.413  2.0943 -0.5122  3.7007
   81MOL    H1225772   4.583   3.083   1.539 -1.2449 -0.2673  0.0176
   81MOL    H1325773   4.779   3.214   1.185  0.4593 -0.8123 -0.7884
   81MOL    H1425774   4.561   3.171   1.053  3.5375 -0.3147 -0.5692
   81MOL    H1525775   4.135   3.238   1.133 -0.1892 -0.0366 -0.1131
   81MOL    H1625776   4.214   3.271   1.280  1.6645  2.3014 -0.3140
   81MOL    H1725777   4.332   3.103   1.050 -1.0370 -1.6247  0.0891
   81MOL    C1825778   4.306   3.376   1.108 -0.6718  0.0029 -0.3426
   81MOL    C1925779   4.243   3.391   0.969 -0.4092 -0.2380 -0.0560
   81MOL    C2025780   4.310   3.335   0.859  0.0278  0.8515 -0.0438
   81MOL    C2125781   4.248   3.346   0.735 -0.0205  1.2995 -0.0298
   81MOL    C2225782   4.118   3.405   0.719 -0.4562  0.5155 -0.4580
   81MOL   Cl2325783   4.057   3.434   0.559 -0.1533  0.0621  0.1638
   81MOL    C2425784   4.059   3.454   0.833  0.0828 -0.0988  0.5070
   81MOL    C2525785   4.116   3.455   0.955 -0.2175  0.3823 -0.0752
   81MOL    C2625786   4.299   3.505   1.194  0.0310 -0.2590 -0.0653
   81MOL    H2725787   4.412   3.352   1.105 -0.3659  1.1646  0.6865
   81MOL    H2825788   4.411   3.297   0.862 -1.4798 -3.5906 -0.8054
   81MOL    H2925789   4.309   3.309   0.653  1.4384  1.0051  1.1745
   81MOL    H3025790   3.965   3.507   0.821  0.5361  0.9665  1.5109
   81MOL    H3125791   4.060   3.490   1.041  2.2788  1.1255  1.3019
   81MOL    H3225792   4.351   3.572   1.125 -0.5388  0.4956  0.2349
   81MOL    H3325793   4.191   3.523   1.194  0.0995  0.2032  1.3655
   81MOL    C3425794   4.378   3.514   1.328 -0.4760  0.0817  0.0131
   81MOL    C3525795   4.468   3.638   1.334 -0.0839  0.4959 -0.4783
   81MOL    C3625796   4.410   3.769   1.356  0.5639 -0.0634  0.4847
   81MOL    C3725797   4.496   3.880   1.356  0.3868  0.0098 -0.3704
   81MOL    C3825798   4.634   3.868   1.354 -0.1354 -0.9814 -0.1691
   81MOL   Cl3925799   4.733   4.003   1.386  0.3081 -0.0122  0.0987
   81MOL    C4025800   4.692   3.745   1.330  0.0177  0.1844 -0.5328
   81MOL    C4125801   4.606   3.629   1.318 -0.3248 -0.4857 -0.0071
   81MOL    C4225802   4.290   3.490   1.455 -0.1452 -1.0527  0.6577
   81MOL    H4325803   4.443   3.427   1.321  0.3424  0.5525  1.5530
   81MOL    H4425804   4.304   3.775   1.379  0.4754 -0.5620  0.2262
   81MOL    H4525805   4.457   3.978   1.380  1.3856  0.0223  1.2980
   81MOL    H4625806   4.799   3.733   1.322  0.4341  2.2757  1.4426
   81MOL    H4725807   4.657   3.536   1.299  2.2557  0.6543  1.0915
   81MOL    H4825808   4.227   3.578   1.470 -0.4025 -1.3157  1.1491
   81MOL    H4925809   4.225   3.408   1.423  0.9826 -2.2993  1.5333
   81MOL    C5025810   4.371   3.436   1.574  0.0262 -0.3611 -0.3850
   81MOL    C5125811   4.472   3.536   1.628  0.3542 -0.5824 -0.0563
   81MOL    C5225812   4.439   3.672   1.651 -0.2996 -0.2976 -0.6144
   81MOL    C5325813   4.537   3.770   1.680 -0.0591 -0.2567 -0.4584
   81MOL    C5425814   4.672   3.724   1.688  0.4972 -0.4897  1.0753
   81MOL   Cl5525815   4.794   3.829   1.745  0.5929 -0.0555 -0.0277
   81MOL    C5625816   4.705   3.590   1.670  0.5232  0.1586 -0.1118
   81MOL    C5725817   4.603   3.495   1.637 -0.2014 -0.5788 -0.1411
   81MOL    C5825818   4.270   3.400   1.686 -0.4488 -0.1311 -0.9513
   81MOL    H5925819   4.432   3.352   1.542  0.5736 -0.1072 -0.0093
   81MOL    H6025820   4.337   3.707   1.657 -1.1371 -2.3523 -2.2162
   81MOL    H6125821   4.515   3.874   1.699 -0.4792 -0.5708  0.8368
   81MOL    H6225822   4.805   3.557   1.694 -0.5998 -1.3807  2.6231
   81MOL    H6325823   4.645   3.398   1.616  0.8922 -0.3673  0.9414
   81MOL    H6425824   4.319   3.413   1.782 -1.3541 -0.9950 -0.3596
   81MOL    H6525825   4.188   3.471   1.682 -0.1574  0.3145  0.8218
   81MOL    C6625826   4.216   3.258   1.690  0.2037 -0.6127  0.3492
   81MOL    C6725827   4.312   3.146   1.727 -0.4388 -0.1020  0.5825
   81MOL    C6825828   4.284   3.014   1.694  0.2518  0.0875  0.7915
   81MOL    C6925829   4.375   2.903   1.717  0.0953 -0.1974  0.1380
   81MOL    C7025830   4.503   2.937   1.764  0.1762 -0.5612  0.4386
   81MOL   Cl7125831   4.621   2.815   1.782 -0.1964 -0.3692  0.1742
   81MOL    C7225832   4.535   3.067   1.808 -0.5635 -0.2157 -0.1421
   81MOL    C7325833   4.436   3.172   1.795  0.7604  0.1595 -0.6110
   81MOL    C7425834   4.085   3.247   1.776 -0.1632 -0.1190  0.0772
   81MOL    H7525835   4.186   3.240   1.587 -2.4157 -1.3245  1.1896
   81MOL    H7625836   4.187   3.003   1.648  1.3446  0.1355 -1.6298
   81MOL    H7725837   4.352   2.799   1.696 -0.3202 -0.0750 -0.0323
   81MOL    H7825838   4.628   3.093   1.857 -0.0135  0.8203 -1.7129
   81MOL    H7925839   4.467   3.273   1.817 -0.1647  0.3286 -0.0989
   81MOL    H8025840   4.071   3.141   1.801 -0.2907  0.0644  0.8093
   81MOL    H8125841   4.103   3.301   1.869 -0.5447  0.8959 -0.4310
   81MOL    C8225842   3.949   3.298   1.720 -0.5227 -0.1488  0.6603
   81MOL    C8325843   3.931   3.244   1.584 -0.2936 -0.4486 -0.0908
   81MOL    C8425844   3.932   3.336   1.474 -0.4689  0.4413  0.3827
   81MOL    C8525845   3.926   3.294   1.339  0.2931  0.5558 -0.4892
   81MOL    C8625846   3.905   3.158   1.310  0.0109 -0.7685 -1.2552
   81MOL   Cl8725847   3.919   3.104   1.152 -0.1903  0.3983 -0.1147
   81MOL    C8825848   3.904   3.070   1.415  0.7495 -0.2513 -0.3085
   81MOL    C8925849   3.911   3.113   1.549  0.4231 -0.4417  0.0109
   81MOL    C9025850   3.828   3.268   1.818  0.6369 -0.6494  0.3624
   81MOL    H9125851   3.964   3.406   1.710  0.2919 -0.1998  1.3071
   81MOL    H9225852   3.934   3.443   1.488 -0.6800  0.2361  2.0728
   81MOL    H9325853   3.945   3.369   1.263 -2.3955  1.6472 -0.1464
   81MOL    H9425854   3.889   2.967   1.389  0.0481 -0.1377 -0.3797
   81MOL    H9525855   3.937   3.031   1.615  0.0504  0.4001  1.2227
   81MOL    H9625856   3.839   3.167   1.857  1.1375 -0.9592 -0.5541
   81MOL    H9725857   3.837   3.337   1.902 -0.9970  0.2416 -0.1876
   81MOL    C9825858   3.683   3.279   1.760  0.5370 -0.1514 -0.4037
   81MOL    C9925859   3.579   3.205   1.854 -0.3187 -0.4047  0.2129
   81MOL   C10025860   3.575   3.063   1.862  0.3485  0.1111 -0.4487
   81MOL   C10125861   3.473   3.005   1.939  0.6826  0.4544  0.6975
   81MOL   C10225862   3.378   3.079   2.011 -0.4328  0.0403  0.5040
   81MOL  Cl10325863   3.268   2.998   2.116 -0.0472 -0.4537  0.1170
   81MOL   C10425864   3.387   3.219   2.012  0.2130  0.4342 -1.0757
   81MOL   C10525865   3.488   3.283   1.936 -0.5687  0.5875  0.0506
   81MOL   C10625866   3.651   3.423   1.716  0.2223 -0.1950  0.3727
   81MOL   H10725867   3.684   3.211   1.675 -1.2178  0.9021 -1.2925
   81MOL   H10825868   3.641   2.999   1.805 -1.9139  0.1807 -3.2935
   81MOL   H10925869   3.472   2.898   1.948  3.5648  0.4277  1.0484
   81MOL   H11025870   3.316   3.280   2.066 -0.2554 -2.5649  1.8948
   81MOL   H11125871   3.474   3.390   1.938 -0.8785  0.5489 -0.0044
   81MOL   H11225872   3.628   3.480   1.806  1.3728  0.3339  0.3475
   81MOL   H11325873   3.739   3.474   1.677  0.1737 -1.0617 -0.8869
   81MOL   C11425874   3.523   3.450   1.635 -0.4932  0.8247 -0.7835
   81MOL   C11525875   3.504   3.596   1.618 -0.5259  0.6428  0.1229
   81MOL   C11625876   3.398   3.654   1.698  0.2111 -0.5320  0.2949
   81MOL   C11725877   3.372   3.790   1.699  0.0164  0.7580  0.4602
   81MOL   C11825878   3.438   3.864   1.600  0.3556 -0.4984 -0.1014
   81MOL  Cl11925879   3.393   4.029   1.581  0.2197 -0.1850  0.2449
   81MOL   C12025880   3.538   3.810   1.519  1.2388  0.8573  0.1522
   81MOL   C12125881   3.582   3.680   1.539 -0.7132 -0.1515  0.3029
   81MOL   C12225882   3.519   3.371   1.497 -0.3284 -0.4290 -0.0024
   81MOL   H12325883   3.440   3.415   1.697 -0.8089 -0.1172 -1.7228
   81MOL   H12425884   3.337   3.600   1.769  0.5679 -2.2099 -0.6658
   81MOL   H12525885   3.289   3.828   1.757 -0.1649 -0.9664  1.3773
   81MOL   H12625886   3.576   3.880   1.446  1.8851 -0.1477 -0.4939
   81MOL   H12725887   3.661   3.635   1.480  1.0314  0.5156  2.0920
   81MOL   H12825888   3.466   3.431   1.423 -0.0581 -0.1784  0.0102
   81MOL   H12925889   3.623   3.360   1.467 -0.6890 -1.0033 -1.1048
   81MOL   C13025890   3.445   3.233   1.520  0.6162 -0.1734  0.1369
   81MOL   C13125891   3.293   3.250   1.537 -0.2523  0.6695 -0.5882
   81MOL   C13225892   3.243   3.197   1.656 -0.1675  0.1017 -0.1881
   81MOL   C13325893   3.106   3.211   1.685  0.4201  0.0023 -0.3731
   81MOL   C13425894   3.026   3.293   1.602  0.1726  0.3069  0.6148
   81MOL  Cl13525895   2.863   3.322   1.640  0.1710 -0.1281 -0.0557
   81MOL   C13625896   3.081   3.344   1.480  0.0519 -0.0700 -0.1505
   81MOL   C13725897   3.214   3.323   1.447 -0.1091  0.2452  0.3423
   81MOL   C13825898   3.475   3.145   1.402 -0.5242 -0.8047  0.1320
   81MOL   H13925899   3.484   3.187   1.611  2.0373  0.4671 -0.1311
   81MOL   H14025900   3.306   3.130   1.711 -2.1946 -1.1912  0.6133
   81MOL   H14125901   3.059   3.166   1.771 -0.2266  0.4323 -0.5003
   81MOL   H14225902   3.027   3.394   1.400  1.7244  3.5744  0.9302
   81MOL   H14325903   3.250   3.359   1.352  0.2603  0.8009  0.6888
   81MOL   H14425904   3.423   3.196   1.321 -1.7743 -0.8065  0.9065
   81MOL   H14525905   3.581   3.131   1.383  0.1270 -1.1051  3.6316
   81MOL   C14625906   3.423   2.999   1.401 -1.0276 -0.8127 -0.1303
   81MOL   C14725907   3.411   2.947   1.258  0.2988  0.1830 -0.0372
   81MOL   C14825908   3.296   2.884   1.213  0.1161  0.3512 -0.1898
   81MOL   C14925909   3.281   2.836   1.081 -0.2642 -0.1004 -0.1368
   81MOL   C15025910   3.392   2.837   0.998  0.6613  0.4546  0.5256
   81MOL  Cl15125911   3.360   2.779   0.840  0.1116  0.2248  0.2111
   81MOL   C15225912   3.513   2.893   1.038  0.1206 -0.3910 -0.4146
   81MOL   C15325913   3.523   2.951   1.167  0.3464  0.1907  0.0854
   81MOL   C15425914   3.524   2.913   1.476 -0.3268 -0.4998  0.3805
   81MOL   H15525915   3.323   3.005   1.445 -1.2435 -1.2454 -0.5508
   81MOL   H15625916   3.213   2.870   1.281 -1.2945  0.7999 -1.7635
   81MOL   H15725917   3.188   2.795   1.044 -0.9469  1.1019  0.2418
   81MOL   H15825918   3.603   2.893   0.979  1.3547 -0.8107  1.4081
   81MOL   H15925919   3.616   2.992   1.202 -0.3319 -0.2240  2.4782
   81MOL   H16025920   3.617   2.909   1.420 -1.3198 -1.1347 -1.2515
   81MOL   H16125921   3.564   2.964   1.564  2.3235 -1.0752 -0.4666
   81MOL   C16225922   3.474   2.771   1.506 -0.1647 -0.8050 -0.1691
   81MOL   C16325923   3.592   2.679   1.532 -0.6510  0.2807 -0.1599
   81MOL   C16425924   3.707   2.717   1.608 -0.5981  0.4270  0.5019
   81MOL   C16525925   3.820   2.632   1.606 -0.7162 -0.3906  0.3700
   81MOL   C16625926   3.815   2.508   1.542 -0.0109 -0.1110  0.7288
   81MOL  Cl16725927   3.957   2.412   1.523 -0.0077 -0.1779 -0.2040
   81MOL   C16825928   3.701   2.460   1.486  0.3637  0.1547 -0.5156
   81MOL   C16925929   3.591   2.552   1.467  0.2871 -0.6618  0.4443
   81MOL   C17025930   3.382   2.766   1.626  0.2148  0.8171  0.0060
   81MOL   H17125931   3.423   2.741   1.415 -0.1276 -3.2630  0.6087
   81MOL   H17225932   3.719   2.817   1.647  0.3489  1.0226 -1.2607
   81MOL   H17325933   3.906   2.666   1.662  0.1744 -1.3166 -0.4090
   81MOL   H17425934   3.690   2.361   1.443  0.7057  0.2954 -0.9381
   81MOL   H17525935   3.501   2.519   1.418 -0.5858 -0.2662  1.7480
   81MOL   H17625936   3.434   2.825   1.702 -0.6361  1.9130 -0.2533
   81MOL   H17725937   3.296   2.823   1.591  1.5376  1.7316 -1.7989
   81MOL   C17825938   3.339   2.634   1.695  0.4263  0.0256 -0.1230
   81MOL   C17925939   3.277   2.656   1.837 -0.4997  0.2794  0.3342
   81MOL   C18025940   3.141   2.692   1.845 -1.1691  0.2333 -0.0031
   81MOL   C18125941   3.082   2.712   1.971 -0.0937 -0.2093  0.5130
   81MOL   C18225942   3.156   2.697   2.091 -0.5328 -0.6106  0.0507
   81MOL  Cl18325943   3.088   2.727   2.245 -0.1992 -0.3447 -0.2794
   81MOL   C18425944   3.290   2.666   2.084 -0.4866  0.0365  0.0764
   81MOL   C18525945   3.355   2.647   1.957 -0.1437  0.5464  0.2547
   81MOL   C18625946   3.262   2.539   1.605  0.3610  0.0183  0.5045
   81MOL   H18725947   3.430   2.578   1.716  0.8689  0.9883  0.5835
   81MOL   H18825948   3.082   2.702   1.755 -1.3330 -0.1894  0.0533
   81MOL   H18925949   2.980   2.744   1.990  1.1587  4.5784  0.0156
   81MOL   H19025950   3.351   2.655   2.173  0.5164 -0.2704 -0.6393
   81MOL   H19125951   3.463   2.638   1.947 -0.2764  2.2571 -3.5609
   81MOL   H19225952   3.181   2.597   1.562  0.0734  1.6563  3.1282
   81MOL   H19325953   3.316   2.510   1.515 -2.8792  1.1210 -1.8707
   81MOL   C19425954   3.213   2.406   1.671 -0.0113  0.1211  0.0041
   81MOL   C19525955   3.068   2.377   1.639 -0.1622 -0.1713  0.1305
   81MOL   C19625956   2.970   2.389   1.745  0.2725  0.2976 -0.3720
   81MOL   C19725957   2.831   2.370   1.714  0.7577 -0.0418 -0.2438
   81MOL   C19825958   2.806   2.334   1.586  0.4921 -0.5268 -0.4416
   81MOL  Cl19925959   2.646   2.299   1.539  0.0210 -0.1921  0.4363
   81MOL   C20025960   2.904   2.308   1.486 -0.3747 -0.0945 -0.1855
   81MOL   C20125961   3.038   2.332   1.511 -0.7143  0.3772  0.0437
   81MOL   C20225962   3.303   2.275   1.646 -0.0174  0.5873 -0.1253
   81MOL   H20325963   3.225   2.415   1.778 -2.1771  0.0583  0.2845
   81MOL   H20425964   2.997   2.429   1.841 -0.4086  1.0106 -0.4730
   81MOL   H20525965   2.755   2.371   1.791  0.8013 -1.9885 -0.1529
   81MOL   H20625966   2.872   2.271   1.389 -2.9544  0.0697  0.5810
   81MOL   H20725967   3.114   2.312   1.436 -1.0373 -2.6724  0.4540
   81MOL   H20825968   3.239   2.187   1.652 -0.4167  0.8491 -0.5872
   81MOL   H20925969   3.340   2.272   1.544  0.3999  1.4879 -0.0017
   81MOL   C21025970   3.421   2.261   1.743 -0.2896 -0.1546  0.1050
   81MOL   C21125971   3.363   2.222   1.879  0.0334 -0.2672 -0.5471
   81MOL   C21225972   3.382   2.308   1.988 -0.3229 -0.3314 -0.5079
   81MOL   C21325973   3.318   2.275   2.114  0.1431 -0.0060 -0.3406
   81MOL   C21425974   3.260   2.149   2.143  0.9280  0.1623  0.1808
   81MOL  Cl21525975   3.181   2.128   2.298  0.1138  0.2715  0.2620
   81MOL   C21625976   3.247   2.062   2.035  0.8716  0.2563 -0.2030
   81MOL   C21725977   3.295   2.100   1.902 -0.5618 -0.1228 -0.6183
   81MOL   C21825978   3.539   2.165   1.705 -0.6770 -0.0512  0.0217
   81MOL   H21925979   3.457   2.364   1.737 -0.7957  0.0008 -0.3788
   81MOL   H22025980   3.435   2.401   1.983 -0.6323 -0.1872 -1.1380
   81MOL   H22125981   3.308   2.344   2.197  0.9683 -0.3201  0.0210
   81MOL   H22225982   3.174   1.983   2.045 -2.0252  2.7038 -1.1396
   81MOL   H22325983   3.269   2.042   1.815 -1.8241 -1.8831  0.9010
   81MOL   H22425984   3.510   2.061   1.687 -0.1729  0.1248 -1.9274
   81MOL   H22525985   3.578   2.191   1.607  3.2092 -0.2240  1.4425
   81MOL   C22625986   3.658   2.179   1.807 -0.7881  0.1353  0.4896
   81MOL   C22725987   3.769   2.076   1.784 -0.8970 -0.9411 -0.4866
   81MOL   C22825988   3.838   2.074   1.658  0.5767 -0.4379  0.3574
   81MOL   C22925989   3.941   1.981   1.645  0.0293  0.4959  0.1565
   81MOL   C23025990   3.972   1.888   1.741  0.1506 -0.2327  0.6034
   81MOL  Cl23125991   4.093   1.763   1.710 -0.0366 -0.3797 -0.2696
   81MOL   C23225992   3.895   1.880   1.857 -0.1750  0.5999  0.3022
   81MOL   C23325993   3.800   1.980   1.879  0.4108  0.0454 -0.2779
   81MOL   C23425994   3.720   2.324   1.817 -0.5299  0.0223 -0.3819
   81MOL   H23525995   3.621   2.167   1.909  0.2829  2.0193  1.1231
   81MOL   H23625996   3.811   2.143   1.579 -0.2155  0.5919  1.5001
   81MOL   H23725997   4.001   1.989   1.555  2.3965  0.5713  1.7011
   81MOL   H23825998   3.913   1.797   1.924 -0.2157  0.2083 -0.1759
   81MOL   H23925999   3.755   1.969   1.976  3.1119 -0.5789  0.9176
   81MOL   H24026000   3.753   2.375   1.727 -2.5813 -1.1583 -1.8702
   81MOL   H24126001   3.645   2.401   1.834 -1.6358 -1.4063  1.4081
   81MOL   C24226002   3.834   2.336   1.923  0.7570 -0.2032  0.1607
   81MOL   C24326003   3.885   2.480   1.912 -0.4022  0.5183 -0.4349
   81MOL   C24426004   4.016   2.506   1.865 -0.1179 -0.3995 -0.0103
   81MOL   C24526005   4.072   2.634   1.880  0.5094  0.6354  0.4645
   81MOL   C24626006   3.992   2.739   1.925 -0.1590  0.3132 -0.4991
   81MOL  Cl24726007   4.053   2.899   1.937 -0.2839 -0.2814  0.2958
   81MOL   C24826008   3.860   2.713   1.973 -0.4836 -0.7963  0.3033
   81MOL   C24926009   3.806   2.586   1.955  0.1327  0.5879 -0.0189
   81MOL   C25026010   3.806   2.294   2.070  0.0410  0.9680 -0.0026
   81MOL   H25126011   3.907   2.263   1.888 -0.4719  0.2221 -3.6037
   81MOL   H25226012   4.093   2.432   1.856 -0.6310 -1.2083  2.1516
   81MOL   H25326013   4.172   2.659   1.847 -0.5587  1.9810 -1.9602
   81MOL   H25426014   3.800   2.791   2.017 -1.3892 -1.9971  1.2350
   81MOL   H25526015   3.703   2.568   1.980 -0.0001  1.4574  0.0923
   81MOL   H25626016   3.718   2.349   2.103  0.4864  1.2891  0.6710
   81MOL   H25726017   3.785   2.188   2.085  0.5271  0.7857 -0.5937
   81MOL   C25826018   3.915   2.325   2.174  0.8406 -0.4388 -0.3139
   81MOL   C25926019   3.855   2.407   2.297  0.6696  0.1101 -0.0138
   81MOL   C26026020   3.901   2.536   2.325  0.1087 -0.4220  0.2424
   81MOL   C26126021   3.843   2.606   2.432 -0.2719 -0.1239  0.2475
   81MOL   C26226022   3.735   2.551   2.499  0.3867  0.4208  0.5433
   81MOL  Cl26326023   3.681   2.640   2.635 -0.0546 -0.1435 -0.0370
   81MOL   C26426024   3.682   2.425   2.475  0.1547  0.7245 -0.4841
   81MOL   C26526025   3.744   2.347   2.370 -0.6533 -0.1833  0.9732
   81MOL   C26626026   3.986   2.191   2.218 -0.5005 -1.0696  0.4975
   81MOL   H26726027   3.988   2.395   2.135  0.6236 -1.0426 -1.8558
   81MOL   H26826028   3.984   2.581   2.272  0.1725  1.3333  1.7853
   81MOL   H26926029   3.878   2.705   2.458 -1.5768  0.2518  0.6530
   81MOL   H27026030   3.595   2.385   2.525  0.1923  2.3559  0.9558
   81MOL   H27126031   3.699   2.254   2.340  0.0776 -0.3696  0.4401
   81MOL   H27226032   3.915   2.151   2.290 -0.5456  0.4595  1.3228
   81MOL   H27326033   3.995   2.121   2.134  0.3752 -1.5054  0.9464
   81MOL   C27426034   4.132   2.198   2.272  1.0003 -0.6867  0.8323
   81MOL   C27526035   4.159   2.295   2.394  0.3756  0.3619 -0.1044
   81MOL   C27626036   4.062   2.305   2.496 -0.4424  0.5471  0.7487
   81MOL   C27726037   4.095   2.371   2.618 -0.9251  0.3278 -0.1634
   81MOL   C27826038   4.208   2.450   2.628  0.1354 -0.4322  0.3777
   81MOL  Cl27926039   4.256   2.506   2.783 -0.1564  0.0031  0.1840
   81MOL   C28026040   4.307   2.444   2.523 -0.9858 -0.3075  0.5371
   81MOL   C28126041   4.281   2.373   2.404  1.1557  0.9579 -0.0205
   81MOL   C28226042   4.175   2.059   2.324  0.9430  0.5038 -0.0954
   81MOL   H28326043   4.205   2.225   2.196 -1.2042 -1.3108 -1.6131
   81MOL   H28426044   3.968   2.251   2.495  0.6890 -1.4884  1.2211
   81MOL   H28526045   4.024   2.382   2.700 -1.9700  0.5210 -1.0804
   81MOL   H28626046   4.405   2.484   2.545 -0.5677 -1.2721  0.4208
   81MOL   H28726047   4.356   2.382   2.327 -1.6464 -2.6168 -3.3586
   81MOL   H28826048   4.258   2.067   2.394  1.5472 -0.7451 -0.6465
   81MOL   H28926049   4.099   2.013   2.387  0.2455 -0.8248 -1.8532
   81MOL   C29026050   4.208   1.958   2.212  0.7842 -0.0268 -0.2446
   81MOL   C29126051   4.306   1.997   2.103 -0.1887 -0.1250 -0.4514
   81MOL   C29226052   4.266   1.997   1.971  0.3017  1.1764 -0.5237
   81MOL   C29326053   4.361   2.018   1.863 -0.0844  0.4733 -0.4153
   81MOL   C29426054   4.493   2.040   1.898  0.5583 -0.2134  0.0989
   81MOL  Cl29526055   4.614   2.068   1.774  0.4454  0.0758 -0.5318
   81MOL   C29626056   4.530   2.049   2.038  0.4368  0.0333 -0.4735
   81MOL   C29726057   4.441   2.022   2.140 -0.4996 -0.0484 -0.1802
   81MOL   C29826058   4.261   1.825   2.286 -0.0277 -0.2974 -0.3406
   81MOL   H29926059   4.117   1.934   2.157  0.0323 -1.3965  1.5352
   81MOL   H30026060   4.163   1.973   1.949  0.5431 -0.0103 -0.3767
   81MOL   H30126061   4.330   2.012   1.760  0.5002 -1.1194 -0.5151
   81MOL   H30226062   4.635   2.048   2.062  0.2951  0.4044  0.1428
   81MOL   H30326063   4.470   2.025   2.244 -1.4910 -1.4905  0.1549
   81MOL   H30426064   4.342   1.848   2.356 -1.5170  1.0755  0.9917
   81MOL   H30526065   4.178   1.786   2.344  0.6362 -3.6958 -1.5945
   81MOL   C30626066   4.324   1.708   2.206  0.4589  0.3847 -0.6038
   81MOL   C30726067   4.386   1.611   2.297 -0.3009  0.0695 -0.5034
   81MOL   C30826068   4.311   1.527   2.376 -0.1349 -0.5522  0.1182
   81MOL   C30926069   4.364   1.450   2.481  0.0207 -0.3094 -0.3610
   81MOL   C31026070   4.502   1.447   2.503 -0.3779 -0.1931  0.0633
   81MOL  Cl31126071   4.556   1.336   2.610  0.3480 -0.0596  0.3438
   81MOL   C31226072   4.590   1.523   2.423  0.5249 -0.2533  0.0812
   81MOL   C31326073   4.535   1.611   2.326 -0.2216  1.1161  0.4019
   81MOL   C31426074   4.233   1.635   2.111 -0.2890 -0.4066 -0.3730
   81MOL   H31526075   4.405   1.746   2.144  2.3294 -1.2750  0.7834
   81MOL   H31626076   4.205   1.532   2.357 -0.2711  1.7333  1.3596
   81MOL   H31726077   4.293   1.389   2.534  1.5506 -1.2482  0.6491
   81MOL   H31826078   4.695   1.517   2.446  0.1309  0.7685  2.1742
   81MOL   H31926079   4.598   1.665   2.257  2.6187 -1.4818  0.8282
   81MOL   H32026080   4.214   1.707   2.032 -0.1978  0.9623  0.8310
   81MOL   H32126081   4.277   1.542   2.075 -0.8621 -0.8524  0.0690
   81MOL   H32226082   4.139   1.613   2.160 -0.9781  0.8724 -1.0838
   82MOL     C126083   6.621   1.679   7.312 -0.2759 -0.3862  0.1242
   82MOL     C226084   6.549   1.578   7.402  0.1641  0.2973  0.4483
   82MOL     C326085   6.517   1.614   7.536  0.4015 -0.7348 -0.7395
   82MOL     C426086   6.443   1.533   7.621 -0.0074  0.0215  0.3041
   82MOL     C526087   6.405   1.406   7.570 -0.2822  0.2680 -0.5842
   82MOL    Cl626088   6.304   1.304   7.671 -0.0270 -0.1819 -0.0146
   82MOL     C726089   6.437   1.358   7.441 -0.1178 -0.4244  0.3845
   82MOL     C826090   6.504   1.456   7.354  0.2739  0.3818  0.1418
   82MOL     C926091   6.525   1.784   7.262  0.1691  0.2626 -0.1135
   82MOL    H1026092   6.668   1.631   7.226  2.2028  3.2540 -0.6604
   82MOL    H1126093   6.540   1.715   7.566 -0.9411 -1.2698  2.2946
   82MOL    H1226094   6.409   1.578   7.713 -1.0436  1.7839 -0.9173
   82MOL    H1326095   6.394   1.266   7.404 -0.6837  0.7061 -1.8244
   82MOL    H1426096   6.512   1.429   7.249 -0.7749  0.9903 -0.1001
   82MOL    H1526097   6.435   1.724   7.251 -1.1428  2.0986  0.3887
   82MOL    H1626098   6.512   1.861   7.338  2.4164  0.5058  0.0740
   82MOL    H1726099   6.705   1.719   7.369 -0.0036  0.1202 -0.6212
   82MOL    C1826100   6.552   1.841   7.128  0.8793 -0.3593 -1.1448
   82MOL    C1926101   6.427   1.905   7.064  0.2578 -0.6695 -0.2980
   82MOL    C2026102   6.400   1.891   6.921 -0.5366  0.5612 -0.1033
   82MOL    C2126103   6.284   1.955   6.869  0.4635  0.4771 -0.1295
   82MOL    C2226104   6.222   2.054   6.944 -0.8884  0.0609  0.1244
   82MOL   Cl2326105   6.094   2.155   6.882 -0.0889 -0.3606  0.2736
   82MOL    C2426106   6.260   2.080   7.076 -0.2485  0.1522  0.0121
   82MOL    C2526107   6.358   2.001   7.140  0.0006  0.0710  0.3903
   82MOL    C2626108   6.670   1.943   7.140  0.2151 -0.7352  0.9857
   82MOL    H2726109   6.571   1.768   7.049 -0.6641  0.7284 -2.5613
   82MOL    H2826110   6.468   1.827   6.865 -0.2437  1.6236 -0.9778
   82MOL    H2926111   6.248   1.924   6.772 -2.2868 -0.1621  1.0552
   82MOL    H3026112   6.198   2.148   7.133 -1.6201 -1.3908  0.4220
   82MOL    H3126113   6.364   2.010   7.247  1.5007 -2.2018  0.5331
   82MOL    H3226114   6.630   2.040   7.109 -1.1784 -1.5439  0.2453
   82MOL    H3326115   6.704   1.955   7.243 -0.0263  0.4595  0.9344
   82MOL    C3426116   6.793   1.901   7.060 -0.1498  0.4704  0.6118
   82MOL    C3526117   6.761   1.908   6.910  0.3883 -0.1588  0.1141
   82MOL    C3626118   6.741   2.036   6.849 -0.5173 -0.1303 -0.0463
   82MOL    C3726119   6.728   2.047   6.710 -0.3922  0.6163 -0.4081
   82MOL    C3826120   6.739   1.937   6.624  0.8918 -0.3077  0.1651
   82MOL   Cl3926121   6.719   1.953   6.454  0.1441  0.2867  0.1027
   82MOL    C4026122   6.757   1.811   6.683  0.3187  0.6565 -0.0244
   82MOL    C4126123   6.766   1.794   6.821  0.5828 -0.5950 -0.0081
   82MOL    C4226124   6.913   1.996   7.078  0.0442  0.1276 -0.0612
   82MOL    H4326125   6.813   1.798   7.089  0.7184  1.0358  2.0514
   82MOL    H4426126   6.736   2.119   6.919  0.4416  0.4437 -0.6505
   82MOL    H4526127   6.705   2.148   6.680 -0.9591  1.1857  1.8047
   82MOL    H4626128   6.750   1.719   6.627 -1.5347 -0.0493  1.3132
   82MOL    H4726129   6.792   1.696   6.859 -2.4887 -0.7943  1.7463
   82MOL    H4826130   6.983   1.988   6.995 -0.3351  0.2241 -0.3963
   82MOL    H4926131   6.890   2.101   7.058 -0.7066 -0.6509 -3.6150
   82MOL    C5026132   6.986   1.979   7.212 -0.2887  0.1247  0.0424
   82MOL    C5126133   7.022   1.832   7.235  0.4342  0.0570 -0.6125
   82MOL    C5226134   7.105   1.763   7.140 -0.4099 -0.0215  1.1968
   82MOL    C5326135   7.127   1.623   7.157  0.1671 -0.4579  1.2382
   82MOL    C5426136   7.092   1.563   7.276 -0.3039  0.5089 -0.4970
   82MOL   Cl5526137   7.145   1.410   7.314 -0.2684 -0.2409 -0.1259
   82MOL    C5626138   7.012   1.630   7.373  0.5231 -0.0827  0.0316
   82MOL    C5726139   6.978   1.763   7.352 -0.5748  0.1738 -1.0803
   82MOL    C5826140   7.106   2.075   7.227  0.1703 -0.6426  0.6062
   82MOL    H5926141   6.917   2.017   7.287 -0.1497  0.7908 -0.1634
   82MOL    H6026142   7.126   1.803   7.042  0.0063 -1.1787  0.8012
   82MOL    H6126143   7.186   1.573   7.081 -0.1390 -1.1650  1.4596
   82MOL    H6226144   6.987   1.570   7.459  1.0600 -1.0918 -0.5034
   82MOL    H6326145   6.913   1.820   7.416 -0.8730 -1.4857  0.1282
   82MOL    H6426146   7.168   2.054   7.139 -0.1105 -1.4852  0.6051
   82MOL    H6526147   7.074   2.178   7.214  1.1627 -0.5361 -1.1875
   82MOL    C6626148   7.183   2.059   7.359 -0.2767  0.2036 -0.4710
   82MOL    C6726149   7.328   2.022   7.341  0.5521 -0.5051  0.1355
   82MOL    C6826150   7.387   1.928   7.428 -0.5374 -0.3327 -0.4613
   82MOL    C6926151   7.511   1.872   7.392 -0.2267  0.0231  0.2665
   82MOL    C7026152   7.588   1.928   7.288  0.1806  0.0304  0.6530
   82MOL   Cl7126153   7.750   1.872   7.283 -0.1963  0.3482  0.3730
   82MOL    C7226154   7.533   2.036   7.208 -0.5702  0.0272 -0.3730
   82MOL    C7326155   7.403   2.084   7.243  0.2252  0.7226  0.0709
   82MOL    C7426156   7.171   2.184   7.451 -0.4457 -0.4868 -0.3873
   82MOL    H7526157   7.138   1.979   7.416  0.1039 -0.6416 -1.3423
   82MOL    H7626158   7.324   1.882   7.503  0.3454 -0.9563 -0.0892
   82MOL    H7726159   7.545   1.788   7.451  3.8573  2.3968  1.4972
   82MOL    H7826160   7.594   2.087   7.135  1.3678 -1.7617 -0.0273
   82MOL    H7926161   7.350   2.161   7.188 -0.3950 -0.0336 -0.4075
   82MOL    H8026162   7.248   2.183   7.529 -0.7053  0.6940 -0.1092
   82MOL    H8126163   7.204   2.267   7.389  1.6184 -1.3765 -0.5515
   82MOL    C8226164   7.035   2.194   7.533  0.0721  0.1223  0.7323
   82MOL    C8326165   7.002   2.071   7.620  0.8245  0.4001  0.2506
   82MOL    C8426166   6.871   2.020   7.604  0.1126 -0.1754 -0.2614
   82MOL    C8526167   6.831   1.906   7.667  0.4818 -0.2200  0.1645
   82MOL    C8626168   6.912   1.847   7.763 -0.1592 -0.0866  0.1686
   82MOL   Cl8726169   6.868   1.701   7.842 -0.2357 -0.2032 -0.3462
   82MOL    C8826170   7.043   1.898   7.784  0.8741  0.0765 -0.2848
   82MOL    C8926171   7.091   1.996   7.697  0.6730 -0.3698 -0.5795
   82MOL    C9026172   7.027   2.329   7.610  0.0379 -0.6238  0.4237
   82MOL    H9126173   6.960   2.199   7.453  0.8818  0.8671  0.0091
   82MOL    H9226174   6.800   2.075   7.544 -1.1838  0.7644  2.0589
   82MOL    H9326175   6.732   1.865   7.650 -0.2302  1.4921  0.0865
   82MOL    H9426176   7.115   1.849   7.848  0.0980 -0.1468  0.4290
   82MOL    H9526177   7.183   2.048   7.721 -0.4380  1.2186  0.4382
   82MOL    H9626178   7.120   2.327   7.667  0.3319  2.3377  0.0951
   82MOL    H9726179   7.035   2.407   7.535 -0.9835 -1.3885 -0.4971
   82MOL    C9826180   6.905   2.357   7.691 -0.2007  0.1580  0.1464
   82MOL    C9926181   6.922   2.329   7.842  0.3019 -0.0533  0.5257
   82MOL   C10026182   6.828   2.256   7.915  0.0356 -0.4121  0.4887
   82MOL   C10126183   6.843   2.234   8.055 -0.9546 -0.2381 -0.6998
   82MOL   C10226184   6.964   2.277   8.119 -0.1561 -0.0710 -0.1046
   82MOL  Cl10326185   6.997   2.260   8.289  0.2247  0.0119 -0.1698
   82MOL   C10426186   7.057   2.352   8.044  0.1890  0.1429 -0.0774
   82MOL   C10526187   7.036   2.379   7.909  0.8069 -0.1883  0.7162
   82MOL   C10626188   6.855   2.498   7.671 -0.2543 -0.2427  0.0547
   82MOL   H10726189   6.821   2.300   7.651  0.0668  0.4798 -0.8872
   82MOL   H10826190   6.730   2.226   7.882  1.1263 -1.9692 -1.4710
   82MOL   H10926191   6.764   2.183   8.109 -1.0835 -0.3510 -0.9910
   82MOL   H11026192   7.149   2.385   8.090  0.0195  1.4139 -0.6429
   82MOL   H11126193   7.110   2.435   7.854  0.4187  1.1902  1.5529
   82MOL   H11226194   6.775   2.522   7.742 -0.0711 -0.3035  0.2849
   82MOL   H11326195   6.942   2.564   7.667 -0.1580 -0.2381  1.6149
   82MOL   C11426196   6.794   2.521   7.524  0.0778  0.2405  0.6698
   82MOL   C11526197   6.653   2.472   7.488  0.1033  0.0452  0.4923
   82MOL   C11626198   6.613   2.458   7.353 -0.6215 -0.0130  0.0122
   82MOL   C11726199   6.494   2.403   7.319 -0.2330  0.2144  0.4086
   82MOL   C11826200   6.404   2.358   7.420  0.2345 -0.7668  0.5949
   82MOL  Cl11926201   6.263   2.270   7.377  0.5688  0.1252  0.7498
   82MOL   C12026202   6.442   2.370   7.556  0.2401 -0.3460  0.7823
   82MOL   C12126203   6.567   2.425   7.589  0.1133 -0.7669 -0.1403
   82MOL   C12226204   6.797   2.683   7.497  0.4514 -0.6152 -0.3164
   82MOL   H12326205   6.860   2.473   7.453 -1.8995 -0.6473 -0.6229
   82MOL   H12426206   6.680   2.500   7.280  0.8011  0.3037  1.4888
   82MOL   H12526207   6.461   2.390   7.216  0.8104  0.5661  0.0270
   82MOL   H12626208   6.384   2.340   7.642  0.6456  1.2363  1.6266
   82MOL   H12726209   6.593   2.427   7.694  0.2459 -0.7547 -0.1740
   82MOL   H12826210   6.725   2.711   7.420  0.4452 -3.0017 -1.2044
   82MOL   H12926211   6.736   2.745   7.563  1.7464  1.2465 -0.8231
   82MOL   C13026212   6.938   2.745   7.462 -0.1947  0.4782  0.5983
   82MOL   C13126213   6.999   2.670   7.342 -0.3059  0.1398 -0.1085
   82MOL   C13226214   7.123   2.602   7.356  0.4568 -0.2200  0.6643
   82MOL   C13326215   7.183   2.540   7.247  0.3301  0.4050 -0.1414
   82MOL   C13426216   7.135   2.560   7.117 -0.1774 -0.2487  0.0829
   82MOL  Cl13526217   7.236   2.511   6.985 -0.2724  0.5297  0.0702
   82MOL   C13626218   7.005   2.618   7.104  0.3494  0.3654  0.0921
   82MOL   C13726219   6.940   2.669   7.219  0.2998 -0.0079 -0.4072
   82MOL   C13826220   6.927   2.898   7.436  0.0555 -0.5475  0.7359
   82MOL   H13926221   6.998   2.726   7.551 -1.0676 -0.4906  0.9852
   82MOL   H14026222   7.158   2.605   7.458  2.4261 -0.4643  0.0342
   82MOL   H14126223   7.279   2.495   7.269 -0.1318  0.4194  2.0178
   82MOL   H14226224   6.961   2.645   7.009  0.8306  2.6944  0.4901
   82MOL   H14326225   6.841   2.708   7.200  0.1741  0.2016  0.6355
   82MOL   H14426226   6.855   2.917   7.357  0.8914  1.0366  0.3391
   82MOL   H14526227   6.885   2.952   7.522  2.2498  1.6685  0.4891
   82MOL   C14626228   7.063   2.977   7.430 -0.3047 -0.3837  0.1470
   82MOL   C14726229   7.143   2.938   7.309 -0.3472  0.7264 -0.2768
   82MOL   C14826230   7.089   2.955   7.178 -0.6035  0.0440 -0.1330
   82MOL   C14926231   7.165   2.922   7.064 -0.1738  0.5750 -0.3374
   82MOL   C15026232   7.289   2.853   7.081  0.2287 -0.6016 -0.0067
   82MOL  Cl15126233   7.396   2.824   6.949  0.3898 -0.1816  0.2979
   82MOL   C15226234   7.340   2.828   7.212  0.1497 -0.0033  0.2504
   82MOL   C15326235   7.272   2.882   7.324  0.0953  0.0841 -0.7205
   82MOL   C15426236   7.043   3.132   7.445  0.0410 -0.0229  0.4364
   82MOL   H15526237   7.115   2.941   7.519 -2.2026 -0.3506  1.3097
   82MOL   H15626238   6.992   3.001   7.167 -0.2967  0.3330 -1.7093
   82MOL   H15726239   7.132   2.948   6.964  0.6085 -1.8636 -1.2734
   82MOL   H15826240   7.439   2.787   7.224  0.2702  0.4689  0.9169
   82MOL   H15926241   7.330   2.876   7.415  1.5477  1.8127 -1.4932
   82MOL   H16026242   6.972   3.167   7.370 -0.5994  0.8264  1.4162
   82MOL   H16126243   6.988   3.146   7.538 -1.3952 -0.3362 -0.3461
   82MOL   C16226244   7.159   3.232   7.425  0.3759  0.1571 -0.1485
   82MOL   C16326245   7.110   3.373   7.467  0.0892  0.4510  0.1571
   82MOL   C16426246   7.094   3.474   7.370 -0.4137 -0.7459  0.2641
   82MOL   C16526247   7.045   3.602   7.413  0.3878  0.2128 -0.2522
   82MOL   C16626248   7.011   3.626   7.547 -0.0261  0.2286  0.9413
   82MOL  Cl16726249   6.957   3.781   7.604 -0.1183 -0.1290  0.2330
   82MOL   C16826250   7.024   3.516   7.639 -0.2290  0.2911  0.7537
   82MOL   C16926251   7.070   3.389   7.597 -0.3440 -0.0736 -0.3251
   82MOL   C17026252   7.292   3.202   7.504  0.4651 -0.1051  0.4911
   82MOL   H17126253   7.183   3.241   7.318  1.1532 -0.0368  0.0044
   82MOL   H17226254   7.121   3.463   7.266 -1.6784 -0.9025 -0.0552
   82MOL   H17326255   7.027   3.684   7.345 -1.0455  0.3308  0.2537
   82MOL   H17426256   6.975   3.528   7.735 -2.4155 -1.7935 -0.0710
   82MOL   H17526257   7.063   3.315   7.675 -0.7449  0.6661  0.3493
   82MOL   H17626258   7.272   3.186   7.610 -0.6855 -0.0533  0.2968
   82MOL   H17726259   7.327   3.104   7.472 -0.3369  0.1485 -1.2717
   82MOL   C17826260   7.409   3.306   7.474  0.0441  0.1697 -0.0276
   82MOL   C17926261   7.399   3.429   7.565 -0.4375 -0.0209 -0.6003
   82MOL   C18026262   7.397   3.414   7.705  0.3419  0.1828  1.1806
   82MOL   C18126263   7.389   3.530   7.791  0.3952  0.0721  0.2085
   82MOL   C18226264   7.392   3.655   7.735  0.3480 -0.1958 -0.4353
   82MOL  Cl18326265   7.400   3.801   7.827 -0.6497 -0.2536  0.0103
   82MOL   C18426266   7.391   3.672   7.594 -0.2974  0.2861 -0.1598
   82MOL   C18526267   7.389   3.559   7.514  0.5774  0.3434  0.3774
   82MOL   C18626268   7.543   3.236   7.486 -0.0453  1.0810  0.6387
   82MOL   H18726269   7.410   3.337   7.370  0.3720  0.5153  0.0775
   82MOL   H18826270   7.399   3.311   7.738  3.3808  0.1399  1.0009
   82MOL   H18926271   7.380   3.508   7.897  0.5237 -2.5683 -0.2913
   82MOL   H19026272   7.409   3.768   7.547 -0.0440  1.0217  1.4131
   82MOL   H19126273   7.369   3.571   7.408 -0.8184 -1.1655  0.4495
   82MOL   H19226274   7.621   3.313   7.485 -0.9902  2.0477 -0.3695
   82MOL   H19326275   7.544   3.192   7.586  1.3495 -0.3474  0.0270
   82MOL   C19426276   7.585   3.131   7.376  0.1337 -0.3794 -0.2884
   82MOL   C19526277   7.566   3.195   7.241 -0.1593  0.5464  0.7845
   82MOL   C19626278   7.475   3.147   7.148  0.2470 -0.1585 -0.2659
   82MOL   C19726279   7.468   3.206   7.021  0.6023  0.5542  0.2883
   82MOL   C19826280   7.540   3.322   6.992  0.1326  0.0235 -0.1697
   82MOL  Cl19926281   7.522   3.407   6.849 -0.1431 -0.1116 -0.3459
   82MOL   C20026282   7.636   3.371   7.077  0.0995  0.0494 -0.3997
   82MOL   C20126283   7.654   3.300   7.200 -0.0095 -1.3027 -0.4864
   82MOL   C20226284   7.726   3.069   7.397 -0.0757  0.4559  0.1396
   82MOL   H20326285   7.511   3.052   7.374 -1.5724  1.1897 -0.6691
   82MOL   H20426286   7.418   3.057   7.160  1.3597 -0.9907 -1.1580
   82MOL   H20526287   7.407   3.156   6.948  0.4496  1.5194 -0.2516
   82MOL   H20626288   7.711   3.447   7.065  0.0181  0.2148  0.1195
   82MOL   H20726289   7.727   3.335   7.271 -1.1930 -0.8777  0.5321
   82MOL   H20826290   7.734   3.005   7.309 -0.2662 -0.7582  0.9941
   82MOL   H20926291   7.797   3.151   7.392  2.2881 -1.4915  0.7488
   82MOL   C21026292   7.751   2.992   7.529 -0.8046 -0.0361 -0.8310
   82MOL   C21126293   7.636   2.896   7.556 -0.7180  0.6502  0.4760
   82MOL   C21226294   7.553   2.924   7.666  0.0533  0.3682 -0.6905
   82MOL   C21326295   7.446   2.842   7.706  0.0663  0.3158 -0.0671
   82MOL   C21426296   7.429   2.724   7.631 -0.1741  0.2602  0.7305
   82MOL  Cl21526297   7.312   2.605   7.672  0.0112 -0.3302  0.2584
   82MOL   C21626298   7.511   2.688   7.521 -0.8852  0.6917  0.0053
   82MOL   C21726299   7.619   2.774   7.490 -0.0980  0.3949  0.7416
   82MOL   C21826300   7.880   2.904   7.519  1.3970 -0.0439  0.0182
   82MOL   H21926301   7.758   3.064   7.611 -0.9933 -1.4131  0.3984
   82MOL   H22026302   7.557   3.017   7.720  0.5117  0.5911 -1.1039
   82MOL   H22126303   7.381   2.873   7.787  0.1320 -0.7735  0.4044
   82MOL   H22226304   7.499   2.606   7.451  0.0189  0.2264  0.3930
   82MOL   H22326305   7.681   2.744   7.407 -1.3467 -0.1539 -0.0057
   82MOL   H22426306   7.886   2.829   7.597  0.9344 -2.9830 -2.6954
   82MOL   H22526307   7.877   2.841   7.430 -0.9208 -1.5937  1.1737
   82MOL   C22626308   8.014   2.975   7.526 -0.0193  0.3053  0.3074
   82MOL   C22726309   8.028   3.040   7.663 -0.3289  0.2123  0.0958
   82MOL   C22826310   8.042   2.960   7.776 -0.3380  0.2618 -0.7867
   82MOL   C22926311   8.050   3.022   7.902 -0.8243  0.6849  0.1317
   82MOL   C23026312   8.049   3.162   7.917  0.0955  0.6772 -0.3081
   82MOL  Cl23126313   8.045   3.229   8.072 -0.3871  0.2605  0.5604
   82MOL   C23226314   8.039   3.248   7.804  0.4400 -0.3245  0.4479
   82MOL   C23326315   8.032   3.181   7.679  0.2997  0.2843  0.5718
   82MOL   C23426316   8.136   2.885   7.494  0.7406 -0.0724  0.3203
   82MOL   H23526317   8.004   3.053   7.450  0.1837  0.6087  0.5908
   82MOL   H23626318   8.020   2.855   7.767 -0.4996  0.4913 -3.6763
   82MOL   H23726319   8.046   2.959   7.990 -0.0298 -0.5376 -0.7013
   82MOL   H23826320   8.044   3.356   7.805 -2.7383 -0.1174 -0.6869
   82MOL   H23926321   8.023   3.233   7.584 -0.4872 -2.6188 -0.9967
   82MOL   H24026322   8.229   2.936   7.518 -0.2196  1.4681  0.8976
   82MOL   H24126323   8.140   2.796   7.556 -1.0197  0.5810  1.4035
   82MOL   C24226324   8.139   2.824   7.349 -0.0066 -0.3805  0.3663
   82MOL   C24326325   8.174   2.932   7.245 -0.7269 -0.1812  0.4835
   82MOL   C24426326   8.306   2.969   7.227  0.4061  0.2020  0.5158
   82MOL   C24526327   8.342   3.061   7.125 -0.5214 -0.0308 -0.0688
   82MOL   C24626328   8.238   3.123   7.052 -0.1207  0.1233  0.0077
   82MOL  Cl24726329   8.285   3.261   6.967  0.0025 -0.1058 -0.1053
   82MOL   C24826330   8.101   3.089   7.075 -0.7713  0.1608 -0.2215
   82MOL   C24926331   8.072   2.989   7.167 -0.6438 -0.2026  0.6968
   82MOL   C25026332   8.210   2.694   7.329 -0.1058  0.4211  0.3742
   82MOL   H25126333   8.040   2.795   7.315 -0.1027 -0.2395  0.5198
   82MOL   H25226334   8.379   2.919   7.289  0.9717  0.8322  0.3635
   82MOL   H25326335   0.002   3.091   7.108 -0.1830 -1.4207 -0.5798
   82MOL   H25426336   8.025   3.154   7.033 -3.1756 -0.5624  2.7881
   82MOL   H25526337   7.968   2.965   7.186 -0.9780 -1.6027 -2.4369
   82MOL   H25626338   8.217   2.674   7.222 -0.4833  0.5506  0.3228
   82MOL   H25726339   8.309   2.706   7.371  0.1473 -0.8580  0.1409
   82MOL   C25826340   8.135   2.567   7.379  0.2328  0.0940  0.0275
   82MOL   C25926341   7.999   2.541   7.314  0.2684 -0.1762  0.8051
   82MOL   C26026342   7.878   2.542   7.386  0.0191  0.4846  0.3521
   82MOL   C26126343   7.755   2.496   7.323  0.6212 -0.5159  0.9797
   82MOL   C26226344   7.747   2.475   7.185  0.0800  0.0530  0.2395
   82MOL  Cl26326345   7.589   2.435   7.119 -0.1527 -0.3119 -0.2146
   82MOL   C26426346   7.865   2.488   7.110  0.5133 -0.4253  0.0461
   82MOL   C26526347   7.987   2.515   7.175 -0.0275  0.0622 -0.5158
   82MOL   C26626348   8.226   2.444   7.369 -0.2647  0.6934  0.4476
   82MOL   H26726349   8.119   2.593   7.484  2.0077  0.8967  0.1123
   82MOL   H26826350   7.875   2.567   7.491 -0.1211 -1.3335  0.7929
   82MOL   H26926351   7.665   2.489   7.383 -0.3479  2.0176 -0.0972
   82MOL   H27026352   7.857   2.477   7.003  0.7343 -0.2750  0.0141
   82MOL   H27126353   8.081   2.512   7.121  0.5307 -0.0535  0.4558
   82MOL   H27226354   8.162   2.360   7.395  2.2239 -1.1798  0.8097
   82MOL   H27326355   8.263   2.434   7.267 -1.1194  1.6902  0.0304
   82MOL   C27426356   8.352   2.445   7.461 -0.1600 -0.1230  0.5231
   82MOL   C27526357   8.307   2.483   7.601 -0.0853 -0.3160  0.1863
   82MOL   C27626358   8.217   2.397   7.671  1.0253  0.1932  0.4580
   82MOL   C27726359   8.156   2.446   7.791  0.0596  0.4583  0.2144
   82MOL   C27826360   8.196   2.569   7.844 -0.1408 -0.4293 -0.1918
   82MOL  Cl27926361   8.125   2.636   7.984  0.2979  0.0108  0.3456
   82MOL   C28026362   8.297   2.641   7.783  0.9715 -0.5000  0.7585
   82MOL   C28126363   8.349   2.599   7.663 -0.0471  0.2381 -0.0199
   82MOL   C28226364   0.002   2.322   7.448  0.0543 -0.1264  0.1730
   82MOL   H28326365   8.412   2.530   7.427  1.4172 -1.1055  0.7886
   82MOL   H28426366   8.182   2.303   7.632 -0.4652  1.8740 -2.3422
   82MOL   H28526367   8.076   2.392   7.840  0.5476 -0.0761  0.4382
   82MOL   H28626368   8.314   2.737   7.830  2.3549 -1.3827  2.0762
   82MOL   H28726369   8.408   2.676   7.616  1.4955  0.2298  1.8169
   82MOL   H28826370   8.382   2.233   7.460  2.9800 -2.2211  0.5651
   82MOL   H28926371   0.037   2.306   7.345 -1.2946 -0.4746 -0.2433
   82MOL   C29026372   0.117   2.331   7.547  1.0036 -0.5615 -0.0200
   82MOL   C29126373   0.190   2.195   7.542 -0.1768  0.0982  0.2723
   82MOL   C29226374   0.172   2.099   7.645  0.5012 -0.0025  0.0673
   82MOL   C29326375   0.233   1.974   7.638 -0.4304 -0.0165 -0.3915
   82MOL   C29426376   0.324   1.939   7.538  0.0090 -0.4809  0.8937
   82MOL  Cl29526377   0.400   1.788   7.530 -0.6933 -0.2334 -0.2955
   82MOL   C29626378   0.353   2.034   7.435  0.0687  0.0776 -0.6938
   82MOL   C29726379   0.282   2.158   7.436 -0.3939  0.7621  0.4680
   82MOL   C29826380   0.209   2.459   7.526 -0.9206 -0.2444  0.7005
   82MOL   H29926381   0.085   2.330   7.651  0.6707 -0.4092 -0.1216
   82MOL   H30026382   0.103   2.124   7.724  0.0425 -0.9044 -0.0445
   82MOL   H30126383   0.223   1.895   7.712  0.4364  0.3819  0.1569
   82MOL   H30226384   0.433   2.005   7.369  1.0386 -1.2122  0.9994
   82MOL   H30326385   0.299   2.236   7.364 -3.2215  0.7553 -0.2714
   82MOL   H30426386   0.232   2.466   7.419  1.8006 -1.2564  1.1912
   82MOL   H30526387   0.159   2.549   7.560 -0.5676 -0.3659  1.5452
   82MOL   C30626388   0.347   2.441   7.581 -0.6962  0.4348  0.3518
   82MOL   C30726389   0.441   2.553   7.538 -0.6170 -0.1608  0.5433
   82MOL   C30826390   0.564   2.517   7.475 -0.4581  0.5875  0.2323
   82MOL   C30926391   0.654   2.616   7.427 -0.7405  0.6206  0.3975
   82MOL   C31026392   0.626   2.750   7.461  0.4166 -0.2841 -0.3005
   82MOL  Cl31126393   0.737   2.881   7.419 -0.0578  0.4031  0.1611
   82MOL   C31226394   0.509   2.788   7.524  0.1320 -0.4815 -0.0173
   82MOL   C31326395   0.423   2.690   7.577 -0.0018 -0.5269  0.8630
   82MOL   C31426396   0.350   2.427   7.734  0.3882 -0.5478  0.2617
   82MOL   H31526397   0.396   2.359   7.529 -0.7322 -0.2161  1.3204
   82MOL   H31626398   0.592   2.416   7.446  1.9498  1.0380  0.9253
   82MOL   H31726399   0.745   2.586   7.377 -0.6755 -0.5267  1.1882
   82MOL   H31826400   0.502   2.890   7.557 -0.0410 -0.8939  1.2624
   82MOL   H31926401   0.339   2.724   7.636 -1.0753  0.3846 -1.1377
   82MOL   H32026402   0.303   2.511   7.786 -0.1167 -0.9235  0.4151
   82MOL   H32126403   0.309   2.332   7.769  0.8962 -0.3306  1.4805
   82MOL   H32226404   0.455   2.413   7.760  0.6598  0.4520 -0.2661
   83MOL     C126405   0.487   6.852   7.986  0.6069 -0.0655 -0.4841
   83MOL     C226406   0.418   6.857   7.847 -0.6064 -0.7835 -0.6637
   83MOL     C326407   0.495   6.802   7.740  0.1752 -0.1089  0.1254
   83MOL     C426408   0.430   6.796   7.610  0.6050 -0.9702 -0.5072
   83MOL     C526409   0.300   6.845   7.587 -0.0923 -0.5516 -0.0942
   83MOL    Cl626410   0.242   6.827   7.426  0.1938  0.5636 -0.0998
   83MOL     C726411   0.225   6.896   7.696  0.0617 -0.6418  0.3559
   83MOL     C826412   0.284   6.902   7.826  0.6355 -0.5803  0.2574
   83MOL     C926413   0.470   6.708   8.043  0.2601  0.4549  0.5830
   83MOL    H1026414   0.427   6.904   8.061 -1.0155 -1.4931 -0.7795
   83MOL    H1126415   0.594   6.761   7.752  0.2831  0.2081  0.2993
   83MOL    H1226416   0.489   6.755   7.529  0.1914 -0.4799 -1.0703
   83MOL    H1326417   0.122   6.924   7.679  0.4639  0.8135  0.2557
   83MOL    H1426418   0.229   6.956   7.901 -1.0207 -1.2638 -0.4403
   83MOL    H1526419   0.363   6.691   8.037  0.3209  0.8458 -2.4585
   83MOL    H1626420   0.521   6.635   7.980 -0.7016 -1.5616  2.1199
   83MOL    H1726421   0.585   6.899   7.983  0.9715 -0.7963 -0.1763
   83MOL    C1826422   0.524   6.688   8.187 -0.7102 -0.2236  0.5393
   83MOL    C1926423   0.455   6.563   8.243 -0.0134  0.3488 -0.1297
   83MOL    C2026424   0.493   6.436   8.190  0.1478  0.1432 -0.1596
   83MOL    C2126425   0.421   6.324   8.222 -0.3015  0.6566 -1.1194
   83MOL    C2226426   0.320   6.331   8.320 -0.3783  0.3696 -0.2808
   83MOL   Cl2326427   0.236   6.190   8.369  0.4510  0.1046 -0.2430
   83MOL    C2426428   0.279   6.458   8.366  0.1617  0.8259 -0.4481
   83MOL    C2526429   0.337   6.576   8.325 -0.1089 -0.5027  0.0759
   83MOL    C2626430   0.688   6.667   8.190  0.2564  0.3521  0.7136
   83MOL    H2726431   0.490   6.765   8.258  0.9843  3.4453 -2.4562
   83MOL    H2826432   0.560   6.429   8.106 -0.0930  2.5260 -0.5628
   83MOL    H2926433   0.448   6.226   8.185  0.9034  1.2505 -1.8529
   83MOL    H3026434   0.200   6.463   8.440  1.5496  0.0398  1.1129
   83MOL    H3126435   0.295   6.670   8.359  0.8662 -0.0592  0.0712
   83MOL    H3226436   0.728   6.593   8.121 -1.2160 -0.0255  0.2384
   83MOL    H3326437   0.733   6.762   8.163  1.6413 -1.0075 -1.9322
   83MOL    C3426438   0.746   6.625   8.334 -0.0319  0.2020 -0.0361
   83MOL    C3526439   0.896   6.589   8.323 -0.4214  0.8682 -0.5987
   83MOL    C3626440   0.944   6.485   8.411  0.2916 -0.6282  0.3821
   83MOL    C3726441   1.077   6.431   8.408 -0.8316  0.3919 -0.6631
   83MOL    C3826442   1.162   6.494   8.314 -0.0038 -0.3705  0.2453
   83MOL   Cl3926443   1.319   6.420   8.301 -0.4057  0.3911  0.2166
   83MOL    C4026444   1.124   6.602   8.225  0.3030 -0.6084 -0.7280
   83MOL    C4126445   0.986   6.640   8.225 -0.4009  0.3426 -0.7286
   83MOL    C4226446   0.707   6.698   0.025  0.4796 -0.4366  0.2513
   83MOL    H4326447   0.703   6.527   8.354  1.7507 -0.4116  0.8183
   83MOL    H4426448   0.869   6.446   0.035  0.4189 -0.0315  0.8639
   83MOL    H4526449   1.101   6.346   0.026 -0.9570  1.2166  0.5561
   83MOL    H4626450   1.194   6.630   8.147  0.5838  0.2542 -0.1801
   83MOL    H4726451   0.953   6.718   8.158 -0.2653  0.3447 -0.7916
   83MOL    H4826452   0.600   6.692   0.044  1.0646  0.1056  4.3253
   83MOL    H4926453   0.747   6.643   0.110 -0.3362  0.0853  0.9886
   83MOL    C5026454   0.736   6.859   0.028  0.0557  0.1565  0.4189
   83MOL    C5126455   0.623   6.944   8.418 -0.1966 -0.4549 -0.0294
   83MOL    C5226456   0.645   7.013   8.300 -0.0088 -0.6668 -0.2207
   83MOL    C5326457   0.544   7.092   8.243  0.3958  0.5664  0.8293
   83MOL    C5426458   0.422   7.113   8.308 -0.5501  0.3636 -0.1718
   83MOL   Cl5526459   0.303   7.217   8.231 -0.4483  0.1491 -0.1887
   83MOL    C5626460   0.397   7.046   8.427 -0.2760  0.1169 -0.1373
   83MOL    C5726461   0.501   6.967   0.040 -0.1045 -0.2927 -0.5543
   83MOL    C5826462   0.785   6.907   0.166  0.5981  0.6250 -0.0130
   83MOL    H5926463   0.821   6.874   8.404 -0.5912  0.8427 -0.2623
   83MOL    H6026464   0.742   7.010   8.252 -0.8456  1.7749 -2.1486
   83MOL    H6126465   0.564   7.151   8.156 -0.9522  1.3638  1.0460
   83MOL    H6226466   0.312   7.071   0.046 -0.7852 -3.1093  0.5386
   83MOL    H6326467   0.487   6.916   0.134  1.1894  0.3274 -0.0126
   83MOL    H6426468   0.789   7.016   0.170 -1.3796  0.7004  0.6876
   83MOL    H6526469   0.710   6.865   0.233 -0.9516  0.7211 -1.6522
   83MOL    C6626470   0.918   6.850   0.218  0.2515  0.1368 -0.1339
   83MOL    C6726471   1.041   6.921   0.151  0.0817  0.1709 -0.1400
   83MOL    C6826472   1.093   7.046   0.192  0.3984  0.1520  0.2079
   83MOL    C6926473   1.202   7.103   0.119 -0.7394  0.2161 -0.5337
   83MOL    C7026474   1.253   7.040   0.007  0.5469 -0.1701  1.0695
   83MOL   Cl7126475   1.375   7.125   8.358 -0.4616  0.1035 -0.2303
   83MOL    C7226476   1.201   6.919   8.405 -0.6632 -0.4896  0.3734
   83MOL    C7326477   1.100   6.860   0.038  0.7489  0.4502  0.1651
   83MOL    C7426478   0.920   6.859   0.367 -0.0244 -0.2211  0.0427
   83MOL    H7526479   0.931   6.746   0.186 -1.0608 -0.4624  1.2083
   83MOL    H7626480   1.051   7.099   0.276  2.6911  1.3383  0.6636
   83MOL    H7726481   1.239   7.199   0.152 -1.0595  0.4705 -0.9230
   83MOL    H7826482   1.237   6.868   8.317  1.8244  0.6053  0.7150
   83MOL    H7926483   1.061   6.765   0.004 -0.0872  0.5486  0.8370
   83MOL    H8026484   1.027   6.853   0.390 -0.1028 -1.1136  0.1757
   83MOL    H8126485   0.891   6.958   0.404 -1.8484 -1.4622  2.0304
   83MOL    C8226486   0.846   6.749   0.461 -0.0392  0.5842 -0.4346
   83MOL    C8326487   0.878   6.602   0.430 -0.3414  1.1855 -0.3281
   83MOL    C8426488   1.003   6.551   0.471 -0.0548  0.2087 -0.0334
   83MOL    C8526489   1.038   6.414   0.458  0.6894  0.0099  0.6129
   83MOL    C8626490   0.942   6.331   0.399 -0.9996 -0.7324  0.1043
   83MOL   Cl8726491   0.985   6.169   0.362 -0.4234 -0.0044 -0.3571
   83MOL    C8826492   0.819   6.379   0.355 -0.1306 -0.8641  0.1214
   83MOL    C8926493   0.790   6.514   0.368  0.1866 -0.8216 -0.1165
   83MOL    C9026494   0.870   6.792   0.605  0.2268  0.1375 -0.7724
   83MOL    H9126495   0.740   6.761   0.439 -0.3261 -0.8666  0.0590
   83MOL    H9226496   1.076   6.614   0.520  0.4563  1.5550 -2.4315
   83MOL    H9326497   1.131   6.373   0.492  1.0402 -0.8679 -1.3887
   83MOL    H9426498   0.746   6.317   0.305 -1.1229 -0.5353  1.1465
   83MOL    H9526499   0.697   6.557   0.334  0.1655  0.6974  1.8064
   83MOL    H9626500   0.972   6.821   0.631 -0.0510  1.8798 -1.5876
   83MOL    H9726501   0.832   6.893   0.617  3.4544  1.3033  0.1932
   83MOL    C9826502   0.818   6.704   0.722  0.5691  0.5211 -0.6077
   83MOL    C9926503   0.933   6.664   0.816 -0.7617 -0.2243  0.2044
   83MOL   C10026504   1.010   6.764   0.890  0.2268  0.1067 -1.2201
   83MOL   C10126505   1.126   6.724   0.953 -0.2070  0.8361 -0.1611
   83MOL   C10226506   1.164   6.585   0.958 -0.4481 -0.3156 -0.0035
   83MOL  Cl10326507   1.304   6.543   1.044  0.6524  0.0815  0.3060
   83MOL   C10426508   1.092   6.487   0.884 -0.8107  0.6254 -0.1755
   83MOL   C10526509   0.978   6.529   0.819 -0.4212 -0.5981  0.3947
   83MOL   C10626510   0.706   6.775   0.808 -0.3147 -0.5150 -0.3098
   83MOL   H10726511   0.772   6.613   0.684 -0.1505  0.9363 -0.7426
   83MOL   H10826512   0.973   6.866   0.886 -1.6255 -0.5477 -1.1932
   83MOL   H10926513   1.189   6.792   1.007  0.7865  1.1715 -1.7023
   83MOL   H11026514   1.122   6.383   0.891 -0.4718  0.7934  1.1475
   83MOL   H11126515   0.925   6.457   0.758  1.8245  0.3503 -2.7858
   83MOL   H11226516   0.697   6.723   0.904  1.1325 -0.3453 -0.0691
   83MOL   H11326517   0.739   6.878   0.826 -2.0170  0.0177 -0.0875
   83MOL   C11426518   0.564   6.780   0.745  0.2685  0.5012  0.5925
   83MOL   C11526519   0.492   6.639   0.739 -0.1546  0.4944  0.5753
   83MOL   C11626520   0.497   6.554   0.626  0.8827  0.2651  0.6898
   83MOL   C11726521   0.417   6.437   0.621  0.3560  0.8154 -0.0581
   83MOL   C11826522   0.339   6.400   0.731  0.4192  0.0170  0.3338
   83MOL  Cl11926523   0.244   6.257   0.720  0.0269  0.0282 -0.0316
   83MOL   C12026524   0.334   6.476   0.849  0.7045  0.6882  0.2872
   83MOL   C12126525   0.416   6.592   0.851 -0.0604  0.4326 -0.3286
   83MOL   C12226526   0.476   6.880   0.803  0.6285  0.1664 -0.6064
   83MOL   H12326527   0.583   6.813   0.642  1.5289 -2.0654 -0.0282
   83MOL   H12426528   0.557   6.581   0.541 -0.8238  1.2939 -0.2142
   83MOL   H12526529   0.424   6.377   0.532  3.0806  0.8792  0.0666
   83MOL   H12626530   0.268   6.447   0.929 -0.6419 -1.9459 -1.7202
   83MOL   H12726531   0.410   6.646   0.944 -0.4206  1.3894 -0.8977
   83MOL   H12826532   0.390   6.886   0.737  2.2377  2.9623 -2.5634
   83MOL   H12926533   0.436   6.852   0.900  0.9506 -0.3911 -0.6307
   83MOL   C13026534   0.523   7.025   0.823 -0.6630  0.9281  0.2873
   83MOL   C13126535   0.604   7.082   0.703 -0.3680 -1.1672 -0.0124
   83MOL   C13226536   0.547   7.094   0.572  0.6102 -0.5776  0.6378
   83MOL   C13326537   0.620   7.140   0.460  0.2055 -0.5277  0.3530
   83MOL   C13426538   0.747   7.191   0.481 -0.0935 -0.3830 -0.7076
   83MOL  Cl13526539   0.844   7.268   0.358  0.0511 -0.1547  0.1425
   83MOL   C13626540   0.797   7.188   0.610  0.7571 -1.2722 -0.3073
   83MOL   C13726541   0.732   7.130   0.721  0.1277 -0.0486 -0.1232
   83MOL   C13826542   0.409   7.118   0.865  0.5356  0.3792 -0.0951
   83MOL   H13926543   0.591   7.030   0.908 -0.7896  1.6949  0.3458
   83MOL   H14026544   0.441   7.079   0.575  0.5244 -0.1073 -0.0874
   83MOL   H14126545   0.567   7.157   0.368  0.6086  1.7543  0.5067
   83MOL   H14226546   0.890   7.241   0.629 -1.5313  3.1819 -1.0356
   83MOL   H14326547   0.774   7.136   0.820 -2.3354  2.9133  0.8024
   83MOL   H14426548   0.366   7.172   0.779  0.7005  1.0715  0.2512
   83MOL   H14526549   0.322   7.056   0.885  0.1830  0.9695  0.2131
   83MOL   C14626550   0.432   7.214   0.982 -0.5250  0.4061  0.1969
   83MOL   C14726551   0.395   7.361   0.950  0.3977  0.0386 -0.1693
   83MOL   C14826552   0.491   7.456   0.904  0.4278  0.4719  0.3426
   83MOL   C14926553   0.450   7.585   0.868  0.4383 -0.1468 -0.4851
   83MOL   C15026554   0.319   7.631   0.884 -0.0885  1.0094 -0.4128
   83MOL  Cl15126555   0.280   7.795   0.847  0.1542  0.4382 -0.0604
   83MOL   C15226556   0.220   7.543   0.929 -0.0151 -0.2636 -0.1393
   83MOL   C15326557   0.261   7.409   0.967 -0.5660 -0.0277 -1.1583
   83MOL   C15426558   0.387   7.176   1.116  0.0337 -0.0901 -0.1663
   83MOL   H15526559   0.541   7.212   0.995 -0.5136  1.2256  0.2831
   83MOL   H15626560   0.595   7.429   0.899 -0.1853 -2.1402  1.0070
   83MOL   H15726561   0.525   7.650   0.826 -0.5354  0.0289 -1.9667
   83MOL   H15826562   0.117   7.571   0.939  0.6393  2.2111  0.0180
   83MOL   H15926563   0.184   7.334   0.983 -0.9522  0.6839  0.4507
   83MOL   H16026564   0.406   7.257   1.187 -3.9887 -0.0287  0.9632
   83MOL   H16126565   0.279   7.189   1.103 -0.3499  0.6718  3.1515
   83MOL   C16226566   0.433   7.043   1.177  0.0777 -0.2439 -0.1202
   83MOL   C16326567   0.574   7.052   1.229 -0.2349 -0.5033  0.8485
   83MOL   C16426568   0.674   6.978   1.164  0.1994 -0.6414 -0.1485
   83MOL   C16526569   0.804   6.967   1.213 -1.0294  0.0272  0.7270
   83MOL   C16626570   0.844   7.052   1.317 -0.2566  0.9256  0.6530
   83MOL  Cl16726571   1.005   7.049   1.378  0.1523 -0.3674  0.1381
   83MOL   C16826572   0.748   7.139   1.372 -0.5301  0.3572  0.2908
   83MOL   C16926573   0.612   7.134   1.336 -0.2512  0.2048 -0.3778
   83MOL   C17026574   0.333   6.970   1.270  0.3576  0.0487  0.4090
   83MOL   H17126575   0.439   6.972   1.095  1.3547 -0.1260 -0.1430
   83MOL   H17226576   0.649   6.923   1.076  1.3365  1.1159 -1.6141
   83MOL   H17326577   0.869   6.890   1.172 -1.9616 -0.6805  0.5787
   83MOL   H17426578   0.772   7.202   1.457  0.9523 -2.2046  1.8404
   83MOL   H17526579   0.538   7.192   1.391  1.6064  2.0314  0.2488
   83MOL   H17626580   0.300   7.046   1.342  0.0455 -0.4591  0.8066
   83MOL   H17726581   0.250   6.943   1.204 -1.9092  0.6172  2.9313
   83MOL   C17826582   0.384   6.855   1.353  0.2325 -0.1930  0.7305
   83MOL   C17926583   0.280   6.809   1.458  0.0100 -0.1227  0.4430
   83MOL   C18026584   0.154   6.767   1.410  0.6373 -0.0033  0.3661
   83MOL   C18126585   0.066   6.718   1.505 -0.6471  0.1368 -0.4055
   83MOL   C18226586   0.093   6.703   1.643  0.2317 -0.0409 -0.6505
   83MOL  Cl18326587   8.415   6.645   1.750  0.0590 -0.0360  0.0487
   83MOL   C18426588   0.218   6.747   1.691  0.1960 -0.5392 -0.3231
   83MOL   C18526589   0.311   6.795   1.598 -0.6176  0.4588 -0.2165
   83MOL   C18626590   0.439   6.736   1.268  0.1096 -0.0827 -0.6890
   83MOL   H18726591   0.466   6.895   1.414 -0.6333  2.2156  0.3667
   83MOL   H18826592   0.124   6.779   1.307 -1.6717  2.1400  1.2555
   83MOL   H18926593   8.407   6.698   1.476 -0.3892 -0.8049 -0.6936
   83MOL   H19026594   0.240   6.749   1.797 -0.8717  0.7516 -0.1192
   83MOL   H19126595   0.406   6.815   1.645  0.0183 -1.1046 -0.8303
   83MOL   H19226596   0.349   6.701   1.218 -1.1202 -0.4085  1.6756
   83MOL   H19326597   0.516   6.765   1.197  0.8422  0.7793  0.4496
   83MOL   C19426598   0.501   6.617   1.344 -0.0267 -0.0099 -0.4650
   83MOL   C19526599   0.501   6.501   1.245 -0.0535  0.8322 -0.3593
   83MOL   C19626600   0.407   6.398   1.265 -0.2394 -0.2394 -0.5946
   83MOL   C19726601   0.401   6.290   1.177  0.0770  1.3485  0.6514
   83MOL   C19826602   0.487   6.280   1.071  0.2947  0.0721 -0.2963
   83MOL  Cl19926603   0.459   6.154   0.961 -0.3149 -0.1612 -0.2559
   83MOL   C20026604   0.588   6.373   1.052  0.0140 -1.0280  0.3881
   83MOL   C20126605   0.593   6.487   1.136  0.0323 -0.0216 -0.3254
   83MOL   C20226606   0.645   6.648   1.393 -0.2988 -0.0893  0.3534
   83MOL   H20326607   0.433   6.587   1.424 -0.2616  2.2787  0.2158
   83MOL   H20426608   0.331   6.400   1.341 -1.1185  4.1271 -1.4625
   83MOL   H20526609   0.323   6.216   1.174  1.2259  0.0016  2.7381
   83MOL   H20626610   0.654   6.365   0.967 -1.4899 -2.0332 -0.7161
   83MOL   H20726611   0.666   6.564   1.115  0.3994 -0.4035 -0.4438
   83MOL   H20826612   0.696   6.695   1.309 -0.6671  0.3358  0.3645
   83MOL   H20926613   0.633   6.711   1.482 -0.7577 -3.3758  2.6919
   83MOL   C21026614   0.732   6.527   1.441 -0.2278 -0.1615  0.0749
   83MOL   C21126615   0.883   6.561   1.429 -0.0508  0.2702 -0.3957
   83MOL   C21226616   0.948   6.671   1.492 -0.1630 -0.6405 -0.3233
   83MOL   C21326617   1.086   6.692   1.480  0.4880 -0.5367  0.0725
   83MOL   C21426618   1.157   6.601   1.404  0.2140 -0.6488  0.0176
   83MOL  Cl21526619   1.327   6.631   1.391  0.1885  0.1856  0.0111
   83MOL   C21626620   1.101   6.490   1.337 -0.3086  0.3427  0.0137
   83MOL   C21726621   0.961   6.473   1.345 -0.1142 -0.2711 -0.1105
   83MOL   C21826622   0.702   6.478   1.582 -0.4149  0.2952 -1.0367
   83MOL   H21926623   0.712   6.441   1.378  0.2050  0.9997 -1.6780
   83MOL   H22026624   0.889   6.731   1.559  0.8952 -0.0045  0.0363
   83MOL   H22126625   1.128   6.779   1.527 -4.2225  1.6064  0.6582
   83MOL   H22226626   1.167   6.422   1.284 -0.8704 -2.0381  2.2777
   83MOL   H22326627   0.910   6.398   1.286 -2.3046  1.3274 -0.3465
   83MOL   H22426628   0.749   6.545   1.654 -1.7311  0.1192  0.0181
   83MOL   H22526629   0.595   6.475   1.602 -0.0939 -0.7812  0.7296
   83MOL   C22626630   0.750   6.327   1.615  0.9600 -0.5097 -0.5145
   83MOL   C22726631   0.747   6.307   1.767  0.2453 -0.4453 -0.3457
   83MOL   C22826632   0.860   6.268   1.832 -0.2944 -0.4640 -0.0997
   83MOL   C22926633   0.853   6.249   1.974  0.1697 -0.4919 -0.0769
   83MOL   C23026634   0.742   6.277   2.050  0.1813  0.0493 -0.4452
   83MOL  Cl23126635   0.754   6.269   2.226 -0.2229  0.1276  0.2623
   83MOL   C23226636   0.633   6.326   1.982  0.7636 -0.0844  0.4903
   83MOL   C23326637   0.630   6.336   1.841  1.0069  0.3447  0.9988
   83MOL   C23426638   0.661   6.229   1.532  0.3842 -0.4661  0.3988
   83MOL   H23526639   0.846   6.324   1.565  0.2741 -0.4437 -1.8662
   83MOL   H23626640   0.944   6.251   1.767 -1.7027 -0.2599 -1.9972
   83MOL   H23726641   0.941   6.216   2.026  0.2697  0.2109  0.2055
   83MOL   H23826642   0.547   6.359   2.038  0.6800  2.8923 -1.2788
   83MOL   H23926643   0.539   6.358   1.787  1.4617  0.1952  0.1571
   83MOL   H24026644   0.556   6.241   1.560  0.6854  4.4219 -0.1340
   83MOL   H24126645   0.654   6.253   1.426 -1.4096  0.3218  0.6628
   83MOL   C24226646   0.698   6.079   1.531 -0.4208 -0.4747 -0.3618
   83MOL   C24326647   0.581   6.003   1.460  0.7366  0.7265  0.1120
   83MOL   C24426648   0.547   6.024   1.321 -0.2802 -0.1727 -1.1073
   83MOL   C24526649   0.440   5.961   1.261  0.0308 -0.7531 -0.2150
   83MOL   C24626650   0.360   5.877   1.331 -0.4334  0.6514  0.5439
   83MOL  Cl24726651   0.236   5.789   1.254  0.0629  0.3462  0.3837
   83MOL   C24826652   0.392   5.847   1.466 -0.2584 -1.0162  0.5099
   83MOL   C24926653   0.500   5.914   1.533 -0.2201 -0.6650  0.4618
   83MOL   C25026654   0.835   6.048   1.464 -0.0990 -0.5127 -0.5584
   83MOL   H25126655   0.690   6.041   1.633 -2.7365 -0.2713 -0.4305
   83MOL   H25226656   0.617   6.074   1.256 -0.3880  0.2980 -0.8641
   83MOL   H25326657   0.412   5.975   1.157  2.1230 -1.1738 -0.8541
   83MOL   H25426658   0.333   5.772   1.516 -2.7646  0.0923 -0.7108
   83MOL   H25526659   0.526   5.899   1.637 -0.5675 -2.6143  0.2718
   83MOL   H25626660   0.827   6.049   1.355 -1.0020 -3.3130 -0.5471
   83MOL   H25726661   0.900   6.129   1.497  1.1261 -1.7806  0.1851
   83MOL   C25826662   0.899   5.914   1.493 -0.6966  0.6128  0.0993
   83MOL   C25926663   0.996   5.884   1.382 -0.3118 -0.2448 -0.7282
   83MOL   C26026664   1.099   5.973   1.356  0.5298 -0.1420 -0.0697
   83MOL   C26126665   1.201   5.935   1.266  0.4860  0.0701  0.7708
   83MOL   C26226666   1.196   5.814   1.198  0.2560  0.0810 -0.0791
   83MOL  Cl26326667   1.326   5.771   1.089  0.3248 -0.2154 -0.2480
   83MOL   C26426668   1.081   5.732   1.208 -0.0006  0.2358 -0.0519
   83MOL   C26526669   0.985   5.769   1.301 -0.3426 -0.2801 -0.2335
   83MOL   C26626670   0.971   5.917   1.630  0.3616  0.4951 -0.1218
   83MOL   H26726671   0.818   5.841   1.491  0.7824 -1.0419 -2.8450
   83MOL   H26826672   1.124   6.065   1.408 -1.5241  0.4048 -0.0189
   83MOL   H26926673   1.298   5.979   1.252  1.4143 -2.6510 -1.9691
   83MOL   H27026674   1.065   5.644   1.148  0.8939 -1.0869  1.6153
   83MOL   H27126675   0.904   5.698   1.311 -1.7245  1.6587  2.7420
   83MOL   H27226676   1.040   6.001   1.618 -1.5257  2.2752  1.2568
   83MOL   H27326677   0.910   5.938   1.718 -1.4577 -0.2444 -1.1892
   83MOL   C27426678   1.050   5.789   1.670  0.1358 -0.4249 -0.4071
   83MOL   C27526679   1.168   5.819   1.770  0.0916  0.1570 -0.2915
   83MOL   C27626680   1.164   5.924   1.865 -0.0642  0.6520  0.3826
   83MOL   C27726681   1.266   5.937   1.956 -0.9339  0.0627  0.9107
   83MOL   C27826682   1.386   5.873   1.948 -0.6788  0.6502 -0.0263
   83MOL  Cl27926683   1.516   5.898   2.068  0.2371  0.0265  0.3163
   83MOL   C28026684   1.399   5.773   1.853  0.1355  0.5019  0.3892
   83MOL   C28126685   1.288   5.740   1.767 -0.2290  0.1794 -0.2237
   83MOL   C28226686   0.961   5.672   1.720 -0.3540  0.0688 -0.1348
   83MOL   H28326687   1.101   5.754   1.581  1.4490 -2.1732  0.9892
   83MOL   H28426688   1.068   5.974   1.870 -1.3002 -1.6273  0.7172
   83MOL   H28526689   1.241   6.013   2.029  0.1406  0.6288  0.6969
   83MOL   H28626690   1.488   5.712   1.852 -0.6823 -0.7350 -2.6751
   83MOL   H28726691   1.299   5.675   1.682 -1.2096  0.0888 -0.2857
   83MOL   H28826692   0.963   5.676   1.829 -0.7718 -0.6530 -0.1029
   83MOL   H28926693   0.858   5.696   1.694  0.2442  2.0401 -0.8093
   83MOL   C29026694   1.003   5.524   1.677  0.1811 -0.6003  0.3889
   83MOL   C29126695   0.930   5.420   1.757  0.0719  0.1539 -0.7256
   83MOL   C29226696   1.002   5.317   1.822 -0.0580 -0.4655 -0.3449
   83MOL   C29326697   0.925   5.220   1.897  0.2811 -0.7265 -0.0642
   83MOL   C29426698   0.780   5.230   1.909 -0.2080 -0.4897  0.1099
   83MOL  Cl29526699   0.695   5.104   1.989 -0.6532 -0.0020  0.3559
   83MOL   C29626700   0.712   5.337   1.854  0.1139 -0.8734  0.3452
   83MOL   C29726701   0.788   5.434   1.777  0.0062  0.1450 -0.0911
   83MOL   C29826702   0.994   5.500   1.524 -0.4665  0.2345 -0.0631
   83MOL   H29926703   1.109   5.519   1.701 -0.0561  0.3676  1.7019
   83MOL   H30026704   1.108   5.304   1.806  0.1533  0.4397  0.2374
   83MOL   H30126705   0.977   5.137   1.941 -0.4524 -0.7357  0.8096
   83MOL   H30226706   0.604   5.338   1.862  0.1798 -2.3051  1.6382
   83MOL   H30326707   0.729   5.513   1.734 -0.6571 -1.2897 -1.9075
   83MOL   H30426708   0.895   5.525   1.488 -1.6434  0.1219  2.9465
   83MOL   H30526709   1.057   5.575   1.475 -0.6795  0.2814 -0.2642
   83MOL   C30626710   1.027   5.360   1.473  0.8401  1.0299  0.7277
   83MOL   C30726711   0.915   5.256   1.493  0.2033 -0.6919  0.2540
   83MOL   C30826712   0.936   5.136   1.571 -0.0552 -0.4621 -0.2231
   83MOL   C30926713   0.828   5.043   1.587  0.3347  0.2787 -0.5055
   83MOL   C31026714   0.709   5.065   1.520 -0.1564 -0.6007  0.6336
   83MOL  Cl31126715   0.577   4.948   1.516  0.1026  0.0936  0.2718
   83MOL   C31226716   0.685   5.189   1.453 -0.6991  0.4982 -0.0733
   83MOL   C31326717   0.785   5.280   1.440 -0.3968  0.1648  0.2650
   83MOL   C31426718   1.081   5.358   1.324 -0.5434 -0.0002 -0.3014
   83MOL   H31526719   1.115   5.327   1.528 -0.3416 -0.4358  1.7461
   83MOL   H31626720   1.028   5.111   1.621  0.1673  0.0932 -0.3426
   83MOL   H31726721   0.830   4.964   1.660 -0.1096  1.4246  0.7723
   83MOL   H31826722   0.599   5.204   1.390  0.5188  1.9942 -1.4198
   83MOL   H31926723   0.777   5.374   1.389 -0.3387 -0.0552 -0.1490
   83MOL   H32026724   1.005   5.397   1.256 -1.1302  0.0684  0.3815
   83MOL   H32126725   1.181   5.399   1.306  0.1561 -1.3188  0.4823
   83MOL   H32226726   1.096   5.254   1.294  0.3028  0.1659 -0.4852
   84MOL     C126727   0.872   6.103   0.031  0.3227 -0.1804  0.1974
   84MOL     C226728   0.743   6.129   0.108 -0.2301 -0.3776  0.1123
   84MOL     C326729   0.715   6.036   0.207  0.1115  0.1289  0.1272
   84MOL     C426730   0.598   6.052   0.276 -0.2625  0.2817 -0.6444
   84MOL     C526731   0.511   6.157   0.255 -0.2504 -0.0170  0.7053
   84MOL    Cl626732   0.368   6.171   0.344 -0.2825  0.5406  0.2377
   84MOL     C726733   0.525   6.233   0.138 -0.9294  0.3719 -0.5233
   84MOL     C826734   0.648   6.220   0.062 -0.5543 -0.4072 -0.6382
   84MOL     C926735   0.861   5.979   8.383 -0.6485 -0.3602 -0.4809
   84MOL    H1026736   0.967   6.098   0.084  0.6404 -0.9528 -0.4135
   84MOL    H1126737   0.788   5.962   0.234 -0.5182  0.1268  1.8747
   84MOL    H1226738   0.595   5.979   0.356  0.4777 -0.5427 -1.3526
   84MOL    H1326739   0.447   6.294   0.094 -0.8200 -0.7366 -2.2924
   84MOL    H1426740   0.656   6.273   8.412  3.9366 -1.5620 -1.0126
   84MOL    H1526741   0.961   5.941   8.366 -1.3668 -2.0093 -1.1237
   84MOL    H1626742   0.804   5.902   8.436  2.0335 -1.6286  0.6860
   84MOL    H1726743   0.891   6.187   8.407 -0.7162  0.5232  0.7837
   84MOL    C1826744   0.789   6.002   8.251  0.3838 -0.7643  0.3914
   84MOL    C1926745   0.875   6.078   8.153  0.2268  0.2406 -0.2125
   84MOL    C2026746   0.828   6.189   8.091 -0.5776 -0.5596 -0.0323
   84MOL    C2126747   0.924   6.281   8.035  0.2567  0.4940 -0.4631
   84MOL    C2226748   1.062   6.247   8.029  0.3528 -0.3881  0.6835
   84MOL   Cl2326749   1.177   6.363   7.967  0.1638 -0.6154  0.2264
   84MOL    C2426750   1.102   6.121   8.065  0.3202  0.1790 -0.3897
   84MOL    C2526751   1.011   6.037   8.130 -0.8233  0.4897  0.7234
   84MOL    C2626752   0.740   5.870   8.196  0.3572 -0.1667  0.2715
   84MOL    H2726753   0.695   6.054   8.269  0.4447 -1.2741  2.2125
   84MOL    H2826754   0.728   6.231   8.091 -0.2780  0.2507  2.6901
   84MOL    H2926755   0.876   6.375   8.011 -1.9043 -0.4601 -0.0361
   84MOL    H3026756   1.207   6.102   8.056  0.4998  0.7782  0.3684
   84MOL    H3126757   1.056   5.942   8.152 -3.1742 -0.5716  1.1938
   84MOL    H3226758   0.818   5.794   8.184  1.2526  1.1064 -2.1812
   84MOL    H3326759   0.680   5.826   8.275  0.1505  2.8995  1.9045
   84MOL    C3426760   0.652   5.883   8.064 -0.3715  0.3010 -0.2021
   84MOL    C3526761   0.707   5.782   7.960  0.4354 -0.1706  0.2557
   84MOL    C3626762   0.652   5.653   7.938  0.0781 -0.7077  0.4823
   84MOL    C3726763   0.719   5.570   7.844 -0.3277 -0.3802 -0.0793
   84MOL    C3826764   0.833   5.621   7.771 -0.1450  0.7721  0.1413
   84MOL   Cl3926765   0.893   5.528   7.638  0.4025  0.1432  0.3262
   84MOL    C4026766   0.889   5.742   7.792 -0.2755 -1.0463 -0.6255
   84MOL    C4126767   0.829   5.824   7.888 -0.0195  0.2800 -0.2036
   84MOL    C4226768   0.501   5.884   8.109 -0.2011 -0.2152 -0.5091
   84MOL    H4326769   0.675   5.976   8.012 -0.5999  0.5202  0.0840
   84MOL    H4426770   0.563   5.623   7.992  0.4172 -0.5059  1.1644
   84MOL    H4526771   0.673   5.476   7.821  3.0448 -2.2547  0.4830
   84MOL    H4626772   0.974   5.783   7.740  0.7569 -2.6173 -0.2014
   84MOL    H4726773   0.875   5.917   7.920 -0.8881  0.1847  1.4162
   84MOL    H4826774   0.480   5.788   8.156  0.4583  1.1985  2.8363
   84MOL    H4926775   0.485   5.953   8.191  2.7357 -1.2869  1.0514
   84MOL    C5026776   0.408   5.896   7.995 -0.0252  0.2678  0.2319
   84MOL    C5126777   0.274   5.822   8.015 -0.2940  0.1166 -0.3093
   84MOL    C5226778   0.185   5.846   8.118 -0.2004  1.0748  0.4737
   84MOL    C5326779   0.066   5.769   8.128 -0.3652  0.6192 -0.1036
   84MOL    C5426780   0.034   5.672   8.036 -0.2089 -0.3447  0.5820
   84MOL   Cl5526781   8.330   5.581   8.053  0.0512 -0.2776  0.2007
   84MOL    C5626782   0.122   5.647   7.927  0.6005  0.4104  0.2500
   84MOL    C5726783   0.243   5.729   7.918  0.3393  0.4446  0.4353
   84MOL    C5826784   0.396   6.042   7.953  0.5616 -0.2962  0.1052
   84MOL    H5926785   0.454   5.859   7.904  0.0262 -0.5498  0.5922
   84MOL    H6026786   0.204   5.923   8.191 -1.1470 -0.2896  2.1958
   84MOL    H6126787   8.437   5.794   8.204  0.3009  2.0985  0.0546
   84MOL    H6226788   0.091   5.577   7.851 -1.2253  1.1277  0.3067
   84MOL    H6326789   0.312   5.706   7.838 -1.8218 -0.1763 -1.3133
   84MOL    H6426790   0.384   6.107   8.039 -1.7131  0.2136 -0.5601
   84MOL    H6526791   0.488   6.073   7.904  1.6264 -0.2207  2.1080
   84MOL    C6626792   0.284   6.067   7.842 -0.3421  0.0945  0.2869
   84MOL    C6726793   0.232   6.215   7.833 -0.0461  0.5464 -0.0342
   84MOL    C6826794   0.318   6.325   7.833  0.1726  0.0903 -0.0734
   84MOL    C6926795   0.266   6.456   7.832 -0.7863 -0.6471  0.3098
   84MOL    C7026796   0.129   6.479   7.830 -0.1754  0.6083  0.3418
   84MOL   Cl7126797   0.060   6.635   7.821 -0.1902  0.0680  0.0085
   84MOL    C7226798   0.039   6.370   7.844  0.3762 -0.0701 -0.1652
   84MOL    C7326799   0.092   6.240   7.846  0.0363  0.0090 -0.2102
   84MOL    C7426800   0.325   6.022   7.696 -0.1677 -0.6822  0.3373
   84MOL    H7526801   0.196   6.007   7.867 -1.2473  1.3508  0.1442
   84MOL    H7626802   0.423   6.304   7.846  0.3087  0.4185 -0.6223
   84MOL    H7726803   0.329   6.543   7.843 -1.0783 -0.3554 -0.3260
   84MOL    H7826804   8.375   6.383   7.848  0.1629 -1.0376 -2.3934
   84MOL    H7926805   0.027   6.155   7.860 -0.3891  0.3498 -0.0852
   84MOL    H8026806   0.406   6.087   7.663 -1.0958 -0.1390 -0.9058
   84MOL    H8126807   0.356   5.918   7.699  0.6754 -0.4783 -0.8151
   84MOL    C8226808   0.210   6.041   7.583  0.7184 -0.3177 -0.0090
   84MOL    C8326809   0.270   6.061   7.443 -0.0168 -0.0448 -0.4896
   84MOL    C8426810   0.277   6.190   7.387  0.0206 -0.7985  0.5320
   84MOL    C8526811   0.350   6.215   7.270 -0.2557  0.2221  0.0295
   84MOL    C8626812   0.417   6.107   7.208 -0.0474  0.9349  0.0329
   84MOL   Cl8726813   0.486   6.137   7.051  0.1988  0.2242 -0.1438
   84MOL    C8826814   0.424   5.982   7.273  0.7090  0.0556  0.9133
   84MOL    C8926815   0.340   5.957   7.382  0.1135  0.4511  0.6231
   84MOL    C9026816   0.113   5.916   7.589  0.0012 -0.3611 -0.4435
   84MOL    H9126817   0.151   6.131   7.602  1.1532  0.3897 -1.9448
   84MOL    H9226818   0.234   6.278   7.433  1.4969 -0.1536  0.6991
   84MOL    H9326819   0.364   6.311   7.223  2.2793 -0.2765 -0.2691
   84MOL    H9426820   0.492   5.908   7.232 -1.9580 -1.9251 -0.0481
   84MOL    H9526821   0.355   5.859   7.425 -0.0805 -1.1307 -2.7518
   84MOL    H9626822   0.177   5.828   7.592 -0.3461 -0.5799  0.9191
   84MOL    H9726823   0.066   5.926   7.686  0.2043  1.7757 -0.5321
   84MOL    C9826824   0.007   5.912   7.470  0.1307  0.5840 -1.0219
   84MOL    C9926825   8.398   5.773   7.454  0.1596  0.0140 -0.0629
   84MOL   C10026826   8.332   5.715   7.570 -0.2416 -0.3456 -0.5182
   84MOL   C10126827   8.268   5.584   7.562 -0.3317 -0.3256  0.5724
   84MOL   C10226828   8.276   5.517   7.438 -0.5154  0.0777  0.4782
   84MOL  Cl10326829   8.206   5.362   7.411  0.0051  0.1987  0.1243
   84MOL   C10426830   8.347   5.570   7.331 -0.3436  0.0875  0.5482
   84MOL   C10526831   8.402   5.697   7.336  0.1259  0.4111 -0.0515
   84MOL   C10626832   8.344   6.027   7.473 -0.0910  0.1616  0.1113
   84MOL   H10726833   0.070   5.929   7.382 -0.3601  0.3769 -1.4191
   84MOL   H10826834   8.323   5.777   7.658  1.2519 -1.8569  0.7363
   84MOL   H10926835   8.217   5.543   7.648  2.9860 -1.6413  1.9999
   84MOL   H11026836   8.364   5.512   7.242 -1.3925  0.7276 -0.0810
   84MOL   H11126837   0.001   5.740   7.247 -2.0621 -0.3828 -1.5196
   84MOL   H11226838   8.280   6.001   7.558 -1.3054  2.4556 -0.0568
   84MOL   H11326839   8.388   6.120   7.510 -0.6887  1.2660 -1.8766
   84MOL   C11426840   8.268   6.041   7.343 -0.3474  0.3888  0.3924
   84MOL   C11526841   8.149   6.145   7.361 -0.2837 -0.1183 -0.0275
   84MOL   C11626842   8.019   6.104   7.312  0.0279  0.6385 -0.4541
   84MOL   C11726843   7.911   6.188   7.329 -0.9843  0.3099  0.4141
   84MOL   C11826844   7.932   6.313   7.386  0.0842 -0.2189  0.5595
   84MOL  Cl11926845   7.797   6.414   7.400  0.0491  0.0024  0.2867
   84MOL   C12026846   8.058   6.351   7.429 -0.7931 -0.1821 -0.2985
   84MOL   C12126847   8.169   6.268   7.421  0.0825  0.1322  1.2350
   84MOL   C12226848   8.381   6.092   7.236  0.2592 -0.8143  0.2537
   84MOL   H12326849   8.230   5.946   7.305  0.2003  1.2944 -2.5741
   84MOL   H12426850   8.007   6.003   7.276  0.1571 -0.3504  2.1896
   84MOL   H12526851   7.815   6.146   7.302  0.1763 -1.7234 -0.6258
   84MOL   H12626852   8.068   6.451   7.468 -0.6704 -0.1356 -0.4479
   84MOL   H12726853   8.266   6.300   7.456  0.5204  3.0635 -2.3509
   84MOL   H12826854   0.023   6.142   7.280 -0.0992  0.5721 -0.6016
   84MOL   H12926855   8.429   6.010   7.182  0.1388 -0.0077 -1.0951
   84MOL   C13026856   8.328   6.189   7.130  0.3948 -0.7079  0.1829
   84MOL   C13126857   0.006   6.243   7.061  0.0378  0.2431  0.3034
   84MOL   C13226858   0.030   6.385   7.068  0.6978  0.7130 -0.2174
   84MOL   C13326859   0.131   6.443   6.986 -0.4761  0.8476  0.0136
   84MOL   C13426860   0.206   6.364   6.899  0.0449  0.2922 -0.0569
   84MOL  Cl13526861   0.311   6.440   6.781  0.0116  0.1381  0.0360
   84MOL   C13626862   0.194   6.226   6.903 -0.0596  0.4432 -1.2645
   84MOL   C13726863   0.088   6.167   6.971  0.3566 -0.1782  0.0074
   84MOL   C13826864   8.231   6.129   7.025 -0.3428 -0.2872 -0.2544
   84MOL   H13926865   8.275   6.271   7.179  0.8057  1.7694 -3.3396
   84MOL   H14026866   8.407   6.445   7.129  0.4952 -1.0930  1.3774
   84MOL   H14126867   0.150   6.550   6.981  0.4225  0.9101  3.3674
   84MOL   H14226868   0.261   6.165   6.845  1.0117 -0.4103  0.7975
   84MOL   H14326869   0.073   6.062   6.952 -0.2286 -0.3026  1.1198
   84MOL   H14426870   8.281   6.047   6.974 -2.6704 -1.9624  0.1289
   84MOL   H14526871   8.149   6.077   7.072 -0.4394  0.9727  1.0185
   84MOL   C14626872   8.164   6.234   6.928 -0.7635 -0.8239  0.4061
   84MOL   C14726873   8.109   6.172   6.801 -0.1129 -0.4650 -0.5726
   84MOL   C14826874   8.147   6.226   6.678 -0.0731 -0.1164  0.9024
   84MOL   C14926875   8.099   6.181   6.556 -0.1770 -0.5656 -0.2937
   84MOL   C15026876   8.002   6.077   6.561 -0.0741  0.0068 -0.0101
   84MOL  Cl15126877   7.938   6.011   6.419  0.5321  0.3141  0.0246
   84MOL   C15226878   7.963   6.018   6.681  0.0109  0.4052 -0.7042
   84MOL   C15326879   8.019   6.065   6.805  0.4261  0.1677  0.0064
   84MOL   C15426880   8.061   6.324   7.006  0.6690  0.0152  0.5443
   84MOL   H15526881   8.241   6.302   6.890 -0.2126 -0.5592  1.9765
   84MOL   H15626882   8.222   6.303   6.686  0.9850 -0.2414 -5.5434
   84MOL   H15726883   8.133   6.229   6.466  0.3655  1.3460  0.9100
   84MOL   H15826884   7.894   5.935   6.672  2.4405 -1.5785 -1.4398
   84MOL   H15926885   7.995   6.027   6.903  0.5908 -0.1626 -0.0825
   84MOL   H16026886   7.986   6.254   7.046 -1.4447  1.7952 -0.1766
   84MOL   H16126887   8.099   6.367   7.099  0.3008 -3.6233  2.4819
   84MOL   C16226888   7.993   6.433   6.923 -0.6855 -0.6747 -0.3133
   84MOL   C16326889   7.859   6.475   6.983  0.7090 -0.7904  0.0737
   84MOL   C16426890   7.850   6.580   7.079  0.6210 -0.3044  0.7280
   84MOL   C16526891   7.726   6.643   7.111  0.2149  0.2668  0.2855
   84MOL   C16626892   7.610   6.590   7.046 -0.3906 -0.0318 -0.1823
   84MOL  Cl16726893   7.453   6.647   7.088 -0.5648  0.7117  0.2817
   84MOL   C16826894   7.620   6.484   6.954 -0.4333 -0.0883 -0.3466
   84MOL   C16926895   7.738   6.415   6.932 -0.5142  0.9280 -0.7290
   84MOL   C17026896   8.086   6.552   6.885  1.0164  1.0051  0.4933
   84MOL   H17126897   7.967   6.380   6.832 -0.5565 -0.5715 -0.4097
   84MOL   H17226898   7.941   6.616   7.125  0.7502  0.1062  0.1597
   84MOL   H17326899   7.718   6.726   7.180  1.9142 -0.6994  1.6961
   84MOL   H17426900   7.533   6.453   6.898 -0.0016  0.2218 -1.1869
   84MOL   H17526901   7.739   6.346   6.849 -2.6518 -0.2708  0.1900
   84MOL   H17626902   8.064   6.637   6.949  0.9874 -0.0821  1.9476
   84MOL   H17726903   8.189   6.523   6.906  0.7446 -0.8090 -0.5824
   84MOL   C17826904   8.083   6.610   6.737 -0.0639  0.2642 -0.0866
   84MOL   C17926905   7.939   6.628   6.684 -0.2259  0.0913  0.0702
   84MOL   C18026906   7.886   6.532   6.593 -0.0349  0.1913 -0.4887
   84MOL   C18126907   7.750   6.534   6.563 -0.0811 -0.3074  0.1844
   84MOL   C18226908   7.669   6.635   6.622 -0.6099 -0.4155  0.1052
   84MOL  Cl18326909   7.500   6.645   6.576  0.0857  0.4156  0.0422
   84MOL   C18426910   7.723   6.735   6.702 -0.4998 -0.3331  0.2759
   84MOL   C18526911   7.856   6.719   6.742  0.6333 -0.0663  0.1272
   84MOL   C18626912   8.157   6.746   6.738  0.1152 -0.1199  0.1550
   84MOL   H18726913   8.138   6.538   6.675  2.9200  0.7008  1.9166
   84MOL   H18826914   7.959   6.459   6.562  0.4310  0.7973 -0.8589
   84MOL   H18926915   7.696   6.460   6.505  0.5785 -0.1783 -0.6024
   84MOL   H19026916   7.659   6.810   6.745 -0.8995 -1.2972  1.3790
   84MOL   H19126917   7.898   6.789   6.813  1.0335  0.6304 -0.7852
   84MOL   H19226918   8.121   6.812   6.658 -0.1635 -0.3098  0.1227
   84MOL   H19326919   8.123   6.793   6.830  1.5302  0.2620  0.4925
   84MOL   C19426920   8.308   6.744   6.741  0.0699  0.1958 -0.5910
   84MOL   C19526921   8.380   6.684   6.630 -0.1555  0.1425 -0.0068
   84MOL   C19626922   8.368   6.739   6.498  0.3688  0.2751 -0.1501
   84MOL   C19726923   0.004   6.694   6.398 -0.1754 -0.1173 -0.2784
   84MOL   C19826924   0.098   6.591   6.411 -0.3295  0.0106  0.6516
   84MOL  Cl19926925   0.198   6.553   6.272 -0.4300  0.0133  0.4965
   84MOL   C20026926   0.102   6.525   6.537 -0.3886  0.1610  0.5797
   84MOL   C20126927   0.025   6.572   6.647 -0.2638  0.1920 -0.0492
   84MOL   C20226928   8.352   6.885   6.770  0.5401  0.0032 -0.4591
   84MOL   H20326929   8.331   6.684   6.830 -0.1635  0.0410 -0.6351
   84MOL   H20426930   8.300   6.821   6.477  1.0756  0.9093  0.0317
   84MOL   H20526931   8.439   6.732   6.297  1.9568 -1.1739 -0.8778
   84MOL   H20626932   0.177   6.451   6.561 -0.4904  0.0573  0.5801
   84MOL   H20726933   0.027   6.520   6.741  1.1407  0.1289 -0.0901
   84MOL   H20826934   0.017   6.891   6.777  0.4839  1.7408 -0.8251
   84MOL   H20926935   8.319   6.956   6.694  0.8951  1.0540  0.3636
   84MOL   C21026936   8.314   6.948   6.907  0.4563  0.3783  0.5307
   84MOL   C21126937   8.343   6.857   7.024 -0.1769  0.3718  0.1104
   84MOL   C21226938   0.028   6.817   7.059  0.1920 -0.3921 -0.3281
   84MOL   C21326939   0.056   6.731   7.170  0.2291  0.3899  0.2905
   84MOL   C21426940   8.387   6.681   7.242  0.8123  0.6568  0.0832
   84MOL  Cl21526941   8.417   6.583   7.379  0.0924  0.4539  0.0434
   84MOL   C21626942   8.258   6.717   7.202 -0.8543  0.8200 -0.4694
   84MOL   C21726943   8.236   6.812   7.102 -0.1529  1.2472  0.2528
   84MOL   C21826944   8.379   7.087   6.935 -0.2757 -0.7405  0.1984
   84MOL   H21926945   8.206   6.957   6.915  0.3280  0.5485 -1.1493
   84MOL   H22026946   0.114   6.859   7.009  0.8289 -0.5747  0.5981
   84MOL   H22126947   0.157   6.709   7.200  0.5252  3.0800  1.4514
   84MOL   H22226948   8.181   6.673   7.264 -2.0915 -1.1880 -3.3088
   84MOL   H22326949   8.132   6.834   7.083 -0.2853  1.5182  1.2999
   84MOL   H22426950   8.392   7.101   7.043 -0.5413  0.1308  0.1220
   84MOL   H22526951   0.036   7.084   6.892 -0.4734  2.4892 -0.6275
   84MOL   C22626952   8.296   7.211   6.904 -0.9199  0.6527 -0.2676
   84MOL   C22726953   8.150   7.189   6.952  0.6070 -0.7827 -0.3318
   84MOL   C22826954   8.045   7.208   6.858 -1.0083 -0.5418 -0.1167
   84MOL   C22926955   7.911   7.197   6.894 -0.5669 -0.1394  0.4499
   84MOL   C23026956   7.880   7.159   7.027  0.5060  0.8342 -0.2926
   84MOL  Cl23126957   7.716   7.139   7.085  0.4691 -0.0192 -0.0349
   84MOL   C23226958   7.979   7.140   7.122  0.0505  0.2410  0.4234
   84MOL   C23326959   8.113   7.146   7.084 -0.3093 -0.0637  0.0683
   84MOL   C23426960   8.351   7.343   6.962  0.2477 -0.0275 -0.1923
   84MOL   H23526961   8.292   7.219   6.795 -0.1758 -2.1763 -0.5494
   84MOL   H23626962   8.069   7.242   6.758  1.0274 -0.4021  0.3906
   84MOL   H23726963   7.835   7.206   6.817  0.3934 -0.4761 -0.5373
   84MOL   H23826964   7.953   7.101   7.219 -0.1171 -0.1379  0.2285
   84MOL   H23926965   8.186   7.129   7.161  1.1506  0.3495 -1.1768
   84MOL   H24026966   8.280   7.425   6.948  1.7469  1.4430  0.6520
   84MOL   H24126967   8.356   7.324   7.069  0.5462 -1.1345 -0.3997
   84MOL   C24226968   0.054   7.387   6.916 -0.4171  0.2272 -0.5761
   84MOL   C24326969   0.064   7.415   6.767  0.2433 -0.2183 -0.1584
   84MOL   C24426970   8.409   7.481   6.687 -0.8711 -0.4326  0.1387
   84MOL   C24526971   8.424   7.503   6.545  0.4916  0.2081 -0.5361
   84MOL   C24626972   0.104   7.463   6.485  0.1897  0.5007  0.1961
   84MOL  Cl24726973   0.145   7.479   6.315  0.7407  0.1533  0.4263
   84MOL   C24826974   0.203   7.416   6.565 -0.3904  0.0017 -0.6382
   84MOL   C24926975   0.186   7.396   6.705 -0.3938 -0.9061 -0.0161
   84MOL   C25026976   0.117   7.495   7.004  0.2265 -0.3086  0.1578
   84MOL   H25126977   0.112   7.295   6.925  0.7273  0.8250 -1.8574
   84MOL   H25226978   8.321   7.518   6.738  0.8440  1.2800  1.9298
   84MOL   H25326979   8.349   7.553   6.486  0.6627  0.6358 -0.3917
   84MOL   H25426980   0.295   7.383   6.522  0.9770  2.5730  0.1826
   84MOL   H25526981   0.272   7.352   6.753 -0.6151  0.3264  1.5089
   84MOL   H25626982   0.207   7.542   6.964  0.6333 -0.1459  1.2647
   84MOL   H25726983   0.047   7.575   7.030  0.3969  0.1893 -0.8634
   84MOL   C25826984   0.157   7.445   7.141  0.2397 -0.0608 -0.4615
   84MOL   C25926985   0.268   7.344   7.126 -0.1454 -0.1583 -1.1891
   84MOL   C26026986   0.403   7.379   7.091  0.0090  0.6074 -0.8178
   84MOL   C26126987   0.502   7.284   7.098  0.6787 -1.0505  0.1905
   84MOL   C26226988   0.478   7.152   7.135 -0.1785  0.2924  0.3481
   84MOL  Cl26326989   0.611   7.035   7.156 -0.1526 -0.0693 -0.0949
   84MOL   C26426990   0.342   7.113   7.154 -0.0572 -0.3851 -0.2637
   84MOL   C26526991   0.237   7.206   7.154  0.1014 -0.5106 -0.3509
   84MOL   C26626992   0.194   7.561   7.228 -0.1064  0.3213  0.4219
   84MOL   H26726993   0.069   7.399   7.184 -0.7693  0.6482 -1.7362
   84MOL   H26826994   0.430   7.480   7.064  1.5676  0.5134  0.3472
   84MOL   H26926995   0.607   7.302   7.084  1.2650 -3.3631  1.3699
   84MOL   H27026996   0.319   7.018   7.200 -0.9262  0.0955  0.3001
   84MOL   H27126997   0.138   7.177   7.186  0.0850 -1.3353 -1.1314
   84MOL   H27226998   0.280   7.618   7.192 -1.2749  1.0885 -1.1737
   84MOL   H27326999   0.119   7.639   7.214  0.0478  0.0013 -2.2770
   84MOL   C27427000   0.205   7.529   7.381  0.0608 -0.2371  0.2659
   84MOL   C27527001   0.271   7.649   7.448 -0.2132  0.5282  0.1529
   84MOL   C27627002   0.396   7.629   7.519 -0.9184  0.5474 -0.6114
   84MOL   C27727003   0.460   7.740   7.572  0.2511 -0.3755  0.2391
   84MOL   C27827004   0.393   7.861   7.580 -0.2901 -0.2955  0.4913
   84MOL  Cl27927005   0.470   7.986   7.669  0.0793 -0.0546  0.0819
   84MOL   C28027006   0.267   7.881   7.525 -0.9900 -0.2176  0.5758
   84MOL   C28127007   0.215   7.774   7.450 -0.7776  0.0076 -0.1455
   84MOL   C28227008   0.071   7.496   7.447  0.0055 -0.6288 -0.4707
   84MOL   H28327009   0.275   7.447   7.394 -0.0949 -0.1683  1.5572
   84MOL   H28427010   0.444   7.534   7.530 -0.4525  0.8494 -0.0151
   84MOL   H28527011   0.557   7.721   7.614 -0.2454 -1.5373  0.8746
   84MOL   H28627012   0.209   7.972   7.526 -0.3369  0.2177 -0.2775
   84MOL   H28727013   0.120   7.787   7.401  0.1554  2.6753 -1.3289
   84MOL   H28827014   0.046   7.559   7.532 -1.0072 -0.1108 -1.1299
   84MOL   H28927015   8.430   7.509   7.378 -2.0468 -0.0037  2.0847
   84MOL   C29027016   0.062   7.350   7.489 -0.7587  0.3971 -0.4759
   84MOL   C29127017   0.169   7.310   7.595 -0.5769 -0.0114 -0.3387
   84MOL   C29227018   0.169   7.374   7.722 -0.1658  0.0783  0.5039
   84MOL   C29327019   0.271   7.353   7.816  0.1643  1.0359 -0.0305
   84MOL   C29427020   0.373   7.260   7.780 -0.5612 -0.0341 -0.6769
   84MOL  Cl29527021   0.491   7.221   7.902  0.2139 -0.3468 -0.0344
   84MOL   C29627022   0.369   7.193   7.654  0.2056  0.5291 -0.2103
   84MOL   C29727023   0.269   7.221   7.562  0.1882  0.0907  1.0614
   84MOL   C29827024   8.370   7.300   7.524  0.2830 -0.0726 -0.2054
   84MOL   H29927025   0.072   7.297   7.394  0.3908  0.9114 -0.6430
   84MOL   H30027026   0.091   7.445   7.745  1.1001  1.5098  0.4530
   84MOL   H30127027   0.280   7.399   7.913  0.5061 -0.8855  0.8804
   84MOL   H30227028   0.453   7.135   7.619 -1.7466 -0.5732 -3.2125
   84MOL   H30327029   0.283   7.179   7.463 -1.9556  1.3259  0.1940
   84MOL   H30427030   8.336   7.379   7.591 -0.0758 -0.1794 -0.2603
   84MOL   H30527031   8.310   7.313   7.434 -0.6771  0.1860  0.4639
   84MOL   C30627032   8.336   7.160   7.579  0.2543 -0.3392  0.1419
   84MOL   C30727033   8.190   7.153   7.626  0.4976  0.3340  0.5073
   84MOL   C30827034   8.146   7.206   7.749 -0.7007 -0.3461  0.5930
   84MOL   C30927035   8.006   7.197   7.781  0.2502  0.2271  0.0811
   84MOL   C31027036   7.917   7.133   7.694  0.3848 -0.4419  0.0828
   84MOL  Cl31127037   7.749   7.119   7.744  0.0863 -0.3953 -0.0522
   84MOL   C31227038   7.955   7.089   7.569 -0.2562 -0.2068 -0.4307
   84MOL   C31327039   8.091   7.105   7.536  0.2802 -0.7152  0.4719
   84MOL   C31427040   8.385   7.044   7.502  0.2429 -0.0572 -0.3505
   84MOL   H31527041   8.372   7.145   7.681 -0.1998  1.4935  0.5899
   84MOL   H31627042   8.215   7.252   7.818  1.4479 -1.5975 -0.6677
   84MOL   H31727043   7.991   7.233   7.882 -0.5732 -1.4335  0.5758
   84MOL   H31827044   7.880   7.058   7.498 -0.8797 -0.5731  0.3895
   84MOL   H31927045   8.115   7.080   7.433 -0.1550 -2.1429  0.7173
   84MOL   H32027046   8.388   6.952   7.560  0.2804  1.2200  1.7146
   84MOL   H32127047   8.324   7.028   7.413  0.0176 -0.1426 -0.1807
   84MOL   H32227048   0.045   7.053   7.469  0.2357 -1.9099 -0.9084
   85MOL     C127049   5.153   7.582   6.593  0.0088  0.6071 -0.7017
   85MOL     C227050   5.059   7.475   6.645 -0.8660 -0.2301 -0.0956
   85MOL     C327051   5.111   7.378   6.723  0.5331 -0.4843  0.6698
   85MOL     C427052   5.027   7.274   6.775 -0.2733  0.1401  0.8487
   85MOL     C527053   4.892   7.283   6.746 -1.0934 -0.3800 -0.6221
   85MOL    Cl627054   4.776   7.176   6.816  0.1135 -0.2026  0.2453
   85MOL     C727055   4.840   7.378   6.650  0.5854 -0.1756 -0.4886
   85MOL     C827056   4.922   7.488   6.621  0.3183 -0.1968 -0.1588
   85MOL     C927057   5.199   7.680   6.696 -0.4717 -0.1606 -0.1278
   85MOL    H1027058   5.111   7.632   6.506  0.1960 -0.5700 -1.4768
   85MOL    H1127059   5.217   7.373   6.745  0.1950 -0.0837  2.4402
   85MOL    H1227060   5.057   7.200   6.849  1.1431  0.5403  0.6843
   85MOL    H1327061   4.734   7.385   6.637  0.6657  1.8630 -0.1688
   85MOL    H1427062   4.902   7.574   6.559  0.2238 -0.0729  0.0426
   85MOL    H1527063   5.117   7.734   6.744  0.3794  1.7590 -0.7917
   85MOL    H1627064   5.250   7.626   6.775 -0.6977 -1.2875 -0.7451
   85MOL    H1727065   5.238   7.538   6.541  0.6935 -1.0162  1.7152
   85MOL    C1827066   5.287   7.789   6.642 -0.8195 -0.6755 -0.5059
   85MOL    C1927067   5.211   7.874   6.543  0.3749 -0.4987  0.5265
   85MOL    C2027068   5.086   7.926   6.574  0.3549 -0.0068  0.7475
   85MOL    C2127069   5.016   8.008   6.479  0.5931 -0.1286  0.2068
   85MOL    C2227070   5.077   8.036   6.355  1.2996 -0.2903  0.0208
   85MOL   Cl2327071   4.975   8.107   6.235  0.1138 -0.2385 -0.2106
   85MOL    C2427072   5.208   7.992   6.337 -0.2010 -0.1750  1.2329
   85MOL    C2527073   5.279   7.915   6.425  0.6621  0.0997 -0.1969
   85MOL    C2627074   5.330   7.885   6.763  0.5119 -0.3731 -0.1874
   85MOL    H2727075   5.361   7.731   6.587 -0.6131 -0.3220 -0.5993
   85MOL    H2827076   5.033   7.904   6.666  0.7743 -0.8335  0.7879
   85MOL    H2927077   4.917   8.050   6.495  0.2627 -0.1621 -1.6929
   85MOL    H3027078   5.245   8.014   6.238  1.5203  1.8233  2.2871
   85MOL    H3127079   5.372   7.874   6.389 -0.0092  1.1602 -3.2549
   85MOL    H3227080   5.357   7.982   6.722 -2.3189  0.5698  0.0780
   85MOL    H3327081   5.250   7.901   6.835  0.7597  2.9170 -0.5748
   85MOL    C3427082   5.461   7.843   6.829 -0.4203  0.5259 -0.1650
   85MOL    C3527083   5.563   7.823   6.719 -0.2909 -0.2990  0.4403
   85MOL    C3627084   5.638   7.929   6.661 -0.4554 -0.1619 -0.0241
   85MOL    C3727085   5.744   7.896   6.571 -0.5272  0.4732 -0.2350
   85MOL    C3827086   5.783   7.763   6.555 -0.0277  0.0039  0.1497
   85MOL   Cl3927087   5.921   7.727   6.461  0.4257 -0.3005 -0.0276
   85MOL    C4027088   5.710   7.658   6.614  0.4467  0.3090  0.0330
   85MOL    C4127089   5.605   7.688   6.698  0.5697  0.0625 -0.7039
   85MOL    C4227090   5.499   7.947   6.936  0.1973  0.5635 -0.1162
   85MOL    H4327091   5.442   7.748   6.879 -2.8480  1.0659  0.0170
   85MOL    H4427092   5.614   8.032   6.685 -3.2257 -0.5189 -1.0344
   85MOL    H4527093   5.806   7.975   6.532  2.2790 -0.7293  1.6822
   85MOL    H4627094   5.742   7.556   6.597  0.4017  0.2462  0.3134
   85MOL    H4727095   5.556   7.602   6.741 -1.5075 -0.2326 -3.4916
   85MOL    H4827096   5.498   8.046   6.890 -0.3657 -0.0122 -1.3642
   85MOL    H4927097   5.418   7.962   7.008 -1.3432 -0.3235 -1.6409
   85MOL    C5027098   5.625   7.922   7.020  0.3249  0.0979  0.2132
   85MOL    C5127099   5.707   8.050   7.024  0.6934 -0.2578  0.2474
   85MOL    C5227100   5.680   8.146   7.121 -0.4564 -0.0690  0.4059
   85MOL    C5327101   5.756   8.264   7.129  0.1177  0.3245 -0.0067
   85MOL    C5427102   5.863   8.274   7.043  0.5150  0.0574  0.3095
   85MOL   Cl5527103   5.962   8.412   7.038 -0.1622 -0.0133 -0.2590
   85MOL    C5627104   5.885   8.180   6.938 -0.4693 -0.0819 -0.1266
   85MOL    C5727105   5.807   8.069   6.933  0.2787  1.5406 -0.3457
   85MOL    C5827106   5.604   7.846   7.152 -0.1482 -0.9880 -0.3670
   85MOL    H5927107   5.674   7.843   6.964  1.4805  0.0496  1.2713
   85MOL    H6027108   5.606   8.126   7.197  1.3442 -0.7828  2.0288
   85MOL    H6127109   5.729   8.333   7.208 -2.5936 -1.9390  1.1142
   85MOL    H6227110   5.966   8.194   6.868 -0.3267  0.8036  0.2041
   85MOL    H6327111   5.831   7.987   6.867  2.2809  2.1827 -0.4470
   85MOL    H6427112   5.534   7.905   7.209  0.3304 -0.5280 -0.2471
   85MOL    H6527113   5.562   7.747   7.135  0.0663 -1.2225  0.4700
   85MOL    C6627114   5.734   7.815   7.228 -0.5546  0.7616 -0.7817
   85MOL    C6727115   5.706   7.783   7.380  0.0648  0.1823  0.2282
   85MOL    C6827116   5.815   7.798   7.470 -0.3180 -0.4746  0.4984
   85MOL    C6927117   5.786   7.776   7.607  0.1872  0.6246  0.2678
   85MOL    C7027118   5.670   7.706   7.648  0.2159  0.2275  0.1962
   85MOL   Cl7127119   5.649   7.649   7.809 -0.1787 -0.1857 -0.0437
   85MOL    C7227120   5.566   7.691   7.559  0.9094 -0.2902  0.1032
   85MOL    C7327121   5.586   7.730   7.424  0.1560  0.1826 -0.6036
   85MOL    C7427122   5.832   7.714   7.163  0.2710  0.1802  0.1689
   85MOL    H7527123   5.801   7.901   7.231 -0.3804  0.6358 -1.0916
   85MOL    H7627124   5.915   7.826   7.439 -0.5305 -0.2602 -0.0001
   85MOL    H7727125   5.855   7.800   7.687 -1.5543 -1.1673  2.3617
   85MOL    H7827126   5.475   7.638   7.582 -0.6231  2.2985  0.1977
   85MOL    H7927127   5.503   7.716   7.356 -0.4451  1.5342 -0.1567
   85MOL    H8027128   5.838   7.734   7.055 -1.8650  0.2362  0.0339
   85MOL    H8127129   5.932   7.740   7.197 -0.0616  0.2448  1.1102
   85MOL    C8227130   5.808   7.566   7.190 -0.5703  0.0377 -0.7859
   85MOL    C8327131   5.678   7.502   7.141 -0.3030 -0.4351 -0.7513
   85MOL    C8427132   5.589   7.448   7.230  0.1262 -0.0930 -0.0816
   85MOL    C8527133   5.467   7.398   7.184  0.0957  0.1379  0.3994
   85MOL    C8627134   5.447   7.380   7.049 -0.6181 -0.6934  0.3335
   85MOL   Cl8727135   5.314   7.289   6.989 -0.0018  0.1201 -0.2344
   85MOL    C8827136   5.544   7.435   6.959  0.6140 -0.0069 -0.3804
   85MOL    C8927137   5.659   7.495   7.007  0.0823 -0.4328  0.1393
   85MOL    C9027138   5.930   7.480   7.148  0.6828 -0.0259  0.9567
   85MOL    H9127139   5.801   7.550   7.297 -2.3077  0.6520 -0.7911
   85MOL    H9227140   5.598   7.448   7.338  0.6020  0.8631 -0.1120
   85MOL    H9327141   5.396   7.360   7.256  0.9690  0.3207  1.3673
   85MOL    H9427142   5.532   7.421   6.853  1.0413  3.3885 -0.9268
   85MOL    H9527143   5.729   7.536   6.936 -0.7450  0.0779 -0.3911
   85MOL    H9627144   5.899   7.375   7.151 -1.7032  0.6758  1.4968
   85MOL    H9727145   5.949   7.486   7.041 -0.3279 -0.2373  0.7601
   85MOL    C9827146   6.060   7.493   7.226 -0.4973 -0.3574 -0.7205
   85MOL    C9927147   6.029   7.441   7.370  0.4826 -0.0691  0.4626
   85MOL   C10027148   6.042   7.530   7.478  0.5702  0.2331 -0.5804
   85MOL   C10127149   6.021   7.475   7.606  0.2076  0.1919  0.0299
   85MOL   C10227150   5.966   7.350   7.624 -0.6540  0.2557  0.0434
   85MOL  Cl10327151   5.917   7.300   7.782  0.0640 -0.2252  0.1149
   85MOL   C10427152   5.942   7.263   7.520 -0.7529 -0.3601 -0.5066
   85MOL   C10527153   5.982   7.304   7.390  0.0648 -0.4534  0.0076
   85MOL   C10627154   6.184   7.422   7.159 -0.4288 -0.5371 -0.1135
   85MOL   H10727155   6.075   7.601   7.231 -0.6279 -0.3629 -0.1231
   85MOL   H10827156   6.068   7.634   7.464 -2.7628  0.8077 -3.1490
   85MOL   H10927157   6.033   7.530   7.698  0.1846  0.6410 -0.2351
   85MOL   H11027158   5.921   7.157   7.531  2.1963 -0.9551 -0.2166
   85MOL   H11127159   5.985   7.234   7.308  0.1652  1.4134 -1.6169
   85MOL   H11227160   6.172   7.314   7.159  1.0971 -0.7131  1.0385
   85MOL   H11327161   6.186   7.449   7.053  0.8390 -2.9688 -0.7484
   85MOL   C11427162   6.311   7.456   7.230 -0.8556  0.1515 -0.0157
   85MOL   C11527163   6.420   7.348   7.202 -0.0773  0.2077 -0.0357
   85MOL   C11627164   6.460   7.317   7.069  0.4845 -0.1191 -0.2002
   85MOL   C11727165   6.557   7.216   7.043  0.0764  0.2355  0.5991
   85MOL   C11827166   6.633   7.155   7.149  0.1670 -0.1925  0.6206
   85MOL  Cl11927167   6.758   7.037   7.108  0.2723 -0.0298 -0.1982
   85MOL   C12027168   6.603   7.193   7.283  0.0143  0.3925  0.0715
   85MOL   C12127169   6.490   7.283   7.311  0.0425 -0.3227  0.4446
   85MOL   C12227170   6.366   7.593   7.201 -0.3234 -0.1392 -0.4873
   85MOL   H12327171   6.293   7.444   7.337  0.5164  0.1605  0.2236
   85MOL   H12427172   6.404   7.362   6.988 -0.5328  0.5800  0.8681
   85MOL   H12527173   6.571   7.190   6.939  0.7871  1.5561  0.3499
   85MOL   H12627174   6.664   7.144   7.357  0.8366  1.5875  0.1881
   85MOL   H12727175   6.461   7.318   7.409 -0.8592  2.8337 -0.8874
   85MOL   H12827176   6.416   7.595   7.105  0.1973  1.8082 -0.1839
   85MOL   H12927177   6.291   7.672   7.195  0.3700  0.5454 -0.2533
   85MOL   C13027178   6.465   7.653   7.304  0.1297 -0.2718 -0.6642
   85MOL   C13127179   6.586   7.719   7.244 -0.6589 -0.3587  0.3305
   85MOL   C13227180   6.709   7.684   7.289  0.0052  0.1534  0.2373
   85MOL   C13327181   6.826   7.745   7.245  0.0904 -0.5517  0.4503
   85MOL   C13427182   6.819   7.845   7.141  0.5842 -0.6588  0.2553
   85MOL  Cl13527183   6.966   7.915   7.085  0.0560  0.0086 -0.1537
   85MOL   C13627184   6.692   7.880   7.086 -0.4727 -0.2525  0.0793
   85MOL   C13727185   6.577   7.813   7.135  0.5256 -1.1452 -0.4317
   85MOL   C13827186   6.399   7.731   7.422 -0.0127  0.6380  0.6815
   85MOL   H13927187   6.502   7.558   7.342 -1.9112 -1.4022 -1.3638
   85MOL   H14027188   6.716   7.609   7.367  0.4432 -0.9321 -0.8358
   85MOL   H14127189   6.922   7.712   7.281  1.6518  1.8326 -1.3318
   85MOL   H14227190   6.680   7.950   7.004 -1.7898 -0.8309 -0.2346
   85MOL   H14327191   6.481   7.847   7.100  0.9874 -0.4516 -1.0351
   85MOL   H14427192   6.308   7.678   7.450 -1.1526  1.3887 -1.3845
   85MOL   H14527193   6.455   7.722   7.515  1.3887 -2.6079 -0.4366
   85MOL   C14627194   6.382   7.880   7.398 -0.5368 -0.5675  0.2246
   85MOL   C14727195   6.249   7.938   7.429 -0.8973  0.5437 -0.2361
   85MOL   C14827196   6.165   7.986   7.325  0.5526 -0.3978  0.1292
   85MOL   C14927197   6.044   8.054   7.351  0.1385 -0.0547  0.7742
   85MOL   C15027198   6.007   8.064   7.489 -0.1904 -0.1744 -0.1951
   85MOL  Cl15127199   5.854   8.126   7.534 -0.1053  0.2927 -0.1015
   85MOL   C15227200   6.086   8.009   7.590  0.9082  0.1905  0.4043
   85MOL   C15327201   6.204   7.942   7.562 -0.0695  0.2531 -0.6861
   85MOL   C15427202   6.492   7.959   7.472  0.0289 -0.7013 -0.6932
   85MOL   H15527203   6.390   7.885   7.290 -2.1650 -1.0396  0.0814
   85MOL   H15627204   6.197   7.986   7.221  0.3106  2.5348  0.0202
   85MOL   H15727205   5.989   8.095   7.267  2.6729  0.8152 -0.5136
   85MOL   H15827206   6.047   8.002   7.690  2.3622  0.9982  1.0401
   85MOL   H15927207   6.263   7.908   7.645 -2.3654 -1.2507  0.3643
   85MOL   H16027208   6.470   7.980   7.576  0.6226 -2.6711 -0.1392
   85MOL   H16127209   6.578   7.892   7.473 -0.5503 -1.4686 -1.8867
   85MOL   C16227210   6.541   8.084   7.396 -0.9673  0.2917  0.2596
   85MOL   C16327211   6.434   8.199   7.388  0.5286 -0.4874 -0.1884
   85MOL   C16427212   6.372   8.234   7.265  0.2246 -0.4614  0.0902
   85MOL   C16527213   6.266   8.322   7.264 -0.1192 -0.4666 -0.5001
   85MOL   C16627214   6.208   8.377   7.379 -0.3751 -0.4079 -0.0144
   85MOL  Cl16727215   6.070   0.039   7.365 -0.2966  0.5296 -0.0101
   85MOL   C16827216   6.265   8.344   7.503 -0.0865  0.1552  0.0082
   85MOL   C16927217   6.379   8.261   7.505  0.7257 -0.3304 -0.4446
   85MOL   C17027218   6.678   8.135   7.453 -0.3553  0.2342  0.2902
   85MOL   H17127219   6.550   8.046   7.295  0.9580  1.9987 -0.2361
   85MOL   H17227220   6.419   8.195   7.176  0.2762 -2.9796  1.1667
   85MOL   H17327221   6.220   8.355   7.173  1.8758 -0.3088 -1.4945
   85MOL   H17427222   6.222   8.384   7.593 -0.0192 -2.2393  1.1481
   85MOL   H17527223   6.417   8.227   7.600  1.7112 -0.7513 -0.9842
   85MOL   H17627224   6.658   8.172   7.553 -2.1866  2.2518 -0.7724
   85MOL   H17727225   6.745   8.049   7.459 -0.6322 -0.1041 -1.1805
   85MOL   C17827226   6.747   8.249   7.375  0.0860  0.3727  0.1252
   85MOL   C17927227   6.884   8.284   7.436 -0.0902  0.0041 -0.3760
   85MOL   C18027228   6.904   8.408   7.502  0.1452 -0.4574  0.1335
   85MOL   C18127229   7.029   8.436   7.566 -0.3074 -0.6416 -0.5688
   85MOL   C18227230   7.121   8.337   7.570  0.4312 -0.2891 -0.0152
   85MOL  Cl18327231   7.261   8.364   7.663 -0.1156 -0.0112 -0.2129
   85MOL   C18427232   7.099   8.211   7.514 -1.0829 -0.1729  0.5060
   85MOL   C18527233   6.986   8.191   7.435 -0.0654 -0.4359  0.3397
   85MOL   C18627234   6.761   8.223   7.219 -0.2593  0.5330  0.1863
   85MOL   H18727235   6.683   8.337   7.377 -0.1702  0.2065 -0.5543
   85MOL   H18827236   6.831   0.043   7.518  0.1707 -0.3845 -0.0962
   85MOL   H18927237   7.036   0.090   7.613 -4.4178 -0.2423 -0.5573
   85MOL   H19027238   7.171   8.132   7.525 -1.0081  0.0458  1.6549
   85MOL   H19127239   6.978   8.099   7.378  0.9202  0.5796 -1.4948
   85MOL   H19227240   6.850   8.164   7.198 -0.0711  0.3186  1.5405
   85MOL   H19327241   6.670   8.179   7.178 -0.4815  2.9119 -2.0050
   85MOL   C19427242   6.772   8.341   7.132 -0.6298 -0.1889  0.4076
   85MOL   C19527243   6.846   8.312   7.004  0.2902 -0.3214 -0.5331
   85MOL   C19627244   6.976   8.353   6.987  0.2418  1.0445  0.1694
   85MOL   C19727245   7.042   8.340   6.862  0.3042 -0.3775  0.5078
   85MOL   C19827246   6.965   8.286   6.759  0.3342  0.4108 -0.2455
   85MOL  Cl19927247   7.039   8.295   6.603  0.1182  0.5074 -0.3840
   85MOL   C20027248   6.837   8.232   6.777  0.3363 -0.6905 -0.5193
   85MOL   C20127249   6.771   8.256   6.900 -0.4031 -0.6565  0.2709
   85MOL   C20227250   6.641   8.418   7.104 -0.1736 -0.0412 -0.3207
   85MOL   H20327251   6.827   8.416   7.189  0.2075 -0.7393  0.3225
   85MOL   H20427252   7.034   8.378   7.074  0.5824  1.6667 -0.2274
   85MOL   H20527253   7.139   8.383   6.844 -0.7663  2.2112  0.7701
   85MOL   H20627254   6.779   8.194   6.694  2.0611 -1.8067 -1.2387
   85MOL   H20727255   6.669   8.220   6.901  0.1685 -2.3879 -0.7937
   85MOL   H20827256   6.572   8.342   7.070  0.5632  0.2564 -2.5274
   85MOL   H20927257   6.595   0.004   7.199 -0.9718 -2.3532  0.0238
   85MOL   C21027258   6.639   0.099   7.015 -0.6889 -0.2597 -0.0669
   85MOL   C21127259   6.502   0.105   6.948 -0.0747 -0.9440 -0.3861
   85MOL   C21227260   6.489   0.098   6.807 -0.5338  0.7683 -0.1781
   85MOL   C21327261   6.363   0.121   6.747  0.6997 -0.1720  0.4127
   85MOL   C21427262   6.252   0.151   6.825 -0.1827  0.6140  0.7796
   85MOL  Cl21527263   6.108   0.184   6.746 -0.0307  0.1490  0.1695
   85MOL   C21627264   6.256   0.139   6.962  0.0878  0.1688  0.5941
   85MOL   C21727265   6.383   0.124   7.029 -0.1827 -0.3459  0.1762
   85MOL   C21827266   6.674   0.238   7.081 -0.6898  0.0319 -0.0144
   85MOL   H21927267   6.714   0.081   6.938 -2.2226 -2.2416 -1.1423
   85MOL   H22027268   6.579   0.081   6.749  0.1221 -0.8126  1.2482
   85MOL   H22127269   6.360   0.103   6.640 -1.6175  2.1196  0.0370
   85MOL   H22227270   6.166   0.138   7.021 -0.6998  1.1167 -0.5700
   85MOL   H22327271   6.389   0.114   7.137  1.1703 -1.9057 -0.0318
   85MOL   H22427272   6.625   0.313   7.018  1.4166 -0.4549 -2.2776
   85MOL   H22527273   6.631   0.251   7.181  1.4390 -1.1951  1.1001
   85MOL   C22627274   6.823   0.275   7.097 -0.2090 -0.0721  0.7026
   85MOL   C22727275   6.901   0.275   6.967  0.5627  0.1906  0.5459
   85MOL   C22827276   6.849   0.315   6.840  0.2115 -0.0042 -0.9957
   85MOL   C22927277   6.928   0.317   6.728  0.0841  0.4139  0.3637
   85MOL   C23027278   7.067   0.283   6.742  0.3589 -0.9054 -0.8538
   85MOL  Cl23127279   7.169   0.275   6.600  0.5797 -0.0062 -0.2787
   85MOL   C23227280   7.123   0.239   6.866 -0.4698 -0.5146 -0.0163
   85MOL   C23327281   7.036   0.238   6.974 -0.1955 -0.9397  0.0968
   85MOL   C23427282   6.832   0.419   7.164  0.1347 -0.3763  0.1919
   85MOL   H23527283   6.873   0.206   7.165  0.5128 -1.6811 -1.4073
   85MOL   H23627284   6.747   0.347   6.830 -0.1046 -0.6926 -0.0104
   85MOL   H23727285   6.886   0.341   6.631  2.2704  1.6609 -0.3101
   85MOL   H23827286   7.226   0.209   6.862 -0.3168  0.2712 -2.0912
   85MOL   H23927287   7.081   0.206   7.067  0.1738  1.6497  0.8576
   85MOL   H24027288   6.851   0.494   7.088  1.8829 -0.1299  0.8588
   85MOL   H24127289   6.731   0.438   7.200 -0.6498  0.5116 -2.3812
   85MOL   C24227290   6.937   0.421   7.278 -0.3398  0.5870  0.5106
   85MOL   C24327291   7.078   0.424   7.216  0.7008 -0.3195  0.0475
   85MOL   C24427292   7.173   0.349   7.287  0.1569  0.3466  0.4896
   85MOL   C24527293   7.304   0.345   7.240 -0.4718 -0.1221  0.0199
   85MOL   C24627294   7.349   0.435   7.143 -0.0167 -0.0211  0.0909
   85MOL  Cl24727295   7.515   0.448   7.090  0.1971  0.1214 -0.4005
   85MOL   C24827296   7.253   0.526   7.085  0.2577  0.4564  0.0074
   85MOL   C24927297   7.120   0.515   7.122  1.3545  0.0156  0.0255
   85MOL   C25027298   6.941   0.545   7.382 -0.7407  0.5238  0.6957
   85MOL   H25127299   6.921   0.333   7.341  1.8721  1.8961  3.0261
   85MOL   H25227300   7.139   0.279   7.363  0.7510 -0.0924  0.3542
   85MOL   H25327301   7.364   0.273   7.293  2.9818  0.8661 -2.3775
   85MOL   H25427302   7.286   0.603   7.017 -1.2234  0.2413 -0.9686
   85MOL   H25527303   7.049   0.585   7.081  0.9819  1.0985  2.4669
   85MOL   H25627304   7.023   0.534   7.453  0.2058  0.3930 -0.3892
   85MOL   H25727305   6.975   0.630   7.323  2.1774 -0.6553  0.5429
   85MOL   C25827306   6.803   0.571   7.444  0.2156 -0.5537 -0.9223
   85MOL   C25927307   6.773   0.451   7.526  0.6274  0.1138 -0.4210
   85MOL   C26027308   6.855   0.409   7.631 -0.2172 -0.9960  0.4879
   85MOL   C26127309   6.829   0.291   7.697  0.1423  0.5399 -0.4872
   85MOL   C26227310   6.713   0.214   7.668  0.7607  0.4625  1.0845
   85MOL  Cl26327311   6.658   0.067   7.757  0.2051 -0.4503  0.0827
   85MOL   C26427312   6.630   0.255   7.558 -0.2210  0.3043 -0.2617
   85MOL   C26527313   6.662   0.373   7.488  0.6811 -0.1998  0.0937
   85MOL   C26627314   6.781   0.702   7.527 -0.3345  0.0233 -0.0748
   85MOL   H26727315   6.730   0.581   7.363  1.4889  1.9732 -1.7842
   85MOL   H26827316   6.943   0.464   7.660  0.9805 -2.3709 -0.4159
   85MOL   H26927317   6.893   0.267   7.781 -1.9042 -1.1582  0.6334
   85MOL   H27027318   6.552   0.185   7.531 -1.8619  1.0485  2.3624
   85MOL   H27127319   6.600   0.401   7.404 -1.5611 -0.7217  1.5200
   85MOL   H27227320   6.679   0.704   7.566 -1.4680 -1.5860 -2.7725
   85MOL   H27327321   6.849   0.699   7.612  0.9871  1.2988 -1.0571
   85MOL   C27427322   6.814   0.830   7.444  0.3866  0.3026 -0.3840
   85MOL   C27527323   6.687   0.869   7.364  1.0523  0.0662 -0.3845
   85MOL   C27627324   6.681   0.857   7.223 -0.8715  0.1453  0.6349
   85MOL   C27727325   6.579   0.915   7.151  0.8216 -0.0318 -0.1101
   85MOL   C27827326   6.472   0.976   7.220  0.3079 -0.3497  0.1171
   85MOL  Cl27927327   6.357   1.067   7.134 -0.0275  0.1487  0.0935
   85MOL   C28027328   6.468   0.978   7.361 -0.1024  0.0017  1.1333
   85MOL   C28127329   6.584   0.933   7.431 -0.4946  0.2101 -0.7073
   85MOL   C28227330   6.846   0.962   7.527 -0.1373 -0.3683  0.1834
   85MOL   H28327331   6.901   0.808   7.382  0.3475 -1.2949  0.1139
   85MOL   H28427332   6.758   0.801   7.172 -3.2312 -1.3911 -1.3595
   85MOL   H28527333   6.577   0.897   7.045  0.8046 -1.9572  0.2073
   85MOL   H28627334   6.389   1.019   7.422  1.3047  0.1580  2.8917
   85MOL   H28727335   6.576   0.953   7.537  0.9164  1.5355 -0.8306
   85MOL   H28827336   6.839   1.056   7.472 -0.5241 -0.1488  0.6061
   85MOL   H28927337   6.761   0.974   7.594  0.8734  0.6278  1.3110
   85MOL   C29027338   6.981   0.970   7.601  0.8723 -0.2082 -0.4684
   85MOL   C29127339   7.096   0.923   7.515  0.0444  0.4860  0.4825
   85MOL   C29227340   7.182   0.822   7.560 -0.8026 -0.2002 -0.4418
   85MOL   C29327341   7.287   0.776   7.479 -0.2771  0.7131  0.2742
   85MOL   C29427342   7.305   0.830   7.353  0.0329  0.3059  0.0087
   85MOL  Cl29527343   7.442   0.776   7.264 -0.5595 -0.0011  0.3963
   85MOL   C29627344   7.227   0.929   7.304 -0.1083  0.9313 -0.3990
   85MOL   C29727345   7.117   0.973   7.380 -0.4206 -0.6498  0.4342
   85MOL   C29827346   7.009   1.113   7.649  0.1994  0.1072 -0.3674
   85MOL   H29927347   6.963   0.909   7.689 -0.3381  2.8290  1.4593
   85MOL   H30027348   7.171   0.785   7.661  0.1297 -0.4051 -0.4090
   85MOL   H30127349   7.343   0.693   7.518  0.1724  1.2607  0.8078
   85MOL   H30227350   7.254   0.977   7.211 -1.3470 -0.2702 -1.4021
   85MOL   H30327351   7.051   1.044   7.333  0.0370 -0.3530  0.2397
   85MOL   H30427352   7.044   1.168   7.561 -0.8638  0.2967 -0.6755
   85MOL   H30527353   6.918   1.159   7.686 -0.5958 -1.5822 -0.1672
   85MOL   C30627354   7.116   1.128   7.763  0.4353  0.1020 -0.7832
   85MOL   C30727355   7.186   1.259   7.754 -0.1194 -0.0455  0.4865
   85MOL   C30827356   7.323   1.263   7.780 -0.6989  0.7310 -0.5837
   85MOL   C30927357   7.398   1.374   7.744  0.0403 -0.7525 -0.3662
   85MOL   C31027358   7.334   1.483   7.691  0.7229  0.4169 -0.0334
   85MOL  Cl31127359   7.435   1.615   7.643  0.2020  0.3378 -0.1194
   85MOL   C31227360   7.198   1.489   7.671 -0.1322 -0.2628 -0.1210
   85MOL   C31327361   7.120   1.379   7.711 -0.0877 -0.1253 -0.3602
   85MOL   C31427362   7.060   1.112   7.904 -0.4415 -0.5334 -0.8677
   85MOL   H31527363   7.180   1.041   7.743  2.0696  1.1653 -0.2794
   85MOL   H31627364   7.359   1.168   7.815  0.9870  1.3227 -0.6902
   85MOL   H31727365   7.504   1.377   7.767 -0.2684  0.6233  0.9378
   85MOL   H31827366   7.165   1.581   7.625  1.2764  0.1259 -0.3763
   85MOL   H31927367   7.012   1.384   7.710 -0.0496  0.7051 -0.7289
   85MOL   H32027368   7.011   1.017   7.924  2.2063 -1.4231  1.6972
   85MOL   H32127369   7.139   1.107   7.979  0.5353  0.5897 -1.7927
   85MOL   H32227370   6.997   1.198   7.926 -0.9602 -1.3739  0.9988
   86MOL     C127371   3.778   0.730   0.138 -0.0777 -0.0190 -0.4367
   86MOL     C227372   3.838   0.619   0.057  0.1258 -0.4568  0.7394
   86MOL     C327373   3.845   0.488   0.106 -0.2093 -0.6581  0.2812
   86MOL     C427374   3.894   0.379   0.027 -0.2078  0.1547 -0.2189
   86MOL     C527375   3.939   0.399   8.338 -0.3925 -0.8164 -0.4647
   86MOL    Cl627376   3.977   0.268   8.236 -0.1373 -0.0949  0.1069
   86MOL     C727377   3.947   0.532   8.301  0.8102  0.1985  0.8990
   86MOL     C827378   3.895   0.642   8.376 -0.6665 -0.1625 -0.0579
   86MOL     C927379   3.627   0.710   0.168  0.3012  0.5396 -0.0762
   86MOL    H1027380   3.813   0.828   0.104  0.1040  0.5891  1.4546
   86MOL    H1127381   3.792   0.466   0.197  0.6069 -4.1114 -0.0009
   86MOL    H1227382   3.893   0.278   0.064  2.3875  0.5792  1.1388
   86MOL    H1327383   3.993   0.560   8.207  0.4291  0.8189  0.8905
   86MOL    H1427384   3.905   0.746   8.346  1.7328 -0.4865 -0.5024
   86MOL    H1527385   3.572   0.724   0.075  0.9564 -0.8010 -0.6730
   86MOL    H1627386   3.606   0.608   0.198 -0.3641  0.6959  0.0063
   86MOL    H1727387   3.821   0.731   0.238  0.3239 -1.0320 -0.5916
   86MOL    C1827388   3.554   0.811   0.262  0.2185 -0.0505 -0.2651
   86MOL    C1927389   3.619   0.807   0.401  0.1784  0.3135 -0.5137
   86MOL    C2027390   3.553   0.722   0.503 -0.2910 -0.2673  0.2393
   86MOL    C2127391   3.621   0.701   0.624 -0.2117 -0.5821  0.2695
   86MOL    C2227392   3.743   0.769   0.652  0.5687 -0.5164 -0.3357
   86MOL   Cl2327393   3.828   0.747   0.795  0.0163 -0.3065 -0.0558
   86MOL    C2427394   3.797   0.857   0.561 -0.0373  0.1973 -0.8398
   86MOL    C2527395   3.737   0.878   0.433 -0.1382  0.5268 -0.1978
   86MOL    C2627396   3.521   0.951   0.204 -0.3161  0.2861 -0.6924
   86MOL    H2727397   3.458   0.766   0.285 -0.0530  1.8008  2.4956
   86MOL    H2827398   3.463   0.666   0.482 -0.5480  0.6130 -1.0832
   86MOL    H2927399   3.575   0.638   0.699  0.5564  0.2337  1.4310
   86MOL    H3027400   3.890   0.905   0.586 -0.4196  0.2632  0.5539
   86MOL    H3127401   3.786   0.938   0.357 -1.3727  1.7302 -0.0523
   86MOL    H3227402   3.609   1.009   0.176 -2.1212  2.2557 -2.4721
   86MOL    H3327403   3.461   0.947   0.113  0.9719 -1.7574 -1.4800
   86MOL    C3427404   3.465   1.048   0.302 -0.2045  0.1080 -0.7724
   86MOL    C3527405   3.483   1.194   0.254  0.3179  0.6604  0.0233
   86MOL    C3627406   3.430   1.245   0.134  0.2230 -0.5975 -0.1374
   86MOL    C3727407   3.453   1.379   0.098 -0.0843  0.2639  0.4816
   86MOL    C3827408   3.530   1.467   0.180  0.1888 -0.1641 -0.8455
   86MOL   Cl3927409   3.561   1.628   0.145 -0.2001  0.1628 -0.0734
   86MOL    C4027410   3.586   1.415   0.296  0.0498 -0.3906 -0.0414
   86MOL    C4127411   3.556   1.285   0.338 -0.9689  0.1994  0.4981
   86MOL    C4227412   3.314   1.018   0.326 -0.7642 -0.3342  0.1724
   86MOL    H4327413   3.515   1.023   0.396  0.3666  2.1577 -0.4937
   86MOL    H4427414   3.362   1.180   0.081  1.2109 -1.5664 -0.2304
   86MOL    H4527415   3.390   1.430   0.027 -1.1084 -0.2700  0.9936
   86MOL    H4627416   3.658   1.473   0.351  2.1963 -1.8977 -1.1804
   86MOL    H4727417   3.597   1.252   0.433 -0.1113  1.1738  0.4762
   86MOL    H4827418   3.271   1.018   0.225 -0.5075 -0.0080  0.0618
   86MOL    H4927419   3.297   0.920   0.371  1.2259 -1.6175 -1.7642
   86MOL    C5027420   3.242   1.119   0.420  0.0750  0.2395  0.2916
   86MOL    C5127421   3.088   1.100   0.412 -0.2520  0.0477  0.2766
   86MOL    C5227422   3.007   1.214   0.396 -0.4750 -0.7372 -0.3234
   86MOL    C5327423   2.867   1.207   0.370 -0.3747 -0.1671  0.2017
   86MOL    C5427424   2.810   1.080   0.354  0.6365  0.3078 -0.4363
   86MOL   Cl5527425   2.634   1.079   0.322  0.4581  0.0189 -0.3732
   86MOL    C5627426   2.887   0.960   0.364  0.0493  0.4785 -0.1327
   86MOL    C5727427   3.024   0.971   0.399 -0.1701 -0.1402  0.0602
   86MOL    C5827428   3.299   1.119   0.565  0.5314 -0.2205 -0.4083
   86MOL    H5927429   3.268   1.217   0.381  3.1230 -1.6638 -2.7468
   86MOL    H6027430   3.047   1.315   0.406 -0.1850 -1.0432  1.8088
   86MOL    H6127431   2.811   1.299   0.364 -0.0800 -0.0205 -0.3902
   86MOL    H6227432   2.842   0.865   0.343  1.3680  0.1557 -1.6683
   86MOL    H6327433   3.083   0.881   0.398 -0.5034 -0.3977  1.8220
   86MOL    H6427434   3.407   1.132   0.563  0.4829  0.3556  0.4773
   86MOL    H6527435   3.271   1.212   0.614 -1.7553 -0.7416 -0.6628
   86MOL    C6627436   3.253   1.021   0.676  0.2012 -0.0141 -0.3981
   86MOL    C6727437   3.363   1.018   0.779 -0.4880  0.4130 -0.2178
   86MOL    C6827438   3.406   0.885   0.814 -0.2565 -0.5181  0.0822
   86MOL    C6927439   3.519   0.871   0.907 -0.7976 -0.1709  0.4497
   86MOL    C7027440   3.584   0.984   0.960  0.2147 -0.3708 -0.2864
   86MOL   Cl7127441   3.697   0.962   1.081 -0.1083  0.1509  0.0385
   86MOL    C7227442   3.525   1.113   0.929  0.3567 -0.2804  0.3003
   86MOL    C7327443   3.423   1.129   0.834 -0.3029 -0.5532  0.2612
   86MOL    C7427444   3.115   1.045   0.745  0.1234  0.0140  0.2761
   86MOL    H7527445   3.251   0.923   0.630 -0.4733 -0.7552  1.1903
   86MOL    H7627446   3.366   0.790   0.781 -0.7014 -0.6908  1.0790
   86MOL    H7727447   3.555   0.771   0.929 -0.1180  0.2620  1.3555
   86MOL    H7827448   3.560   1.200   0.983  3.0086 -2.4036  2.1760
   86MOL    H7927449   3.362   1.213   0.806  0.1862 -0.1214  0.5017
   86MOL    H8027450   3.119   1.108   0.833 -3.5180 -1.8725  1.9008
   86MOL    H8127451   3.046   1.091   0.675  0.5342  0.9282  0.4711
   86MOL    C8227452   3.029   0.922   0.779 -0.0874 -0.5517 -0.2187
   86MOL    C8327453   3.091   0.839   0.893  0.1371 -0.3662  0.4035
   86MOL    C8427454   3.125   0.904   1.011  0.3082  0.1404 -0.2016
   86MOL    C8527455   3.196   0.832   1.113 -0.0149  0.0615  0.3856
   86MOL    C8627456   3.221   0.694   1.095 -0.4502  0.4198  0.0431
   86MOL   Cl8727457   3.300   0.601   1.213 -0.3712 -0.0258 -0.3591
   86MOL    C8827458   3.188   0.628   0.970  0.4298  0.5077  0.5632
   86MOL    C8927459   3.119   0.703   0.874 -0.0886  0.1773 -0.2919
   86MOL    C9027460   2.887   0.972   0.826  0.2082 -0.6951 -0.3805
   86MOL    H9127461   3.017   0.867   0.686  0.2372  0.3101 -0.7714
   86MOL    H9227462   3.105   1.010   1.024  1.1338  0.5760 -2.3645
   86MOL    H9327463   3.241   0.882   1.197  0.2218 -1.6535  1.2771
   86MOL    H9427464   3.201   0.522   0.958  1.0031  0.7025 -0.5711
   86MOL    H9527465   3.096   0.661   0.777 -1.5220 -0.5312  0.3365
   86MOL    H9627466   2.883   0.996   0.933  2.5584  0.5459 -0.5335
   86MOL    H9727467   2.878   1.069   0.776  2.1733  2.1217  4.3057
   86MOL    C9827468   2.771   0.876   0.799 -0.0284  0.1183  0.5513
   86MOL    C9927469   2.773   0.748   0.880  0.1747  0.0792 -0.2307
   86MOL   C10027470   2.805   0.749   1.023 -0.2830  0.2359 -0.5533
   86MOL   C10127471   2.799   0.621   1.089  0.1380 -0.2243  0.0530
   86MOL   C10227472   2.756   0.503   1.019 -0.0577 -0.1827 -0.1210
   86MOL  Cl10327473   2.740   0.351   1.104  0.1744 -0.0656  0.1421
   86MOL   C10427474   2.727   0.505   0.884  0.1891 -0.3305 -0.2832
   86MOL   C10527475   2.742   0.627   0.816 -0.1373  0.1850  0.0450
   86MOL   C10627476   2.633   0.955   0.796 -0.4620 -0.0564  0.3125
   86MOL   H10727477   2.799   0.845   0.699  4.4178 -0.7551  1.9545
   86MOL   H10827478   2.834   0.832   1.087  0.8258 -1.0787  0.6830
   86MOL   H10927479   2.812   0.621   1.196 -0.9687  1.1024  0.1995
   86MOL   H11027480   2.682   0.425   0.828 -1.4273 -0.7092  1.4979
   86MOL   H11127481   2.711   0.621   0.712  1.6165  3.4569 -0.7398
   86MOL   H11227482   2.634   1.008   0.891  1.9336 -1.6946  1.2420
   86MOL   H11327483   2.642   1.037   0.724  1.3133 -0.9290 -0.4891
   86MOL   C11427484   2.501   0.871   0.790  0.1607  0.0882  0.4152
   86MOL   C11527485   2.384   0.956   0.824 -0.2584  0.0565  0.4848
   86MOL   C11627486   2.364   1.078   0.750  0.2436 -0.4550 -0.1226
   86MOL   C11727487   2.245   1.153   0.774  0.4595  0.2030  0.0702
   86MOL   C11827488   2.154   1.111   0.870  0.4357  0.0053  0.2410
   86MOL  Cl11927489   2.009   1.198   0.893 -0.6377  0.2620  0.5115
   86MOL   C12027490   2.186   0.999   0.958  0.0257  0.3678 -0.1807
   86MOL   C12127491   2.307   0.932   0.933 -0.4355  0.1051 -0.0001
   86MOL   C12227492   2.483   0.818   0.641 -0.2304  0.4317  0.0787
   86MOL   H12327493   2.507   0.786   0.857  0.3247  0.5368  0.9764
   86MOL   H12427494   2.427   1.112   0.670  1.5609 -1.0463  0.6373
   86MOL   H12527495   2.237   1.248   0.723  1.9932  0.1310 -0.3119
   86MOL   H12627496   2.123   0.979   1.044 -1.0899 -0.9321 -1.2705
   86MOL   H12727497   2.337   0.860   1.008  1.5672  1.6606  0.7421
   86MOL   H12827498   2.503   0.897   0.569  0.1924 -0.0229 -0.3025
   86MOL   H12927499   2.562   0.743   0.643 -0.3342  0.2895 -1.0018
   86MOL   C13027500   2.351   0.738   0.618  0.5503 -0.2153  0.6223
   86MOL   C13127501   2.234   0.825   0.579  0.5637 -0.2819 -0.3132
   86MOL   C13227502   2.247   0.935   0.487 -0.4690 -0.5937  0.1021
   86MOL   C13327503   2.142   1.022   0.478 -0.3957  0.3781  0.0142
   86MOL   C13427504   2.011   1.002   0.540 -0.1557 -0.1650 -0.0203
   86MOL  Cl13527505   1.880   1.113   0.522  0.0060  0.0710 -0.1590
   86MOL   C13627506   1.995   0.889   0.624 -0.9850 -0.3535 -0.5137
   86MOL   C13727507   2.104   0.803   0.641 -0.0608 -0.2337 -0.3340
   86MOL   C13827508   2.370   0.625   0.516  0.0509 -0.4150  0.4347
   86MOL   H13927509   2.329   0.682   0.708  0.4882 -1.8645 -0.3939
   86MOL   H14027510   2.334   0.948   0.426 -0.5891  0.6477  0.1887
   86MOL   H14127511   2.178   1.112   0.429  0.9469  0.1013  0.4815
   86MOL   H14227512   1.902   0.868   0.675  0.8115 -0.8996  2.6555
   86MOL   H14327513   2.088   0.718   0.705  0.9603 -0.1796 -0.0002
   86MOL   H14427514   2.456   0.573   0.559  1.5249  0.1669 -1.7387
   86MOL   H14527515   2.280   0.565   0.508  0.2961 -0.5906 -1.2503
   86MOL   C14627516   2.412   0.664   0.372 -0.3637  0.7149 -0.2055
   86MOL   C14727517   2.518   0.562   0.323 -0.5299 -0.0490  0.3733
   86MOL   C14827518   2.648   0.610   0.287 -0.3089 -0.4139 -0.3989
   86MOL   C14927519   2.739   0.514   0.239  0.2967 -0.3924  0.0046
   86MOL   C15027520   2.701   0.382   0.206  0.8958 -0.1341  0.5995
   86MOL  Cl15127521   2.814   0.280   0.131  0.4533 -0.4608 -0.3536
   86MOL   C15227522   2.573   0.341   0.242  0.4961  0.4278 -0.1448
   86MOL   C15327523   2.488   0.427   0.308 -0.0289 -0.4511 -0.5578
   86MOL   C15427524   2.293   0.666   0.276  0.1128 -0.2443  0.2295
   86MOL   H15527525   2.469   0.756   0.367  0.1598  0.3254 -1.9133
   86MOL   H15627526   2.674   0.710   0.319  2.6145 -1.5585  0.9576
   86MOL   H15727527   2.842   0.547   0.226  0.4504 -0.4961  0.9133
   86MOL   H15827528   2.543   0.238   0.242 -2.7874  1.3241 -0.8350
   86MOL   H15927529   2.391   0.387   0.335  0.0191 -0.9139 -1.0642
   86MOL   H16027530   2.235   0.574   0.290 -0.0728 -0.0762  0.5646
   86MOL   H16127531   2.220   0.730   0.324 -0.3058 -1.1904  0.8670
   86MOL   C16227532   2.332   0.703   0.128  0.2441 -0.6942 -0.0006
   86MOL   C16327533   2.360   0.583   0.042  0.1705  0.1638  0.1282
   86MOL   C16427534   2.254   0.489   0.019 -0.6394  0.3015  0.0316
   86MOL   C16527535   2.275   0.370   8.382  0.0840  0.0862  0.3530
   86MOL   C16627536   2.413   0.346   8.344  0.1934 -0.6598 -0.4136
   86MOL  Cl16727537   2.445   0.204   8.250 -0.0150  0.3675 -0.1231
   86MOL   C16827538   2.514   0.437   8.368 -0.7532  0.6128 -0.0982
   86MOL   C16927539   2.486   0.556   8.434  0.1938 -0.3603 -0.0845
   86MOL   C17027540   2.231   0.790   0.057  0.4949 -0.2589 -0.2574
   86MOL   H17127541   2.421   0.766   0.130  1.0372 -1.8281  1.4931
   86MOL   H17227542   2.157   0.498   0.066  0.3488  1.6379  1.8948
   86MOL   H17327543   2.193   0.305   8.359 -1.5364  1.7338  1.3075
   86MOL   H17427544   2.614   0.417   8.333 -1.1930 -1.7652 -0.0542
   86MOL   H17527545   2.564   0.625   0.018  0.7616 -1.3652  0.8857
   86MOL   H17627546   2.147   0.734   0.015  0.5587 -0.5393 -0.0096
   86MOL   H17727547   2.180   0.856   0.127  3.3269  1.4779  0.2216
   86MOL   C17827548   2.297   0.873   8.394  0.6955  0.5078  0.1892
   86MOL   C17927549   2.222   0.857   8.260  0.5347 -0.3393  0.4909
   86MOL   C18027550   2.082   0.885   8.251  0.5240 -0.9301  0.4616
   86MOL   C18127551   2.020   0.876   8.124  0.3234  0.4462 -0.6283
   86MOL   C18227552   2.090   0.839   8.010  0.4180 -0.7938 -0.4281
   86MOL  Cl18327553   2.018   0.806   7.859 -0.1808 -0.3780  0.5029
   86MOL   C18427554   2.225   0.814   8.023  0.5422  0.0781 -0.1470
   86MOL   C18527555   2.287   0.821   8.143 -0.0317  0.1643 -0.1769
   86MOL   C18627556   2.312   1.020   8.438 -0.0694  0.5268  0.4627
   86MOL   H18727557   2.395   0.828   8.376  0.4961 -0.0554  0.5012
   86MOL   H18827558   2.025   0.910   8.339  3.3545 -2.6513  2.8809
   86MOL   H18927559   1.915   0.895   8.111 -0.0479 -2.2382 -1.8019
   86MOL   H19027560   2.289   0.778   7.945 -1.4163 -0.4674 -1.5407
   86MOL   H19127561   2.387   0.780   8.145 -0.3338 -0.5421  0.6169
   86MOL   H19227562   2.211   1.058   8.430  0.5570  1.9743 -0.8376
   86MOL   H19327563   2.331   1.027   0.102  1.2779 -2.1296  0.4620
   86MOL   C19427564   2.421   1.097   8.348 -0.1848  0.1213  0.4686
   86MOL   C19527565   2.386   1.247   8.355  0.7076  0.3669  0.3643
   86MOL   C19627566   2.296   1.297   8.258 -0.7660  0.5677 -1.1342
   86MOL   C19727567   2.267   1.436   8.250  0.6487  0.7384  0.3786
   86MOL   C19827568   2.328   1.519   8.341 -0.3159 -0.3238  0.3065
   86MOL  Cl19927569   2.306   1.690   8.307  0.0707  0.1673 -0.6996
   86MOL   C20027570   2.405   1.470   0.002  0.3341 -0.4346 -0.2400
   86MOL   C20127571   2.440   1.333   0.006 -0.0850  0.3270 -0.8863
   86MOL   C20227572   2.569   1.060   8.383 -0.1277  0.5881 -0.1288
   86MOL   H20327573   2.387   1.079   8.246 -0.3191 -0.3183  0.5926
   86MOL   H20427574   2.265   1.234   8.176 -1.5381 -0.2785 -0.2142
   86MOL   H20527575   2.202   1.474   8.172  1.6875  2.3319  0.2802
   86MOL   H20627576   2.446   1.534   0.078 -1.4426  0.2278  0.1846
   86MOL   H20727577   2.515   1.303   0.078 -4.1564 -0.3496  3.3236
   86MOL   H20827578   2.581   1.059   0.048  0.2972 -2.3524 -0.1505
   86MOL   H20927579   2.578   0.952   8.365 -0.8186  0.6147 -0.6553
   86MOL   C21027580   2.688   1.132   8.320 -0.2314 -0.2773  1.1423
   86MOL   C21127581   2.821   1.055   8.354  0.1449 -0.9088 -0.8250
   86MOL   C21227582   2.862   0.939   8.283  0.1965  0.0225  0.6345
   86MOL   C21327583   2.996   0.889   8.302 -0.6037 -0.4469 -0.4994
   86MOL   C21427584   3.079   0.964   8.397 -0.2042  0.6222  0.1123
   86MOL  Cl21527585   3.249   0.911   8.403 -0.3270  0.1621 -0.2977
   86MOL   C21627586   3.026   1.062   0.049  0.4256 -0.5688 -0.5852
   86MOL   C21727587   2.896   1.105   0.022 -0.2699  0.1348  0.2997
   86MOL   C21827588   2.666   1.162   8.172 -0.0276 -0.6577  0.0290
   86MOL   H21927589   2.709   1.227   8.368 -0.4936 -0.2820  1.2617
   86MOL   H22027590   2.798   0.896   8.207  1.4659 -1.3157  0.2971
   86MOL   H22127591   3.046   0.816   8.241  4.9817  1.9213  0.9158
   86MOL   H22227592   3.089   1.096   0.130 -1.6024 -1.4246  1.4130
   86MOL   H22327593   2.868   1.192   0.081  2.0094  0.2110  1.3507
   86MOL   H22427594   2.646   1.068   8.120  2.2407  0.2709 -2.6955
   86MOL   H22527595   2.586   1.234   8.157 -0.0535 -0.5645  0.6335
   86MOL   C22627596   2.792   1.202   8.087 -0.3985 -0.6629 -0.3300
   86MOL   C22727597   2.754   1.231   7.941  0.2599  0.2224 -0.0655
   86MOL   C22827598   2.693   1.352   7.915 -0.3108 -0.0874  0.1870
   86MOL   C22927599   2.647   1.384   7.788 -0.4158 -0.4995  0.3199
   86MOL   C23027600   2.657   1.283   7.691  0.3751 -0.0230 -0.3220
   86MOL  Cl23127601   2.593   1.311   7.533  0.1854  0.2646  0.4101
   86MOL   C23227602   2.712   1.152   7.709 -0.1922  0.0923  0.2996
   86MOL   C23327603   2.765   1.130   7.839  0.5167 -0.6361 -0.3668
   86MOL   C23427604   2.886   1.314   8.153  0.2206 -1.1903 -0.5601
   86MOL   H23527605   2.857   1.115   8.095 -0.1888 -0.3215  2.0049
   86MOL   H23627606   2.690   1.421   7.998  1.0922 -0.6893  0.7523
   86MOL   H23727607   2.591   1.473   7.763 -0.4687 -0.4778  0.5091
   86MOL   H23827608   2.716   1.080   7.630  2.6237 -1.2294  1.5798
   86MOL   H23927609   2.822   1.042   7.867  0.6296 -0.2102  0.7487
   86MOL   H24027610   2.825   1.404   8.163  0.8947 -0.9782  1.7577
   86MOL   H24127611   2.910   1.298   8.258  0.2965 -1.2834 -0.5923
   86MOL   C24227612   3.010   1.353   8.080 -0.7697  0.3086 -0.0756
   86MOL   C24327613   3.070   1.491   8.120  0.8031 -0.4177  0.2058
   86MOL   C24427614   3.153   1.502   8.234 -0.8358 -1.1383  0.0084
   86MOL   C24527615   3.196   1.627   8.289  0.1017  0.1300  0.7505
   86MOL   C24627616   3.167   1.743   8.213  0.3009 -0.2403 -0.0826
   86MOL  Cl24727617   3.227   1.892   8.264 -0.3211 -0.0151  0.1255
   86MOL   C24827618   3.089   1.735   8.093 -0.0757 -0.4867 -0.0371
   86MOL   C24927619   3.031   1.609   8.057  0.3619 -0.8848  0.4235
   86MOL   C25027620   3.120   1.242   8.101  0.4926  0.3977 -0.3491
   86MOL   H25127621   2.992   1.356   7.973 -0.7299 -1.8815 -0.1539
   86MOL   H25227622   3.171   1.412   8.289 -0.1042 -1.9198 -1.4766
   86MOL   H25327623   3.245   1.641   8.384 -1.7959 -0.3593  1.8118
   86MOL   H25427624   3.058   1.818   8.031 -1.2286 -0.5970  0.3731
   86MOL   H25527625   2.967   1.603   7.970 -1.1751  0.6173  1.4150
   86MOL   H25627626   3.135   1.225   8.207 -0.0497 -1.8252 -0.5929
   86MOL   H25727627   3.077   1.149   8.062 -0.5484  1.2011 -1.1695
   86MOL   C25827628   3.254   1.255   8.027 -1.2652  0.0471  1.0932
   86MOL   C25927629   3.384   1.261   8.114 -0.2765 -0.4258  0.0388
   86MOL   C26027630   3.436   1.140   8.175 -0.1065 -0.6074  0.0963
   86MOL   C26127631   3.549   1.153   8.258  0.5085  0.6276 -0.1026
   86MOL   C26227632   3.612   1.274   8.283  0.0614  0.2119 -0.0917
   86MOL  Cl26327633   3.757   1.282   8.385 -0.4138  0.1148  0.3527
   86MOL   C26427634   3.558   1.389   8.228 -0.4636  0.2415 -0.0874
   86MOL   C26527635   3.450   1.381   8.136 -0.1773  0.1753 -0.6507
   86MOL   C26627636   3.279   1.156   7.912 -0.5703 -0.0075  0.5149
   86MOL   H26727637   3.256   1.356   7.988 -1.9116 -1.5068 -3.3202
   86MOL   H26827638   3.405   1.041   8.145 -0.1632  0.6226 -4.1970
   86MOL   H26927639   3.601   1.066   8.295  0.3879  0.5200 -0.1862
   86MOL   H27027640   3.602   1.484   8.255 -3.3984  1.1668  1.6338
   86MOL   H27127641   3.411   1.474   8.097 -2.3540 -0.4115  0.0425
   86MOL   H27227642   3.376   1.178   7.868 -1.4141  0.4003 -1.1788
   86MOL   H27327643   3.270   1.054   7.949  1.9836  0.1188  1.5655
   86MOL   C27427644   3.189   1.165   7.790 -0.2321  0.6031  0.2951
   86MOL   C27527645   3.171   1.309   7.742 -0.2888  0.2734 -0.2873
   86MOL   C27627646   3.276   1.398   7.732 -0.2085 -0.0112 -0.0539
   86MOL   C27727647   3.257   1.532   7.701 -0.0364  0.8182 -0.0982
   86MOL   C27827648   3.130   1.586   7.677 -0.2754 -0.3660 -0.1255
   86MOL  Cl27927649   3.108   1.760   7.651 -0.2881  0.2841  0.1605
   86MOL   C28027650   3.024   1.492   7.669 -0.1637 -0.3032  0.1986
   86MOL   C28127651   3.043   1.357   7.709 -0.3443 -0.0735  0.4963
   86MOL   C28227652   3.243   1.080   7.679 -0.7952  0.3076  0.0537
   86MOL   H28327653   3.088   1.134   7.817 -1.0084  2.1927 -0.6820
   86MOL   H28427654   3.373   1.366   7.765  0.2111 -0.0993 -1.3519
   86MOL   H28527655   3.345   1.596   7.706 -0.1940  0.8818  2.2498
   86MOL   H28627656   2.927   1.527   7.639 -0.2448 -1.0477 -0.4139
   86MOL   H28727657   2.961   1.287   7.698 -0.0182 -0.3280 -0.4270
   86MOL   H28827658   3.174   1.094   7.597  0.3650  0.2807 -0.9378
   86MOL   H28927659   3.341   1.109   7.640 -0.6490 -0.2351  0.0098
   86MOL   C29027660   3.265   0.929   7.713 -0.8387 -0.0329  0.2024
   86MOL   C29127661   3.136   0.867   7.753  0.8728  0.1195  0.6154
   86MOL   C29227662   3.023   0.868   7.668 -1.2499 -0.1764 -0.1600
   86MOL   C29327663   2.899   0.827   7.715 -0.7090  0.3863  0.8277
   86MOL   C29427664   2.891   0.783   7.854 -0.7772 -0.1957 -0.1835
   86MOL  Cl29527665   2.732   0.740   7.918  0.4959 -0.1336 -0.2233
   86MOL   C29627666   3.006   0.781   7.937 -0.4548 -0.0477  0.8638
   86MOL   C29727667   3.126   0.812   7.880 -0.6226  0.2966 -0.1544
   86MOL   C29827668   3.336   0.847   7.595  0.4444 -0.0404  0.1488
   86MOL   H29927669   3.333   0.938   7.797 -0.1923  0.2294 -0.3450
   86MOL   H30027670   3.032   0.917   7.572 -0.5112 -0.6854 -0.3529
   86MOL   H30127671   2.813   0.835   7.650  1.3203 -2.5054 -2.4279
   86MOL   H30227672   3.000   0.747   8.039 -1.2808 -1.7401  0.2705
   86MOL   H30327673   3.215   0.812   7.941 -0.6634 -0.3796 -0.0902
   86MOL   H30427674   3.305   0.748   7.629 -1.9166  0.3447 -0.7901
   86MOL   H30527675   3.297   0.873   7.497  0.5743 -1.5193 -0.3084
   86MOL   C30627676   3.491   0.865   7.592  0.0573  0.4756 -0.1528
   86MOL   C30727677   3.567   0.875   7.724 -0.1889 -0.2483 -0.1410
   86MOL   C30827678   3.624   1.003   7.754 -0.0412  0.3200 -0.6443
   86MOL   C30927679   3.697   1.018   7.876 -0.5354 -0.2599  0.2105
   86MOL   C31027680   3.709   0.911   7.963  0.6574  0.5158 -0.3816
   86MOL  Cl31127681   3.784   0.927   8.116 -0.1085 -0.6721 -0.3062
   86MOL   C31227682   3.659   0.783   7.929 -0.2282  0.0245  0.0210
   86MOL   C31327683   3.585   0.766   7.811 -0.5148 -0.0801  0.0116
   86MOL   C31427684   3.552   0.762   7.497 -0.6424 -0.6218  0.1398
   86MOL   H31527685   3.506   0.953   7.530  2.2985 -0.2404 -0.6795
   86MOL   H31627686   3.612   1.092   7.694  2.4913  1.2576  0.1710
   86MOL   H31727687   3.731   1.114   7.910 -0.0577 -1.1435  2.3257
   86MOL   H31827688   3.675   0.692   7.985 -0.5563  0.3315  0.6293
   86MOL   H31927689   3.541   0.671   7.787 -1.8120  0.6858 -0.6564
   86MOL   H32027690   3.658   0.788   7.486 -0.6719 -0.8363 -0.6874
   86MOL   H32127691   3.545   0.660   7.534  0.7226 -1.7046 -2.4675
   86MOL   H32227692   3.509   0.769   7.397 -0.6266  4.1871  0.3401
   87MOL     C127693   7.636   5.890   3.524 -0.6221 -0.5160  0.4343
   87MOL     C227694   7.755   5.880   3.429  0.5780  0.1191  0.8340
   87MOL     C327695   7.759   5.958   3.311  0.2541 -0.1488  0.4047
   87MOL     C427696   7.870   5.945   3.228 -0.5902  0.3600 -0.1940
   87MOL     C527697   7.980   5.867   3.265  0.1149  0.1371 -0.0535
   87MOL    Cl627698   8.118   5.844   3.166 -0.3936  0.2818  0.3232
   87MOL     C727699   7.975   5.795   3.385 -0.2519 -0.6194  0.8061
   87MOL     C827700   7.867   5.806   3.473  0.0261 -0.3811  0.3969
   87MOL     C927701   7.587   6.026   3.552  0.4937  0.5506  0.5854
   87MOL    H1027702   7.654   5.840   3.619  3.0391  1.0061  0.5873
   87MOL    H1127703   7.682   6.029   3.283 -0.5244 -1.0699  0.1760
   87MOL    H1227704   7.867   5.993   3.131  2.0471  1.8243  0.4135
   87MOL    H1327705   8.060   5.731   3.398  1.5552  1.5384 -0.0341
   87MOL    H1427706   7.858   5.738   3.556  2.0156  0.0356  0.9919
   87MOL    H1527707   7.680   6.082   3.556  1.1929 -0.5151 -0.5079
   87MOL    H1627708   7.527   6.058   3.467  0.3644 -0.8096  0.1564
   87MOL    H1727709   7.553   5.841   3.473 -0.0201 -2.0421  0.8997
   87MOL    C1827710   7.502   6.040   3.682 -0.6178 -0.2330  0.0024
   87MOL    C1927711   7.571   6.004   3.822  0.4424  0.1450  0.9313
   87MOL    C2027712   7.485   5.978   3.932 -0.6552 -0.7947 -0.4745
   87MOL    C2127713   7.543   5.960   4.058 -0.2032  0.1013 -0.1430
   87MOL    C2227714   7.681   5.958   4.080 -0.4648 -0.9598  0.6665
   87MOL   Cl2327715   7.741   5.948   4.236  0.2002 -0.1375  0.1790
   87MOL    C2427716   7.764   5.982   3.971  0.1979  0.0543  0.6869
   87MOL    C2527717   7.712   6.004   3.839  0.2234 -0.4258  0.4071
   87MOL    C2627718   7.430   6.171   3.693 -0.0899  0.1941 -0.1289
   87MOL    H2727719   7.432   5.957   3.669 -0.0484 -0.7490  0.2233
   87MOL    H2827720   7.378   5.982   3.916 -1.0549 -1.9066  1.7618
   87MOL    H2927721   7.482   5.931   4.142  0.3767  2.5236  1.1476
   87MOL    H3027722   7.868   6.000   3.991  1.0099 -2.9213 -0.5564
   87MOL    H3127723   7.769   6.041   3.755 -0.8818 -0.0798 -0.2111
   87MOL    H3227724   7.383   6.186   3.790  0.1278  0.5062 -0.0707
   87MOL    H3327725   7.503   6.252   3.689  0.4722 -0.1390  2.7500
   87MOL    C3427726   7.319   6.190   3.589  0.1754  0.4711  0.3004
   87MOL    C3527727   7.221   6.076   3.590  0.5653  0.6923  0.0825
   87MOL    C3627728   7.144   6.053   3.710 -0.6938 -0.6887 -0.4203
   87MOL    C3727729   7.045   5.949   3.711 -0.7240 -0.7904 -0.5190
   87MOL    C3827730   7.038   5.856   3.605 -0.3071 -0.9342  0.0523
   87MOL   Cl3927731   6.937   5.717   3.615 -0.0219 -0.0585 -0.1288
   87MOL    C4027732   7.121   5.881   3.493 -0.1235 -0.3255  0.1803
   87MOL    C4127733   7.206   5.986   3.481 -0.3799 -0.2898 -0.3571
   87MOL    C4227734   7.241   6.326   3.627 -0.0187  0.3282 -0.6107
   87MOL    H4327735   7.348   6.209   3.486 -1.5338 -0.0910 -0.3042
   87MOL    H4427736   7.135   6.122   3.794  2.8761  0.3629 -0.8140
   87MOL    H4527737   6.993   5.930   3.804  1.0741 -2.2173  0.2354
   87MOL    H4627738   7.122   5.829   3.398 -1.2759  1.5982 -0.9145
   87MOL    H4727739   7.264   6.001   3.391 -0.9050 -0.1092 -0.6664
   87MOL    H4827740   7.139   6.321   3.589  0.1173  1.1904 -1.1104
   87MOL    H4927741   7.215   6.330   3.733 -1.1958  0.8120 -0.9144
   87MOL    C5027742   7.302   6.456   3.577 -0.0861  0.0440 -0.6000
   87MOL    C5127743   7.278   6.473   3.426  0.1392  0.0011  0.1069
   87MOL    C5227744   7.147   6.488   3.379  0.0721  0.2385 -0.0743
   87MOL    C5327745   7.117   6.509   3.241  0.1374  0.1763 -0.7360
   87MOL    C5427746   7.217   6.489   3.147 -0.9359 -0.3518  1.3825
   87MOL   Cl5527747   7.178   6.495   2.977 -0.0617  0.2335  0.2358
   87MOL    C5627748   7.351   6.471   3.192 -0.1662  0.0713 -0.0277
   87MOL    C5727749   7.382   6.459   3.331  0.5786 -0.4217  0.4074
   87MOL    C5827750   7.244   6.573   3.659  0.0080 -0.1872  0.2472
   87MOL    H5927751   7.410   6.456   3.592  0.2432  0.3269 -2.8274
   87MOL    H6027752   7.058   6.504   3.439  0.4503 -2.0276  1.1553
   87MOL    H6127753   7.017   6.541   3.215 -1.0393 -0.3842  2.8088
   87MOL    H6227754   7.436   6.440   3.134 -1.1161 -3.4598  0.3507
   87MOL    H6327755   7.479   6.426   3.365  0.0957  0.1175  2.4006
   87MOL    H6427756   7.135   6.573   3.663 -0.0957 -1.4205 -2.1100
   87MOL    H6527757   7.287   6.566   3.759 -0.0045 -1.2505  0.1865
   87MOL    C6627758   7.280   6.715   3.605 -0.3202  0.0879 -0.6970
   87MOL    C6727759   7.201   6.814   3.692  0.6404  0.1678  0.6363
   87MOL    C6827760   7.093   6.878   3.636  0.5552 -0.7788 -0.4939
   87MOL    C6927761   7.019   6.984   3.699 -1.0648 -0.4515  0.2873
   87MOL    C7027762   7.053   7.013   3.831 -0.0011 -0.0803  0.7849
   87MOL   Cl7127763   6.956   7.123   3.923  0.5209 -0.2706 -0.4745
   87MOL    C7227764   7.157   6.948   3.894 -0.8857 -0.3124  0.4845
   87MOL    C7327765   7.234   6.855   3.826  0.8962  0.2874  0.0721
   87MOL    C7427766   7.429   6.747   3.619 -0.3951 -0.2098  0.6548
   87MOL    H7527767   7.249   6.729   3.502 -0.9232  0.5816 -0.4501
   87MOL    H7627768   7.063   6.861   3.534 -0.7743 -0.4272 -0.1664
   87MOL    H7727769   6.932   7.034   3.660  0.1726  3.2967  2.0975
   87MOL    H7827770   7.179   6.969   3.998 -0.9611 -0.3876  0.5163
   87MOL    H7927771   7.318   6.813   3.880  1.7632  2.1104  0.1521
   87MOL    H8027772   7.464   6.741   3.722  1.1686 -0.5474  0.1226
   87MOL    H8127773   7.499   6.678   3.571  1.2502  1.7668  0.1109
   87MOL    C8227774   7.463   6.877   3.551 -0.1769  0.1633  0.5166
   87MOL    C8327775   7.568   6.948   3.633 -0.5434  0.1844  0.5810
   87MOL    C8427776   7.533   7.053   3.720  0.1044  0.2278 -0.3702
   87MOL    C8527777   7.632   7.127   3.792  0.3874  0.6568 -0.2772
   87MOL    C8627778   7.766   7.100   3.773 -0.3897  0.0158  0.1385
   87MOL   Cl8727779   7.882   7.195   3.865  0.5188  0.0443 -0.0064
   87MOL    C8827780   7.811   6.994   3.685  0.0316 -1.1872 -0.3420
   87MOL    C8927781   7.712   6.925   3.612 -0.1872 -0.3874  0.2420
   87MOL    C9027782   7.491   6.878   3.400 -0.2480  0.0866  0.2480
   87MOL    H9127783   7.372   6.936   3.552  1.2376  2.4197  0.6191
   87MOL    H9227784   7.427   7.071   3.725 -0.1515 -1.2260 -0.1384
   87MOL    H9327785   7.604   7.209   3.856 -0.9498 -0.1009  0.1080
   87MOL    H9427786   7.915   6.969   3.675  0.4137  0.0722  0.3453
   87MOL    H9527787   7.736   6.845   3.544 -0.9407  1.9164 -2.9065
   87MOL    H9627788   7.592   6.842   3.379 -0.4138  0.0647 -0.5241
   87MOL    H9727789   7.431   6.799   3.355  0.1586  0.9746 -1.9034
   87MOL    C9827790   7.466   7.010   3.319  0.5978  0.1283  0.3167
   87MOL    C9927791   7.316   7.052   3.310  0.7647  0.2189 -0.3447
   87MOL   C10027792   7.242   7.003   3.204  0.2099  0.3839 -0.3743
   87MOL   C10127793   7.108   7.051   3.191  0.9650 -0.4779 -0.8611
   87MOL   C10227794   7.059   7.150   3.280  0.4276  0.0711 -0.3797
   87MOL  Cl10327795   6.905   7.210   3.248  0.1486  0.5235  0.0337
   87MOL   C10427796   7.135   7.187   3.389 -0.1754  0.0046  0.2152
   87MOL   C10527797   7.258   7.130   3.414 -0.2934 -0.8550  0.4102
   87MOL   C10627798   7.564   7.128   3.357  0.7523  0.6788  0.3498
   87MOL   H10727799   7.502   6.993   3.217 -1.0544 -2.0930  0.0411
   87MOL   H10827800   7.274   6.935   3.126  1.3763  1.2081 -0.6241
   87MOL   H10927801   7.047   7.015   3.109 -1.3703 -0.9004  1.0023
   87MOL   H11027802   7.097   7.253   3.466  1.8613  0.8078  0.5540
   87MOL   H11127803   7.312   7.159   3.502 -2.4724 -1.7602  2.0797
   87MOL   H11227804   7.551   7.161   3.461 -0.7243 -1.3078  0.8239
   87MOL   H11327805   7.661   7.083   3.374 -0.3429 -2.1500 -0.5623
   87MOL   C11427806   7.554   7.261   3.285 -0.2656 -0.6723  1.6932
   87MOL   C11527807   7.667   7.346   3.338  0.6125  0.1324 -0.4130
   87MOL   C11627808   7.795   7.347   3.285  0.2105  0.4662 -0.3749
   87MOL   C11727809   7.902   7.426   3.334  0.8062 -0.1032 -0.6254
   87MOL   C11827810   7.872   7.519   3.439  0.4360 -0.1416 -0.4388
   87MOL  Cl11927811   7.992   7.622   3.490 -0.0877 -0.1283  0.1254
   87MOL   C12027812   7.745   7.525   3.489 -0.4294 -0.3317 -0.2867
   87MOL   C12127813   7.641   7.439   3.437  0.3733  0.0360 -0.7026
   87MOL   C12227814   7.538   7.252   3.125  0.2106 -0.3490 -0.0936
   87MOL   H12327815   7.469   7.311   3.330  2.0078  2.1758  2.9717
   87MOL   H12427816   7.822   7.272   3.212  2.1741 -0.5079  1.3064
   87MOL   H12527817   7.999   7.415   3.290  0.7597  0.1850 -0.7994
   87MOL   H12627818   7.713   7.601   3.560 -0.0424  0.3021 -0.7873
   87MOL   H12727819   7.540   7.453   3.472  1.0872  0.1611  1.3784
   87MOL   H12827820   7.611   7.190   3.072  1.0750 -0.9668  1.7971
   87MOL   H12927821   7.438   7.217   3.098  0.4569 -0.6574 -0.6071
   87MOL   C13027822   7.552   7.391   3.059  0.0922  0.1045 -0.0575
   87MOL   C13127823   7.568   7.378   2.904 -0.0018 -0.1168 -0.1790
   87MOL   C13227824   7.465   7.328   2.824 -0.1573  0.3792  0.5791
   87MOL   C13327825   7.486   7.304   2.687  1.1113  0.4219  0.1522
   87MOL   C13427826   7.606   7.349   2.631  0.4259  0.6941 -0.7896
   87MOL  Cl13527827   7.619   7.332   2.458 -0.0677 -0.3154 -0.0203
   87MOL   C13627828   7.712   7.396   2.710  0.6006  0.0667 -0.2791
   87MOL   C13727829   7.697   7.410   2.849  0.6749  0.0349 -0.6705
   87MOL   C13827830   7.427   7.483   3.094 -0.4554 -0.1260  0.0317
   87MOL   H13927831   7.645   7.434   3.096 -0.5375  3.0991 -1.7719
   87MOL   H14027832   7.369   7.312   2.871  0.3525 -0.8848  1.1936
   87MOL   H14127833   7.403   7.270   2.627  1.0661  0.3825  0.2379
   87MOL   H14227834   7.803   7.435   2.668 -0.1374  2.8643  0.6390
   87MOL   H14327835   7.771   7.445   2.919  1.2975  0.4341 -1.5255
   87MOL   H14427836   7.338   7.447   3.043  0.0809 -1.1362 -0.2049
   87MOL   H14527837   7.387   7.458   3.192  1.1905 -2.8026  0.0833
   87MOL   C14627838   7.454   7.632   3.087  0.3069  0.5377  0.2593
   87MOL   C14727839   7.503   7.680   2.953 -0.1149  0.1287  0.1069
   87MOL   C14827840   7.430   7.663   2.833 -0.4068  0.4140 -0.2004
   87MOL   C14927841   7.473   7.730   2.721 -0.2825  0.2694 -0.1388
   87MOL   C15027842   7.581   7.818   2.715  0.5557 -0.6597 -0.2399
   87MOL  Cl15127843   7.612   7.894   2.567 -0.1821  0.2406 -0.0768
   87MOL   C15227844   7.651   7.835   2.834  0.2133  0.9284 -0.0073
   87MOL   C15327845   7.618   7.763   2.949 -0.0794  0.0197  0.1858
   87MOL   C15427846   7.335   7.706   3.138 -0.0661 -0.2877 -0.5232
   87MOL   H15527847   7.531   7.633   3.164  1.5692  0.9752 -0.9890
   87MOL   H15627848   7.343   7.600   2.843 -0.5979  0.6568 -0.3538
   87MOL   H15727849   7.410   7.722   2.634 -0.5534  1.8496 -0.1146
   87MOL   H15827850   7.728   7.912   2.839  1.1148 -0.0008  0.7640
   87MOL   H15927851   7.682   7.766   3.036 -0.6584 -1.0094  0.6548
   87MOL   H16027852   7.264   7.694   3.057 -0.5153  0.0131 -0.1801
   87MOL   H16127853   7.280   7.658   3.220 -0.8081 -1.6477 -1.7970
   87MOL   C16227854   7.347   7.857   3.180 -0.2335 -0.9576  0.1919
   87MOL   C16327855   7.413   7.867   3.316 -0.2504 -0.2392 -0.3184
   87MOL   C16427856   7.337   7.903   3.433  0.0877  0.6417  0.4069
   87MOL   C16527857   7.394   7.904   3.561 -0.0226  0.9043 -0.1084
   87MOL   C16627858   7.535   7.885   3.574  0.1890  0.1332 -0.5763
   87MOL  Cl16727859   7.607   7.879   3.733 -0.1401 -0.2005  0.3451
   87MOL   C16827860   7.614   7.852   3.464  0.3968 -0.0549 -0.2881
   87MOL   C16927861   7.555   7.849   3.337  0.7624 -0.1001  0.8994
   87MOL   C17027862   7.395   7.963   3.076  0.4716  0.9869  0.2190
   87MOL   H17127863   7.242   7.880   3.198  0.2850  2.2724 -0.7397
   87MOL   H17227864   7.230   7.920   3.438 -0.0311 -0.0166  0.1990
   87MOL   H17327865   7.330   7.927   3.645  0.5487 -1.3820  0.9784
   87MOL   H17427866   7.715   7.814   3.469  0.2080 -0.7124 -1.2346
   87MOL   H17527867   7.618   7.811   3.258  0.3851  2.9055 -0.9551
   87MOL   H17627868   7.503   7.956   3.079  0.3288 -1.3482  0.2041
   87MOL   H17727869   7.359   7.944   2.975 -0.8414  0.8851  0.6986
   87MOL   C17827870   7.363   8.109   3.114 -0.1569 -0.2701  0.9076
   87MOL   C17927871   7.470   8.199   3.062  0.4094 -1.0589  0.2573
   87MOL   C18027872   7.492   8.219   2.922  0.5192 -0.2312 -0.6479
   87MOL   C18127873   7.604   8.289   2.876 -0.1857 -0.0523  0.1864
   87MOL   C18227874   7.691   8.347   2.975 -0.9654 -0.0125 -0.2601
   87MOL  Cl18327875   7.836   8.416   2.909  0.3847 -0.1076 -0.4495
   87MOL   C18427876   7.657   8.336   3.115  0.5636 -0.0288  0.7160
   87MOL   C18527877   7.548   8.266   3.154  0.3801  0.1278  0.3190
   87MOL   C18627878   7.227   8.158   3.063  0.0234  0.1532  0.7041
   87MOL   H18727879   7.368   8.112   3.223 -2.0380 -0.5907  1.0167
   87MOL   H18827880   7.433   8.168   2.847  1.4587 -3.8184  0.9321
   87MOL   H18927881   7.623   8.293   2.770  0.4034 -0.3698  0.2785
   87MOL   H19027882   7.727   8.374   3.189 -2.0083  0.9329  2.7145
   87MOL   H19127883   7.526   8.255   3.259 -1.8246  0.1138 -0.1101
   87MOL   H19227884   7.236   8.183   2.958  0.8191 -0.6474  0.5845
   87MOL   H19327885   7.151   8.081   3.072 -0.6796  0.8493  0.8251
   87MOL   C19427886   7.175   8.292   3.134 -0.3133  0.1928 -1.1940
   87MOL   C19527887   7.053   8.352   3.051 -0.0130 -0.5680 -0.2892
   87MOL   C19627888   7.052   0.039   3.004 -0.4308  0.4125  0.3838
   87MOL   C19727889   6.937   0.099   2.939 -0.2152 -0.0344 -0.4334
   87MOL   C19827890   6.829   0.015   2.922  0.1701 -1.2071 -0.0488
   87MOL  Cl19927891   6.681   0.073   2.853  0.0513  0.2668 -0.2988
   87MOL   C20027892   6.829   8.324   2.963 -0.4440 -0.2323  0.4584
   87MOL   C20127893   6.934   8.278   3.044 -0.1066  0.2363 -0.5724
   87MOL   C20227894   7.135   8.261   3.281  0.0552  0.5364  0.3844
   87MOL   H20327895   7.257   8.363   3.130  0.6788 -0.7933  1.0233
   87MOL   H20427896   7.140   0.101   3.014  0.5539 -0.9742  0.5094
   87MOL   H20527897   6.936   0.197   2.893  1.2249 -1.9159 -4.7658
   87MOL   H20627898   6.736   8.272   2.945  0.2057 -1.4898  0.6910
   87MOL   H20727899   6.942   8.173   3.070  1.1499  0.7454  1.1834
   87MOL   H20827900   7.050   8.193   3.273  1.2531 -0.8581 -0.7193
   87MOL   H20927901   7.211   8.193   3.318 -0.0796 -1.5755 -2.9648
   87MOL   C21027902   7.113   8.379   3.383  0.1262  0.5691 -0.1880
   87MOL   C21127903   7.011   0.043   3.336 -0.8309 -0.0811 -0.1160
   87MOL   C21227904   7.040   0.185   3.331  0.2428 -0.1255  0.8424
   87MOL   C21327905   6.935   0.277   3.304 -0.1875  0.0118 -0.4294
   87MOL   C21427906   6.811   0.231   3.257  0.3931  0.1484  0.3098
   87MOL  Cl21527907   6.702   0.344   3.193  0.2833  0.5710 -0.3926
   87MOL   C21627908   6.781   0.091   3.269 -0.5311  0.2194  0.3202
   87MOL   C21727909   6.881   0.002   3.316 -0.5436  0.5752  0.3382
   87MOL   C21827910   7.063   8.343   3.518 -0.3020  0.4034  0.7200
   87MOL   H21927911   7.208   8.430   3.399 -0.7282  2.7152 -1.7929
   87MOL   H22027912   7.143   0.215   3.344 -0.1384  2.4597 -1.6200
   87MOL   H22127913   6.945   0.384   3.310 -2.2379  0.1890  0.1708
   87MOL   H22227914   6.683   0.063   3.233 -0.5821  0.1106  0.5413
   87MOL   H22327915   6.860   8.339   3.317  1.2504  0.2066  0.9836
   87MOL   H22427916   7.042   8.431   3.579  2.5974  2.3739 -1.0410
   87MOL   H22527917   6.963   8.300   3.512  0.1276 -0.6229  0.9274
   87MOL   C22627918   7.148   8.238   3.592  0.6319 -0.6725  0.4416
   87MOL   C22727919   7.278   8.303   3.624 -0.1229  0.5356 -0.1543
   87MOL   C22827920   7.286   8.401   3.725 -0.3796 -0.0563 -0.0405
   87MOL   C22927921   7.407   0.026   3.757 -0.0727  1.1991 -0.1597
   87MOL   C23027922   7.528   8.440   3.686  0.6409 -0.2844  0.4192
   87MOL  Cl23127923   7.676   0.090   3.704  0.2136  0.0348 -0.3454
   87MOL   C23227924   7.515   8.338   3.589  0.0276  0.2737  0.2629
   87MOL   C23327925   7.398   8.263   3.564 -0.2478  0.3108  1.0648
   87MOL   C23427926   7.068   8.174   3.716 -0.1041 -0.1433  0.3544
   87MOL   H23527927   7.174   8.148   3.538  0.6745 -0.7257  0.5492
   87MOL   H23627928   7.205   8.431   3.790 -0.4720 -0.0138 -0.1769
   87MOL   H23727929   7.412   0.104   3.832 -3.8895  0.0105  1.4616
   87MOL   H23827930   7.606   8.319   3.534 -0.8043 -0.2239 -0.9527
   87MOL   H23927931   7.405   8.196   3.479 -3.2713 -0.6719  1.5446
   87MOL   H24027932   7.129   8.102   3.770 -1.1776 -0.9492  0.5016
   87MOL   H24127933   7.054   8.246   3.797 -1.1311 -0.4101  0.4191
   87MOL   C24227934   6.929   8.113   3.697 -0.4283 -0.0431 -0.0452
   87MOL   C24327935   6.946   7.988   3.610 -0.1394 -0.3653  0.0746
   87MOL   C24427936   6.971   7.866   3.664 -0.0451  0.0840  0.7034
   87MOL   C24527937   6.982   7.748   3.582 -0.1936  0.0396 -0.7446
   87MOL   C24627938   6.970   7.754   3.444 -0.9986  0.6725 -0.0973
   87MOL  Cl24727939   6.977   7.609   3.344  0.1543  0.1366  0.0291
   87MOL   C24827940   6.956   7.882   3.387 -0.0980 -0.7078  0.2384
   87MOL   C24927941   6.951   7.998   3.470  0.0117  0.1089  0.7401
   87MOL   C25027942   6.845   8.099   3.821 -0.2782  0.4180  0.4389
   87MOL   H25127943   6.868   8.179   3.634  0.6795  0.0554 -1.0399
   87MOL   H25227944   6.973   7.857   3.772 -0.9949 -2.7752  0.5460
   87MOL   H25327945   6.986   7.651   3.629 -3.0547 -0.5290 -1.5439
   87MOL   H25427946   6.951   7.890   3.280  1.7358  1.0895  0.2728
   87MOL   H25527947   6.928   8.093   3.423 -0.0728 -0.9246 -1.3573
   87MOL   H25627948   6.756   8.043   3.791  0.0876 -0.0071  0.1609
   87MOL   H25727949   6.892   8.032   3.893 -0.9056  2.1589  2.5201
   87MOL   C25827950   6.801   8.233   3.883  0.8164 -0.4102  0.9648
   87MOL   C25927951   6.721   8.313   3.781  0.4650  0.3223 -0.2617
   87MOL   C26027952   6.772   8.433   3.722 -0.2432 -0.9509  0.1177
   87MOL   C26127953   6.684   0.076   3.643 -1.0550 -0.3058  0.1590
   87MOL   C26227954   6.571   0.022   3.589  0.2752  0.6876 -0.4356
   87MOL  Cl26327955   6.474   0.104   3.464  0.0945 -0.0914 -0.5446
   87MOL   C26427956   6.526   8.336   3.629 -0.3019 -0.3699  0.1514
   87MOL   C26527957   6.598   8.262   3.727 -0.5323 -0.2345  0.2958
   87MOL   C26627958   6.718   8.219   4.020 -0.1526 -0.3485 -0.2058
   87MOL   H26727959   6.890   8.292   3.905  1.4332 -1.3578  1.0873
   87MOL   H26827960   6.868   0.027   3.756 -1.5144  1.4723  1.1894
   87MOL   H26927961   6.715   0.175   3.612 -0.4638 -0.5503 -0.0450
   87MOL   H27027962   6.442   8.281   3.590 -0.4184 -0.6157  0.7493
   87MOL   H27127963   6.553   8.173   3.767 -1.8931  0.6548  0.7880
   87MOL   H27227964   6.618   8.183   3.993  0.4142  0.3413 -3.4907
   87MOL   H27327965   6.769   8.130   4.057  0.5409  0.2618  0.3304
   87MOL   C27427966   6.735   8.345   4.114  0.6316  0.4381  0.0322
   87MOL   C27527967   6.881   8.379   4.136 -0.1539 -0.5520 -0.1145
   87MOL   C27627968   6.935   0.049   4.075 -0.4125  0.1655 -0.1334
   87MOL   C27727969   7.064   0.085   4.100 -0.0574  0.2868  0.6786
   87MOL   C27827970   7.143   0.009   4.183  0.1613 -0.0042  0.0051
   87MOL  Cl27927971   7.303   0.061   4.214  0.4875  0.0045  0.1834
   87MOL   C28027972   7.095   8.341   4.247  0.0174  0.3494 -0.0180
   87MOL   C28127973   6.963   8.299   4.222  0.6941 -0.4027  0.1172
   87MOL   C28227974   6.649   0.020   4.074  0.6423 -0.2155 -0.1018
   87MOL   H28327975   6.710   8.307   4.213  2.2923 -0.3462  0.1743
   87MOL   H28427976   6.875   0.128   4.033 -1.5610  0.0149  1.1649
   87MOL   H28527977   7.090   0.177   4.049  1.1729  0.2598  1.2415
   87MOL   H28627978   7.153   8.302   4.330 -1.5639 -2.2550 -0.0739
   87MOL   H28727979   6.924   8.215   4.277 -1.1375  0.5178  0.2597
   87MOL   H28827980   6.665   0.100   4.146  1.1799  0.2185 -0.7060
   87MOL   H28927981   6.673   0.058   3.975 -4.4847  1.2758 -0.9315
   87MOL   C29027982   6.497   8.431   4.085  0.5941  0.1331 -0.1494
   87MOL   C29127983   6.467   8.386   4.231  0.1961 -0.3675 -0.1995
   87MOL   C29227984   6.410   8.258   4.255  0.0942 -0.8557 -0.1608
   87MOL   C29327985   6.379   8.218   4.387 -0.1849  0.5788 -0.5326
   87MOL   C29427986   6.436   8.286   4.491 -1.0724 -0.1951  0.9455
   87MOL  Cl29527987   6.430   8.214   4.644  0.2756 -0.1036  0.2604
   87MOL   C29627988   6.500   8.408   4.465  0.0220 -0.3217 -0.7604
   87MOL   C29727989   6.509   0.017   4.342  0.0650  0.0280  0.8479
   87MOL   C29827990   6.405   0.097   4.034 -0.3979  0.1912  0.1069
   87MOL   H29927991   6.480   8.344   4.020  0.4586  1.2719 -1.6667
   87MOL   H30027992   6.369   8.185   4.187 -1.5239 -0.9737  0.8952
   87MOL   H30127993   6.322   8.129   4.406  1.5953 -0.6192 -0.6616
   87MOL   H30227994   6.543   0.016   4.550  1.0752 -1.4930 -0.5896
   87MOL   H30327995   6.550   0.116   4.332  1.0481 -0.3359  1.2907
   87MOL   H30427996   6.420   0.194   4.082 -2.0699 -0.1845  1.4481
   87MOL   H30527997   6.438   0.115   3.932 -0.5726  0.4144  0.0877
   87MOL   C30627998   6.252   0.087   4.052  0.0528 -0.1846  0.1921
   87MOL   C30727999   6.183   0.207   3.990 -0.1207 -0.4730  0.3413
   87MOL   C30828000   6.197   0.231   3.852  0.1504 -0.0675 -0.7765
   87MOL   C30928001   6.136   0.342   3.791 -0.8474  0.3956 -0.0574
   87MOL   C31028002   6.049   0.426   3.861 -0.1917 -0.3219  0.4254
   87MOL  Cl31128003   5.965   0.560   3.786  0.7155 -0.0345 -0.0227
   87MOL   C31228004   6.030   0.402   4.002  0.1014 -0.5136  0.6525
   87MOL   C31328005   6.097   0.291   4.063  0.0561 -0.2529  0.9808
   87MOL   C31428006   6.199   8.405   3.984  0.2709 -0.0393  0.8713
   87MOL   H31528007   6.227   0.087   4.158 -4.5106  0.8497 -0.7939
   87MOL   H31628008   6.262   0.162   3.801  2.3108  0.6498  0.9086
   87MOL   H31728009   6.152   0.356   3.685 -1.2360  1.1923 -0.0190
   87MOL   H31828010   5.960   0.446   4.072  0.1807  2.3167 -0.9769
   87MOL   H31928011   6.073   0.278   4.167  0.9820  1.4280  1.4288
   87MOL   H32028012   6.244   8.398   3.884  0.6422  0.2357  1.0199
   87MOL   H32128013   6.225   8.316   4.041 -0.7098 -0.8097  0.1443
   87MOL   H32228014   6.090   8.406   3.981  0.2614  0.6926  1.3933
   88MOL     C128015   4.227   6.473   6.842  0.5498  0.2088 -0.6398
   88MOL     C228016   4.308   6.386   6.740  0.2508 -0.2962 -0.1546
   88MOL     C328017   4.271   6.377   6.602 -0.1860 -0.1951 -0.0619
   88MOL     C428018   4.348   6.316   6.506  0.0930  0.1434 -0.5694
   88MOL     C528019   4.469   6.259   6.546  0.2858  0.3923 -0.8724
   88MOL    Cl628020   4.573   6.182   6.424 -0.0320  0.0215  0.2473
   88MOL     C728021   4.505   6.258   6.683 -0.3893  0.1439  0.2571
   88MOL     C828022   4.427   6.326   6.780  0.1681  0.7307 -0.2761
   88MOL     C928023   4.303   6.593   6.907  0.0031 -0.2706  1.1015
   88MOL    H1028024   4.205   6.394   6.913 -1.2458  1.9274  0.7803
   88MOL    H1128025   4.175   6.419   6.575 -0.2602 -1.2249 -1.4642
   88MOL    H1228026   4.317   6.326   6.403 -0.5908 -1.5668 -0.5525
   88MOL    H1328027   4.590   6.199   6.715  1.1300  1.8446 -0.5096
   88MOL    H1428028   4.466   6.322   6.881 -1.6675  2.6364  0.5355
   88MOL    H1528029   4.409   6.570   6.917 -0.2443 -2.9496 -1.5906
   88MOL    H1628030   4.310   6.678   6.839  0.0227 -0.6611  0.6190
   88MOL    H1728031   4.140   6.524   6.800  0.3477 -0.8974 -1.5740
   88MOL    C1828032   4.248   6.647   7.037  0.0907 -0.7153 -0.1515
   88MOL    C1928033   4.230   6.540   7.141 -0.0667  1.6192 -0.9493
   88MOL    C2028034   4.102   6.505   7.191 -0.6996  0.1618  0.1992
   88MOL    C2128035   4.073   6.415   7.288 -0.1237 -0.3018  0.3292
   88MOL    C2228036   4.174   6.328   7.323 -0.3399 -0.2542 -0.0971
   88MOL   Cl2328037   4.142   6.206   7.438 -0.2524  0.0446 -0.2955
   88MOL    C2428038   4.310   6.354   7.285  0.0230  0.4899  1.1082
   88MOL    C2528039   4.333   6.461   7.190 -0.0282  0.0984  0.2126
   88MOL    C2628040   4.345   6.755   7.095  0.6790 -0.0248 -0.0966
   88MOL    H2728041   4.152   6.694   7.016  0.8892  0.7827 -0.5030
   88MOL    H2828042   4.016   6.562   7.156 -0.8880 -0.0588  0.3024
   88MOL    H2928043   3.974   6.411   7.331  0.3574  0.9447  1.5900
   88MOL    H3028044   4.391   6.291   7.317  2.2676  2.9455  0.4520
   88MOL    H3128045   4.437   6.482   7.169 -0.3725  1.3038 -0.3315
   88MOL    H3228046   4.450   6.731   7.085  0.5018 -0.8375 -0.0542
   88MOL    H3328047   4.333   6.835   7.022  0.3597 -1.2124 -1.3747
   88MOL    C3428048   4.311   6.805   7.236  0.2908  0.4943 -0.2681
   88MOL    C3528049   4.435   6.809   7.325 -0.8156 -0.1473  0.0074
   88MOL    C3628050   4.555   6.871   7.287 -0.1204  0.3900 -0.6332
   88MOL    C3728051   4.667   6.881   7.371  0.1553 -0.7184 -0.3012
   88MOL    C3828052   4.659   6.826   7.504 -0.9464  1.0764 -0.0927
   88MOL   Cl3928053   4.784   6.845   7.619 -0.0893 -0.2471  0.2138
   88MOL    C4028054   4.540   6.753   7.535  0.0742  0.0499 -1.0479
   88MOL    C4128055   4.428   6.742   7.448  0.2094  0.2206 -0.6137
   88MOL    C4228056   4.239   6.944   7.232  0.0777 -0.0620  0.4022
   88MOL    H4328057   4.245   6.739   7.290 -1.8349  0.2768 -3.0249
   88MOL    H4428058   4.546   6.920   7.191 -6.0880 -0.5851 -0.7636
   88MOL    H4528059   4.762   6.923   7.343  2.8803 -4.8090  2.3147
   88MOL    H4628060   4.528   6.715   7.636  3.0674  2.4298  0.2738
   88MOL    H4728061   4.340   6.690   7.482  0.6520 -0.6079 -0.7208
   88MOL    H4828062   4.236   6.966   7.339 -0.5940  0.6535  0.2401
   88MOL    H4928063   4.314   7.017   7.201 -0.2604  1.2638  2.5194
   88MOL    C5028064   4.107   6.967   7.151 -0.6674 -0.0712 -0.4666
   88MOL    C5128065   3.997   6.867   7.175 -0.4385 -0.3383 -0.2370
   88MOL    C5228066   3.959   6.820   7.301  0.0921  0.0769  0.0974
   88MOL    C5328067   3.853   6.721   7.316  0.2376 -0.2448  0.5893
   88MOL    C5428068   3.798   6.670   7.198 -0.6828  0.5335  0.0346
   88MOL   Cl5528069   3.706   6.528   7.210  0.2189 -0.1826 -0.0810
   88MOL    C5628070   3.823   6.730   7.075 -0.5626  0.3354 -0.2252
   88MOL    C5728071   3.927   6.824   7.063  0.6933 -0.2991 -0.4280
   88MOL    C5828072   4.052   7.109   7.187 -0.5849  0.8956  0.2587
   88MOL    H5928073   4.127   6.970   7.044  0.0517  2.3752 -0.2971
   88MOL    H6028074   4.000   6.854   7.396  1.2210  1.4264 -0.8427
   88MOL    H6128075   3.816   6.676   7.407  0.8502  0.0546  0.9918
   88MOL    H6228076   3.773   6.698   6.984  1.6101  0.3958 -1.4667
   88MOL    H6328077   3.941   6.872   6.967 -0.0636  1.3375  0.2474
   88MOL    H6428078   3.963   7.137   7.130 -2.2770 -1.1915  1.7813
   88MOL    H6528079   4.033   7.108   7.295 -0.0704 -1.2892  0.3603
   88MOL    C6628080   4.133   7.226   7.150 -0.3504 -0.8562  0.0356
   88MOL    C6728081   4.194   7.216   7.007 -0.1273 -0.3482  0.7942
   88MOL    C6828082   4.108   7.241   6.898  0.4841 -0.1254  0.1547
   88MOL    C6928083   4.155   7.264   6.771  1.0100 -1.0282  0.1237
   88MOL    C7028084   4.298   7.241   6.749 -0.2117  0.5681 -1.7500
   88MOL   Cl7128085   4.366   7.259   6.592 -0.2586 -0.1289 -0.1636
   88MOL    C7228086   4.380   7.200   6.858  0.5427  0.1428 -0.4235
   88MOL    C7328087   4.335   7.195   6.985  1.2987  0.3125 -0.4648
   88MOL    C7428088   4.063   7.365   7.166 -0.3552  0.2253 -0.5608
   88MOL    H7528089   4.208   7.230   7.230 -1.0022  1.8349  0.5325
   88MOL    H7628090   4.004   7.266   6.907  0.3524 -0.0459 -1.4098
   88MOL    H7728091   4.079   7.273   6.695 -1.6856 -1.1056  2.7684
   88MOL    H7828092   4.487   7.188   6.846  0.7592 -0.6246  2.0003
   88MOL    H7928093   4.403   7.165   7.064  1.1783 -2.2390 -1.2851
   88MOL    H8028094   3.979   7.372   7.097  0.7750 -1.7312 -2.1992
   88MOL    H8128095   4.010   7.375   7.260  0.5813  0.4236 -0.0498
   88MOL    C8228096   4.164   7.482   7.162  1.1009  0.2778  0.0016
   88MOL    C8328097   4.106   7.596   7.087 -0.0804  0.2947  0.2813
   88MOL    C8428098   4.120   7.611   6.949  0.4935 -0.1285 -0.3215
   88MOL    C8528099   4.058   7.715   6.882 -0.0971  0.0067 -0.7283
   88MOL    C8628100   3.993   7.818   6.955  0.1323  0.1458 -0.7787
   88MOL   Cl8728101   3.917   7.946   6.866 -0.3564  0.4704 -0.0493
   88MOL    C8828102   3.986   7.810   7.089  0.3909 -0.3584 -0.8153
   88MOL    C8928103   4.041   7.702   7.157  0.2988 -0.6639 -0.6240
   88MOL    C9028104   4.234   7.507   7.301 -0.1798  0.4802 -0.6343
   88MOL    H9128105   4.245   7.454   7.096 -0.1889  0.9911 -1.9149
   88MOL    H9228106   4.182   7.539   6.898 -0.6734 -0.5426 -1.1663
   88MOL    H9328107   4.064   7.728   6.775 -0.9190  2.8336 -0.4865
   88MOL    H9428108   3.931   7.887   7.141 -1.3610 -2.0823 -0.0567
   88MOL    H9528109   4.019   7.695   7.263 -2.9569 -2.0642 -1.3356
   88MOL    H9628110   4.164   7.562   7.363  0.2888  0.0668  0.2680
   88MOL    H9728111   4.264   7.415   7.351 -1.1041  2.5327  3.9089
   88MOL    C9828112   4.372   7.577   7.278  0.3886  0.4294 -1.1757
   88MOL    C9928113   4.410   7.655   7.400  0.1340 -0.1646 -0.1078
   88MOL   C10028114   4.405   7.797   7.393 -0.1586 -0.2365  0.0160
   88MOL   C10128115   4.454   7.869   7.505 -0.1759  0.3331 -0.1396
   88MOL   C10228116   4.497   7.796   7.622  0.3199  0.8085 -0.0225
   88MOL  Cl10328117   4.578   7.889   7.741 -0.0588 -0.1019  0.4143
   88MOL   C10428118   4.497   7.656   7.625 -0.1041  0.2383 -0.1047
   88MOL   C10528119   4.452   7.578   7.513  0.3257  0.2115 -0.3509
   88MOL   C10628120   4.484   7.478   7.230 -0.0548  0.0985 -0.1683
   88MOL   H10728121   4.372   7.650   7.198 -1.9415  0.6684 -0.9714
   88MOL   H10828122   4.369   7.845   7.303  0.8972 -3.2125 -2.0712
   88MOL   H10928123   4.470   7.976   7.502  2.1889  0.0333  0.3119
   88MOL   H11028124   4.538   7.602   7.709 -0.0899 -1.3426 -1.0909
   88MOL   H11128125   4.450   7.470   7.515 -0.1085  0.2245 -0.0835
   88MOL   H11228126   4.510   7.407   7.308 -0.4471  1.4366  1.2054
   88MOL   H11328127   4.439   7.411   7.156  0.0275  0.2767 -0.3784
   88MOL   C11428128   4.598   7.547   7.153  0.2570  0.1101 -0.3771
   88MOL   C11528129   4.722   7.474   7.187 -0.5900 -0.4335 -0.3362
   88MOL   C11628130   4.754   7.352   7.125  0.1346 -0.0694 -0.7547
   88MOL   C11728131   4.881   7.290   7.158  0.3989  0.7546  0.2167
   88MOL   C11828132   4.966   7.353   7.254 -0.6799  0.1064 -0.0437
   88MOL  Cl11928133   5.118   7.282   7.299 -0.0912 -0.1534 -0.1533
   88MOL   C12028134   4.930   7.475   7.319 -0.7789 -0.6946  0.7764
   88MOL   C12128135   4.808   7.538   7.281  0.2040 -0.1626 -0.1111
   88MOL   C12228136   4.578   7.574   7.001  0.1304  0.4023 -0.3119
   88MOL   H12328137   4.616   7.641   7.205 -0.6854  0.6774 -1.0637
   88MOL   H12428138   4.684   7.295   7.066  1.0383 -0.0165 -1.9071
   88MOL   H12528139   4.903   7.191   7.121 -2.6117  0.1300  0.0085
   88MOL   H12628140   4.988   7.520   7.398  0.7197 -0.3133 -0.5316
   88MOL   H12728141   4.786   7.632   7.328  2.8599 -0.2817  1.5059
   88MOL   H12828142   4.598   7.484   6.942  2.7194  0.5834  0.2393
   88MOL   H12928143   4.472   7.593   6.985  0.3648 -0.5652 -3.2543
   88MOL   C13028144   4.667   7.700   6.952  0.6635  0.2785  0.2490
   88MOL   C13128145   4.817   7.691   6.994  0.5618  0.2973  0.0780
   88MOL   C13228146   4.869   7.802   7.061 -0.0671 -0.1181  0.1255
   88MOL   C13328147   5.001   7.802   7.109 -0.4030  0.5644  0.1696
   88MOL   C13428148   5.089   7.698   7.084 -0.6705  0.1035 -0.0987
   88MOL  Cl13528149   5.264   7.698   7.117 -0.1323 -0.3060 -0.2206
   88MOL   C13628150   5.034   7.590   7.006 -0.0831 -0.1104 -1.1080
   88MOL   C13728151   4.899   7.582   6.965  0.0444  0.0208  0.3516
   88MOL   C13828152   4.644   7.733   6.799  0.1010 -0.3945 -0.3200
   88MOL   H13928153   4.622   7.787   7.001  0.7272  0.9827 -0.9220
   88MOL   H14028154   4.804   7.882   7.093  1.6609  2.3593 -2.3560
   88MOL   H14128155   5.034   7.885   7.170  2.7139  0.1486 -0.8949
   88MOL   H14228156   5.100   7.508   6.981  0.0952  0.4698 -2.5683
   88MOL   H14328157   4.857   7.494   6.918 -0.0241  0.6105 -0.6997
   88MOL   H14428158   4.718   7.808   6.770 -0.7668  0.1732 -1.1079
   88MOL   H14528159   4.675   7.650   6.735 -0.2701  0.2825 -1.3960
   88MOL   C14628160   4.499   7.769   6.754 -0.1813 -0.4299 -0.0463
   88MOL   C14728161   4.439   7.889   6.829  0.2596 -0.1064 -0.1276
   88MOL   C14828162   4.484   8.022   6.800  0.2186 -0.2395 -0.3975
   88MOL   C14928163   4.433   8.127   6.875  0.5023  0.6247  0.3222
   88MOL   C15028164   4.342   8.109   6.984  0.8411  0.3631 -0.6130
   88MOL  Cl15128165   4.258   8.243   7.049  0.0132 -0.0983  0.3810
   88MOL   C15228166   4.295   7.977   7.011 -0.4472  0.6161  0.0385
   88MOL   C15328167   4.342   7.871   6.931  0.0312  0.5646 -0.1271
   88MOL   C15428168   4.478   7.782   6.608 -0.1736  0.2168 -0.0364
   88MOL   H15528169   4.442   7.682   6.786  0.6473 -0.9344  0.0750
   88MOL   H15628170   4.556   8.045   6.723  1.9784  1.1763  1.6299
   88MOL   H15728171   4.464   8.229   6.857  2.1274  0.6110  2.7140
   88MOL   H15828172   4.234   7.956   7.097  0.6375 -2.0340  0.2076
   88MOL   H15928173   4.321   7.767   6.947  2.1814  0.2677  0.9766
   88MOL   H16028174   4.533   7.868   6.571  0.2085  0.2981  0.7197
   88MOL   H16128175   4.530   7.700   6.559 -1.8802 -0.7267 -0.3051
   88MOL   C16228176   4.328   7.776   6.557 -0.6629  0.1565 -0.2107
   88MOL   C16328177   4.269   7.921   6.532  0.0867 -0.2311 -0.8005
   88MOL   C16428178   4.164   7.972   6.614 -0.3024 -0.8474 -0.6981
   88MOL   C16528179   4.110   8.102   6.595 -0.8723 -0.2006 -0.1439
   88MOL   C16628180   4.166   8.180   6.492  0.1179 -0.2728  0.0948
   88MOL  Cl16728181   4.120   8.344   6.470 -0.0849 -0.2306 -0.6098
   88MOL   C16828182   4.253   8.122   6.401 -0.6001  0.1115 -0.0220
   88MOL   C16928183   4.312   7.998   6.422  0.4432 -0.5740 -0.5349
   88MOL   C17028184   4.329   7.681   6.434 -0.2612 -0.6342 -0.0691
   88MOL   H17128185   4.270   7.727   6.635  0.4639 -0.6723  0.1079
   88MOL   H17228186   4.128   7.906   6.691  0.1041 -1.9316 -1.4233
   88MOL   H17328187   4.036   8.146   6.661 -0.0661  0.9934 -0.0211
   88MOL   H17428188   4.274   8.179   6.312  2.7400  0.5864  1.0020
   88MOL   H17528189   4.392   7.966   6.357 -0.0998  2.6426 -2.9223
   88MOL   H17628190   4.357   7.727   6.339 -0.0647 -0.4364  0.0824
   88MOL   H17728191   4.402   7.601   6.434 -0.5866 -1.0060 -3.1337
   88MOL   C17828192   4.205   7.594   6.412  0.5264 -0.2069  0.6359
   88MOL   C17928193   4.078   7.680   6.397  0.1091  0.0988  0.1609
   88MOL   C18028194   3.969   7.650   6.481 -0.7360 -0.1400  0.8200
   88MOL   C18128195   3.866   7.739   6.494 -0.9076 -0.0503 -0.1396
   88MOL   C18228196   3.861   7.850   6.408 -0.2195  0.2021 -0.0723
   88MOL  Cl18328197   3.722   7.949   6.419 -0.1863 -0.2326  0.2992
   88MOL   C18428198   3.956   7.879   6.318  0.5554 -0.7279  0.3935
   88MOL   C18528199   4.074   7.793   6.313 -0.3139 -0.3074 -0.0379
   88MOL   C18628200   4.232   7.506   6.286  0.6355  0.0433 -0.0263
   88MOL   H18728201   4.200   7.534   6.502 -2.8443  1.0081  1.3402
   88MOL   H18828202   3.967   7.568   6.551 -2.0727 -0.9872 -0.1620
   88MOL   H18928203   3.791   7.724   6.570 -0.1475 -2.0794  0.2376
   88MOL   H19028204   3.958   7.968   6.256 -1.0333 -0.9727 -0.0338
   88MOL   H19128205   4.158   7.815   6.249  0.0587  2.6858  1.3686
   88MOL   H19228206   4.267   7.561   6.198  1.0156 -2.3021 -1.3647
   88MOL   H19328207   4.329   7.460   6.307  1.5919  1.3091 -1.5800
   88MOL   C19428208   4.124   7.401   6.250  0.5136 -0.8118  0.4859
   88MOL   C19528209   4.164   7.326   6.126  0.2728 -0.0257  0.6211
   88MOL   C19628210   4.282   7.251   6.119 -0.0092  0.1511  0.5089
   88MOL   C19728211   4.309   7.182   6.002 -0.1386 -0.1888 -0.3041
   88MOL   C19828212   4.226   7.187   5.891  0.8232 -0.2437  0.0217
   88MOL  Cl19928213   4.276   7.096   5.748 -0.0676  0.1355  0.2164
   88MOL   C20028214   4.113   7.273   5.894 -0.2352  0.3420  0.2017
   88MOL   C20128215   4.077   7.334   6.013 -0.0068  1.0211 -0.5275
   88MOL   C20228216   4.091   7.303   6.366  0.3216  0.1257  0.2270
   88MOL   H20328217   4.035   7.460   6.229 -1.0373 -2.0460  3.4637
   88MOL   H20428218   4.354   7.254   6.200  1.0125  3.8514 -0.4267
   88MOL   H20528219   4.399   7.123   5.995 -0.6085 -0.9757  0.2890
   88MOL   H20628220   4.066   7.284   5.797 -0.8323  1.3336  0.5893
   88MOL   H20728221   3.988   7.396   6.014  0.1129  1.1796  0.1832
   88MOL   H20828222   4.185   7.255   6.394 -0.1937 -1.1793 -0.2603
   88MOL   H20928223   4.054   7.357   6.454 -0.9075 -0.1045 -0.1427
   88MOL   C21028224   3.993   7.187   6.334 -0.1370  0.3638 -0.0703
   88MOL   C21128225   3.998   7.083   6.439 -0.6834  0.2292 -0.0386
   88MOL   C21228226   3.930   7.092   6.557 -0.8861 -0.5322 -0.2023
   88MOL   C21328227   3.936   6.986   6.651  0.5712 -1.0249 -0.0753
   88MOL   C21428228   4.000   6.865   6.618 -0.2495 -0.1136 -0.6255
   88MOL  Cl21528229   3.982   6.733   6.723  0.2589 -0.2864 -0.5935
   88MOL   C21628230   4.070   6.854   6.502 -0.4342  0.2444  0.3525
   88MOL   C21728231   4.069   6.960   6.411  0.0470 -0.1159  0.0237
   88MOL   C21828232   3.851   7.230   6.294 -0.4209 -0.1820  0.0006
   88MOL   H21928233   4.039   7.135   6.250  0.6143  0.2628  0.3933
   88MOL   H22028234   3.884   7.186   6.584  0.7648 -0.2180  1.5283
   88MOL   H22128235   3.889   6.993   6.748  1.2519 -1.7507  0.3183
   88MOL   H22228236   4.111   6.759   6.471  0.9548  1.6593 -2.2901
   88MOL   H22328237   4.121   6.944   6.318  2.8707  1.1959  1.3413
   88MOL   H22428238   3.808   7.283   6.378 -0.6836 -1.6487  0.8014
   88MOL   H22528239   3.860   7.302   6.213  1.1227  0.2299  0.5139
   88MOL   C22628240   3.753   7.117   6.247  0.0263  0.6898 -0.3214
   88MOL   C22728241   3.611   7.166   6.275  0.2010  0.2507  0.4639
   88MOL   C22828242   3.538   7.244   6.179  0.3007  0.0679 -0.3669
   88MOL   C22928243   3.408   7.292   6.206 -0.1552  0.5536 -0.0682
   88MOL   C23028244   3.347   7.264   6.334  0.0656  0.2659  0.5535
   88MOL  Cl23128245   3.207   7.334   6.388  0.0746  0.1098  0.2051
   88MOL   C23228246   3.414   7.173   6.419 -0.0336  0.3393 -0.2675
   88MOL   C23328247   3.543   7.124   6.390  0.8322 -0.7825  0.4277
   88MOL   C23428248   3.786   7.053   6.109 -0.9287  0.3698  0.0395
   88MOL   H23528249   3.762   7.034   6.317  4.3979  1.0108 -0.3645
   88MOL   H23628250   3.591   7.280   6.092  2.1504  0.8151  1.0299
   88MOL   H23728251   3.351   7.354   6.139 -2.3520 -0.6827  0.6167
   88MOL   H23828252   3.359   7.146   6.508 -0.5779  2.1901 -0.0229
   88MOL   H23928253   3.597   7.064   6.461 -1.5362 -3.5734 -0.0330
   88MOL   H24028254   3.749   7.130   6.041  1.1439  0.3196 -1.1816
   88MOL   H24128255   3.891   7.052   6.082 -0.6727 -0.5707  1.0218
   88MOL   C24228256   3.730   6.915   6.077  0.3023 -0.1476  0.8695
   88MOL   C24328257   3.740   6.891   5.929  0.4514  0.6139  0.3452
   88MOL   C24428258   3.632   6.910   5.841 -0.4939  0.5223  0.2814
   88MOL   C24528259   3.641   6.878   5.705 -0.3057  0.0439  0.3274
   88MOL   C24628260   3.766   6.837   5.654 -0.3356  0.1724  0.1776
   88MOL  Cl24728261   3.782   6.802   5.488 -0.0717  0.4674  0.3979
   88MOL   C24828262   3.881   6.825   5.735  0.3463 -0.3613 -0.5093
   88MOL   C24928263   3.869   6.845   5.874  0.6933  0.4022  0.5133
   88MOL   C25028264   3.785   6.804   6.172  0.0517  0.4301 -0.6284
   88MOL   H25128265   3.624   6.931   6.096  1.1073  2.6314  3.3764
   88MOL   H25228266   3.541   6.961   5.867 -0.1927  2.0414 -1.4620
   88MOL   H25328267   3.563   6.888   5.632  0.3479  2.5093 -0.0945
   88MOL   H25428268   3.975   6.811   5.685 -0.5603  0.9503 -2.6395
   88MOL   H25528269   3.949   6.830   5.944  0.3427 -1.5598  0.5346
   88MOL   H25628270   3.894   6.809   6.175  0.1299 -0.7827  4.4122
   88MOL   H25728271   3.759   6.821   6.277  1.2581 -0.9110 -0.0821
   88MOL   C25828272   3.737   6.657   6.148  0.8316 -0.0144 -0.0246
   88MOL   C25928273   3.856   6.567   6.102 -0.3012  0.1303  0.0403
   88MOL   C26028274   3.964   6.555   6.192 -0.5135 -0.1909  0.8200
   88MOL   C26128275   4.064   6.462   6.172  0.1420  0.3325 -0.2368
   88MOL   C26228276   4.066   6.382   6.056  0.3475  0.1898 -0.0142
   88MOL  Cl26328277   4.187   6.266   6.034  0.7554 -0.2359  0.1512
   88MOL   C26428278   3.965   6.390   5.962  0.1459  0.6256  0.5240
   88MOL   C26528279   3.858   6.481   5.986 -0.6105  0.3286  1.2618
   88MOL   C26628280   3.668   6.601   6.275  0.1473  0.2339 -0.4682
   88MOL   H26728281   3.665   6.647   6.067  1.1044 -1.0917 -0.1523
   88MOL   H26828282   3.969   6.607   6.287 -0.1694 -0.3670  0.8993
   88MOL   H26928283   4.146   6.452   6.241  0.4032  0.9229 -0.4585
   88MOL   H27028284   3.968   6.339   5.866 -1.0699  0.4723  0.5612
   88MOL   H27128285   3.787   6.486   5.906  0.6551 -1.5320 -0.0208
   88MOL   H27228286   3.725   6.623   6.365 -0.7774 -0.7674  0.3628
   88MOL   H27328287   3.574   6.654   6.290 -1.2870 -2.0026 -1.3716
   88MOL   C27428288   3.625   6.451   6.276 -0.5510  0.0223 -0.2793
   88MOL   C27528289   3.733   6.367   6.341  0.0073 -0.3185 -0.0159
   88MOL   C27628290   3.774   6.381   6.479  0.0226  0.5578  1.0586
   88MOL   C27728291   3.882   6.306   6.523  0.1813  0.3047  0.2960
   88MOL   C27828292   3.946   6.210   6.442 -0.1961 -0.2272 -0.0964
   88MOL  Cl27928293   4.078   6.109   6.500 -0.1924 -0.5374 -0.2435
   88MOL   C28028294   3.900   6.201   6.307 -0.6897  0.0078  0.1003
   88MOL   C28128295   3.797   6.273   6.256  0.1385 -0.1650 -0.1736
   88MOL   C28228296   3.493   6.436   6.361 -0.0212  0.1788  0.4056
   88MOL   H28328297   3.602   6.420   6.174 -0.6502 -0.6926 -0.0393
   88MOL   H28428298   3.743   6.460   6.546 -0.7897  1.4248 -0.3066
   88MOL   H28528299   3.911   6.317   6.627  0.2015  1.7879  0.1473
   88MOL   H28628300   3.951   6.125   6.250  0.4270 -0.4158  1.6175
   88MOL   H28728301   3.758   6.257   6.156  0.7871 -1.0613 -0.2935
   88MOL   H28828302   3.498   6.476   6.463 -0.5371 -4.0798  2.2381
   88MOL   H28928303   3.415   6.493   6.311  0.4463 -0.0917 -0.6336
   88MOL   C29028304   3.432   6.294   6.350 -0.0435  0.4372  0.1885
   88MOL   C29128305   3.314   6.270   6.437  0.6094  0.0879 -0.0673
   88MOL   C29228306   3.188   6.332   6.408  0.4595 -0.2565 -0.0504
   88MOL   C29328307   3.078   6.315   6.494  0.3235 -0.3104  0.3375
   88MOL   C29428308   3.094   6.237   6.612 -0.8635 -0.5757 -0.4316
   88MOL  Cl29528309   2.962   6.208   6.724  0.1557 -0.5344  0.7867
   88MOL   C29628310   3.223   6.185   6.648  0.3837  0.4277  0.8347
   88MOL   C29728311   3.328   6.200   6.559 -0.6384  0.4543  0.0255
   88MOL   C29828312   3.399   6.239   6.208  0.2704  0.3903  0.6956
   88MOL   H29928313   3.499   6.216   6.385 -0.9286  0.1241  1.2255
   88MOL   H30028314   3.162   6.391   6.322 -2.6371 -1.8676 -0.2999
   88MOL   H30128315   2.980   6.354   6.470  1.3115  1.6315 -0.7005
   88MOL   H30228316   3.221   6.136   6.744  2.1327  0.7092  1.0359
   88MOL   H30328317   3.429   6.165   6.578 -1.0853 -0.9600 -0.1869
   88MOL   H30428318   3.332   6.315   6.168 -0.7731 -0.3500  1.0344
   88MOL   H30528319   3.492   6.247   6.151  0.5755 -1.7309  0.8415
   88MOL   C30628320   3.335   6.099   6.194 -0.6802  0.0668 -0.4928
   88MOL   C30728321   3.277   6.076   6.056 -0.1062 -0.0660  0.8819
   88MOL   C30828322   3.345   5.993   5.962 -0.9847  0.7904 -0.4871
   88MOL   C30928323   3.285   5.957   5.840 -0.4674  0.0594  0.4237
   88MOL   C31028324   3.159   6.019   5.803 -0.3995 -0.0417  0.0505
   88MOL  Cl31128325   3.085   5.984   5.650  0.2919 -0.6656  0.1136
   88MOL   C31228326   3.092   6.096   5.901 -0.2120  0.3014 -0.2902
   88MOL   C31328327   3.146   6.126   6.026 -0.5384 -0.4976 -0.1064
   88MOL   C31428328   3.415   5.982   6.243  0.3644  0.1103  0.0741
   88MOL   H31528329   3.254   6.086   6.265  0.9402  0.7640  1.5501
   88MOL   H31628330   3.440   5.951   5.991 -1.1866  1.0550  0.5646
   88MOL   H31728331   3.339   5.890   5.776 -0.8544  0.4496 -0.3215
   88MOL   H31828332   2.991   6.125   5.879  0.0129  0.7458 -0.7584
   88MOL   H31928333   3.085   6.171   6.103 -3.6164  1.4104 -3.5378
   88MOL   H32028334   3.408   5.965   6.351  0.5609 -1.1613 -0.1072
   88MOL   H32128335   3.376   5.897   6.188 -0.2121 -0.2813  1.0683
   88MOL   H32228336   3.521   6.002   6.224  0.1527  0.9339 -0.2498
   89MOL     C128337   1.724   2.488   1.275  0.3696  0.0548  0.6982
   89MOL     C228338   1.869   2.454   1.293  0.9096 -0.3884  0.0249
   89MOL     C328339   1.917   2.431   1.422  0.3671  0.8626  0.4281
   89MOL     C428340   2.054   2.396   1.443 -0.4212  1.0144  0.0367
   89MOL     C528341   2.144   2.395   1.337  0.0628  0.1802  0.0378
   89MOL    Cl628342   2.311   2.365   1.360  0.1509  0.1796  0.1399
   89MOL     C728343   2.095   2.421   1.207 -0.2111 -0.0010  0.6126
   89MOL     C828344   1.957   2.456   1.189 -0.0299  0.2736 -0.0895
   89MOL     C928345   1.642   2.381   1.198 -0.5059  0.1049  0.5427
   89MOL    H1028346   1.718   2.586   1.227 -0.2190 -0.2300  0.1812
   89MOL    H1128347   1.852   2.438   1.509 -0.4834 -0.2312 -0.1019
   89MOL    H1228348   2.091   2.373   1.542 -1.0948  0.1062  0.0842
   89MOL    H1328349   2.162   2.431   1.123 -0.4766  1.8645  0.6043
   89MOL    H1428350   1.929   2.487   1.090 -1.6022 -2.7614 -0.6674
   89MOL    H1528351   1.705   2.350   1.115  0.5844  0.7387  1.1204
   89MOL    H1628352   1.643   2.290   1.257  3.3008 -0.6215 -0.5662
   89MOL    H1728353   1.676   2.510   1.370  1.9786 -0.9079  1.7720
   89MOL    C1828354   1.508   2.438   1.148  0.6541 -0.6483 -0.0189
   89MOL    C1928355   1.528   2.496   1.009  0.5808  0.1275  0.3086
   89MOL    C2028356   1.586   2.414   0.909  0.3062 -0.5397  0.0107
   89MOL    C2128357   1.599   2.470   0.778  0.1370  0.9037 -0.0163
   89MOL    C2228358   1.583   2.607   0.758 -0.8305  0.2047  0.7090
   89MOL   Cl2328359   1.617   2.671   0.606  0.1750  0.1437  0.0833
   89MOL    C2428360   1.520   2.686   0.857  0.1819  0.0991 -0.0164
   89MOL    C2528361   1.493   2.633   0.986  0.4140  0.2156  0.5415
   89MOL    C2628362   1.383   2.341   1.154  0.0879  0.0718  0.2263
   89MOL    H2728363   1.494   2.517   1.222 -0.8883 -1.3896  0.4997
   89MOL    H2828364   1.624   2.313   0.916  3.0408  0.1734 -3.4552
   89MOL    H2928365   1.642   2.419   0.693 -0.0054 -1.7066  1.4043
   89MOL    H3028366   1.490   2.788   0.845 -1.2924 -0.4112 -0.7231
   89MOL    H3128367   1.444   2.685   1.067  0.0485  0.2507  0.3002
   89MOL    H3228368   1.295   2.403   1.142 -1.3249 -1.7732  0.7941
   89MOL    H3328369   1.377   2.277   1.066 -3.4608 -1.0147  1.1665
   89MOL    C3428370   1.369   2.253   1.282 -0.0790  0.2177 -0.1259
   89MOL    C3528371   1.387   2.323   1.416  0.1635  0.3954 -0.3451
   89MOL    C3628372   1.308   2.437   1.441  0.3948  0.2695 -0.2417
   89MOL    C3728373   1.312   2.502   1.567  0.0537 -0.8945  0.4050
   89MOL    C3828374   1.406   2.461   1.665 -0.5507  0.1205  0.1902
   89MOL   Cl3928375   1.424   2.536   1.818 -0.0092  0.5368 -0.0373
   89MOL    C4028376   1.492   2.353   1.631  0.7402  0.0454 -0.3419
   89MOL    C4128377   1.481   2.283   1.511  0.4065 -0.8197  0.0044
   89MOL    C4228378   1.232   2.172   1.276 -0.3206 -0.0358 -0.3536
   89MOL    H4328379   1.445   2.175   1.276 -0.5773 -0.3255  0.5943
   89MOL    H4428380   1.244   2.473   1.361  0.6216 -1.0611 -1.0282
   89MOL    H4528381   1.261   2.595   1.589  0.9267 -0.7756  1.9796
   89MOL    H4628382   1.564   2.326   1.707 -1.6923  1.4416  2.5434
   89MOL    H4728383   1.544   2.197   1.496 -1.2351 -1.9475 -0.5505
   89MOL    H4828384   1.148   2.240   1.285  0.8315  1.0065  3.4161
   89MOL    H4928385   1.226   2.128   1.177 -0.1634  1.0115 -0.8388
   89MOL    C5028386   1.208   2.072   1.392  0.6014  0.5124 -0.4055
   89MOL    C5128387   1.066   2.010   1.376 -0.2693 -0.1955 -0.8481
   89MOL    C5228388   0.967   2.047   1.470  0.4219 -0.2897 -0.0673
   89MOL    C5328389   0.839   1.991   1.453  0.5207 -0.4757  0.1889
   89MOL    C5428390   0.810   1.898   1.346 -0.0095  0.0016 -0.0971
   89MOL   Cl5528391   0.651   1.834   1.331 -0.2254  0.0274  0.0776
   89MOL    C5628392   0.906   1.869   1.253 -0.6319  0.4753  0.1931
   89MOL    C5728393   1.037   1.917   1.272  0.6735 -0.3706 -0.2724
   89MOL    C5828394   1.317   1.969   1.422  0.1683 -0.1898 -0.1745
   89MOL    H5928395   1.217   2.139   1.477 -0.7592  2.0108 -1.4027
   89MOL    H6028396   0.979   2.110   1.558 -0.8959 -0.7397  0.4385
   89MOL    H6128397   0.754   2.014   1.515  1.0664  0.6459  0.5348
   89MOL    H6228398   0.888   1.804   1.169 -0.5774 -1.2963  1.5261
   89MOL    H6328399   1.113   1.895   1.200  0.6266 -1.0593 -0.1173
   89MOL    H6428400   1.298   1.904   1.336 -0.7212 -0.0301 -0.1021
   89MOL    H6528401   1.418   1.996   1.390  0.7352 -2.3942 -0.3784
   89MOL    C6628402   1.311   1.911   1.562 -0.1195 -0.7187 -0.4619
   89MOL    C6728403   1.410   1.792   1.564 -0.2486 -0.0401  0.1423
   89MOL    C6828404   1.363   1.662   1.538  0.0935  0.2386 -0.4358
   89MOL    C6928405   1.458   1.558   1.520  0.3119 -0.2802 -0.3487
   89MOL    C7028406   1.594   1.588   1.535  0.0027  0.7067 -0.4549
   89MOL   Cl7128407   1.706   1.460   1.503 -0.4182 -0.1345  0.0397
   89MOL    C7228408   1.640   1.714   1.563  0.4539 -0.2046 -0.0569
   89MOL    C7328409   1.548   1.818   1.570  0.1926 -0.5121 -0.4448
   89MOL    C7428410   1.320   2.006   1.681  0.0243 -0.9855  0.0669
   89MOL    H7528411   1.214   1.864   1.576 -0.3591  0.1555  0.8495
   89MOL    H7628412   1.259   1.637   1.532 -0.2585  1.8632 -1.3782
   89MOL    H7728413   1.436   1.452   1.513 -1.3970  0.0267  0.3327
   89MOL    H7828414   1.746   1.732   1.567  0.4000 -0.2348  1.9521
   89MOL    H7928415   1.581   1.920   1.583  0.7395 -0.6263 -0.9433
   89MOL    H8028416   1.398   2.079   1.660  0.1664 -0.4480  2.4107
   89MOL    H8128417   1.221   2.051   1.693  0.1022 -0.7989  0.0034
   89MOL    C8228418   1.358   1.939   1.807  0.3547  0.2124  0.0735
   89MOL    C8328419   1.379   2.052   1.912 -0.4664  0.1999  0.1162
   89MOL    C8428420   1.507   2.061   1.965  0.3149  0.5860 -0.0090
   89MOL    C8528421   1.531   2.153   2.068 -0.7366  0.3462 -0.4670
   89MOL    C8628422   1.429   2.236   2.113 -0.7419 -0.4024  0.3001
   89MOL   Cl8728423   1.461   2.330   2.250  0.0207 -0.3751  0.1040
   89MOL    C8828424   1.299   2.224   2.057 -0.6080 -1.2046 -0.1916
   89MOL    C8928425   1.275   2.134   1.953 -0.3144 -0.5718 -0.0611
   89MOL    C9028426   1.267   1.825   1.864  0.6761 -0.4220  0.1392
   89MOL    H9128427   1.455   1.894   1.787 -0.1820 -1.4954  1.2274
   89MOL    H9228428   1.586   1.993   1.936 -0.2447  0.0208 -0.2254
   89MOL    H9328429   1.626   2.142   2.117  0.6724  0.5177 -3.0542
   89MOL    H9428430   1.227   2.301   2.080  1.7138  1.4764 -1.4745
   89MOL    H9528431   1.175   2.124   1.915 -0.3507 -0.8204  0.0968
   89MOL    H9628432   1.180   1.879   1.902  0.8359  1.5480 -2.1568
   89MOL    H9728433   1.232   1.767   1.779 -0.2968  1.0826 -0.5075
   89MOL    C9828434   1.326   1.740   1.979 -0.7563  0.2753 -1.1661
   89MOL    C9928435   1.216   1.680   2.067 -0.3736  0.1830  0.2899
   89MOL   C10028436   1.114   1.595   2.014 -0.0569  0.3392  0.5156
   89MOL   C10128437   1.018   1.533   2.101 -0.1919  0.2114 -0.1939
   89MOL   C10228438   1.030   1.549   2.238  0.3465  0.6191 -0.0926
   89MOL  Cl10328439   0.913   1.476   2.347  0.3414 -0.1743 -0.0493
   89MOL   C10428440   1.131   1.628   2.294  0.2057  0.7396 -0.2000
   89MOL   C10528441   1.228   1.691   2.208 -0.2688  0.0345  0.3276
   89MOL   C10628442   1.406   1.630   1.923  0.1403 -0.3217  0.0611
   89MOL   H10728443   1.387   1.812   2.033  0.6475  0.3395 -2.8026
   89MOL   H10828444   1.105   1.594   1.907  1.0402 -0.7795  0.4139
   89MOL   H10928445   0.933   1.483   2.057 -1.0024  0.7428  0.7377
   89MOL   H11028446   1.142   1.634   2.401  0.3888  0.1919 -0.1917
   89MOL   H11128447   1.317   1.741   2.247  0.2063 -0.9222  0.4803
   89MOL   H11228448   1.332   1.578   1.862  0.3108 -0.2849 -0.1766
   89MOL   H11328449   1.487   1.671   1.862 -0.0562 -0.0560 -0.0200
   89MOL   C11428450   1.478   1.529   2.016 -0.4002  0.1133 -0.3385
   89MOL   C11528451   1.473   1.383   1.957  0.2100  0.2141  0.0831
   89MOL   C11628452   1.441   1.278   2.035 -0.5361  0.0821 -0.0711
   89MOL   C11728453   1.425   1.151   1.979 -0.0960  0.2091 -1.0151
   89MOL   C11828454   1.444   1.128   1.840 -0.6790  0.7747  0.0844
   89MOL  Cl11928455   1.398   0.976   1.770 -0.3517 -0.6013 -0.0739
   89MOL   C12028456   1.481   1.231   1.757  0.0731 -0.1844 -0.1066
   89MOL   C12128457   1.501   1.361   1.818  1.0412  0.7135 -0.5000
   89MOL   C12228458   1.611   1.571   2.076 -0.6124  0.7536  0.0339
   89MOL   H12328459   1.410   1.526   2.101  0.1490  2.2146  0.1888
   89MOL   H12428460   1.418   1.289   2.140  1.9788  0.3364  0.4814
   89MOL   H12528461   1.391   1.073   2.044 -0.3676  0.4389 -0.8802
   89MOL   H12628462   1.495   1.206   1.653  2.8352  0.4258  0.0850
   89MOL   H12728463   1.512   1.445   1.752  0.6967 -0.0697 -1.5709
   89MOL   H12828464   1.621   1.679   2.070  3.4646  0.4721  0.6059
   89MOL   H12928465   1.607   1.533   2.178  0.6485 -0.5539 -0.3819
   89MOL   C13028466   1.742   1.514   2.014  1.3060  0.6117 -0.3145
   89MOL   C13128467   1.847   1.627   1.993  0.6262  0.1405 -0.4885
   89MOL   C13228468   1.961   1.631   2.074 -0.8304  0.2430  0.0692
   89MOL   C13328469   2.050   1.738   2.061 -0.1572  0.1357 -0.3339
   89MOL   C13428470   2.033   1.835   1.958 -0.0350  0.9242  0.4384
   89MOL  Cl13528471   2.132   1.971   1.936  0.2838  0.4383  0.3261
   89MOL   C13628472   1.917   1.831   1.877 -0.7960 -0.0101 -0.6399
   89MOL   C13728473   1.825   1.726   1.894  0.6401 -0.1546 -0.0203
   89MOL   C13828474   1.799   1.380   2.076  0.0975 -0.1904  0.2259
   89MOL   H13928475   1.718   1.487   1.911 -0.7343 -0.9924  0.5394
   89MOL   H14028476   1.972   1.572   2.164 -1.7298  1.2752  0.8679
   89MOL   H14128477   2.139   1.763   2.117  0.2112 -0.8100 -0.4878
   89MOL   H14228478   1.897   1.914   1.811  0.8225  2.4401  1.8378
   89MOL   H14328479   1.738   1.712   1.831  0.4767 -1.9101  0.5853
   89MOL   H14428480   1.840   1.415   2.170 -2.0133 -0.6477  1.3376
   89MOL   H14528481   1.713   1.313   2.085 -0.5644  0.3989 -1.5381
   89MOL   C14628482   1.912   1.300   2.006  0.7228 -0.1560  0.1241
   89MOL   C14728483   1.973   1.194   2.094  0.2152  0.5618  0.2707
   89MOL   C14828484   1.892   1.090   2.142  0.4028  0.2774 -0.8361
   89MOL   C14928485   1.950   1.002   2.234  0.3743  0.5901  1.0504
   89MOL   C15028486   2.086   1.013   2.276  0.2324 -0.2653  0.4249
   89MOL  Cl15128487   2.145   0.896   2.383 -0.2516  0.1188  0.2172
   89MOL   C15228488   2.165   1.120   2.230  0.2752 -0.1678  0.0437
   89MOL   C15328489   2.107   1.206   2.137  0.5848 -0.0682 -0.4304
   89MOL   C15428490   1.848   1.223   1.880  0.3482 -0.3122 -0.9966
   89MOL   H15528491   1.991   1.367   1.970  0.3933  1.0716  1.6318
   89MOL   H15628492   1.790   1.072   2.112 -0.0676 -0.0599  0.8743
   89MOL   H15728493   1.899   0.918   2.279  1.6657 -2.1735 -2.4593
   89MOL   H15828494   2.265   1.132   2.270 -0.3423 -0.7004  1.7829
   89MOL   H15928495   2.168   1.286   2.098  2.9214 -1.1678  0.8668
   89MOL   H16028496   1.773   1.152   1.914 -0.9830  1.7570  0.5474
   89MOL   H16128497   1.790   1.288   1.814 -0.0152  0.6799  0.2766
   89MOL   C16228498   1.944   1.136   1.795  0.1342 -0.0042  0.1021
   89MOL   C16328499   1.855   1.052   1.700 -0.1322 -0.7264  0.2200
   89MOL   C16428500   1.810   0.921   1.732 -0.2970 -0.4911 -0.4043
   89MOL   C16528501   1.741   0.851   1.638 -0.2035 -0.6906  0.5887
   89MOL   C16628502   1.694   0.901   1.516 -0.3937 -0.1065  0.0575
   89MOL  Cl16728503   1.600   0.806   1.409 -0.3228 -0.1035 -0.1769
   89MOL   C16828504   1.740   1.033   1.484  0.7863  1.0781  0.4843
   89MOL   C16928505   1.817   1.107   1.578 -0.1856 -0.6479  0.6235
   89MOL   C17028506   2.067   1.217   1.726 -0.1074 -0.4420 -0.7476
   89MOL   H17128507   1.992   1.067   1.865 -0.4505  0.0818  0.5911
   89MOL   H17228508   1.839   0.873   1.824  0.4000 -0.1296 -0.4254
   89MOL   H17328509   1.717   0.751   1.673 -2.4099  0.0079  1.1575
   89MOL   H17428510   1.694   1.082   1.399 -2.3524  1.2205  2.2015
   89MOL   H17528511   1.846   1.209   1.559 -2.1905 -0.2624 -0.4268
   89MOL   H17628512   2.026   1.306   1.679 -3.0634 -1.2272  0.2666
   89MOL   H17728513   2.131   1.248   1.809 -0.4679  0.6024 -0.8521
   89MOL   C17828514   2.162   1.137   1.633  0.8653  0.5444  0.2376
   89MOL   C17928515   2.252   1.230   1.551  0.4880  0.3353 -0.3871
   89MOL   C18028516   2.230   1.238   1.409 -0.3830 -0.0694  0.3890
   89MOL   C18128517   2.324   1.310   1.334  0.2447 -0.0262 -0.2042
   89MOL   C18228518   2.420   1.398   1.398  0.2971 -0.5581  0.5783
   89MOL  Cl18328519   2.524   1.497   1.305  0.0333  0.3935 -0.0252
   89MOL   C18428520   2.430   1.391   1.538  0.0361 -0.1609  0.4852
   89MOL   C18528521   2.342   1.311   1.618  0.1246  1.0286 -0.4131
   89MOL   C18628522   2.248   1.022   1.698  0.1349 -0.7179 -0.2848
   89MOL   H18728523   2.092   1.099   1.558  0.1258 -1.0788  1.7112
   89MOL   H18828524   2.157   1.175   1.360  1.9586 -1.3065 -1.6053
   89MOL   H18928525   2.313   1.313   1.227 -0.3676 -0.9118 -0.1653
   89MOL   H19028526   2.507   1.451   1.586 -0.9128  1.3342  0.1903
   89MOL   H19128527   2.342   1.314   1.726 -0.6312 -0.7407 -0.3369
   89MOL   H19228528   2.334   1.019   1.632 -0.4258 -1.7996 -0.9753
   89MOL   H19328529   2.297   1.047   1.792  0.7666  0.4323 -0.9140
   89MOL   C19428530   2.198   0.873   1.692 -0.3586  0.5236  0.1049
   89MOL   C19528531   2.154   0.834   1.553  0.0136 -0.0403 -0.1170
   89MOL   C19628532   2.207   0.886   1.435  1.0449 -0.2625  0.3269
   89MOL   C19728533   2.160   0.839   1.314 -0.0253 -0.7032 -0.4075
   89MOL   C19828534   2.052   0.754   1.304 -0.1711  0.3346 -0.1178
   89MOL  Cl19928535   1.976   0.729   1.158 -0.4151 -0.5747 -0.1152
   89MOL   C20028536   1.996   0.703   1.421 -0.1065 -0.3740 -0.4431
   89MOL   C20128537   2.043   0.748   1.548 -0.5192  0.0971 -0.1779
   89MOL   C20228538   2.305   0.768   1.742 -0.3389 -0.0572  0.0451
   89MOL   H20328539   2.116   0.861   1.762 -0.9711  2.2699 -0.2962
   89MOL   H20428540   2.289   0.956   1.423 -0.2990  1.4388  0.8933
   89MOL   H20528541   2.220   0.873   1.231  0.1534  1.3390  0.5229
   89MOL   H20628542   1.903   0.648   1.421 -0.0984 -0.3923 -0.0960
   89MOL   H20728543   1.991   0.725   1.640 -1.3814  0.2296 -0.6163
   89MOL   H20828544   2.298   0.682   1.675 -0.4085  0.0424 -0.0751
   89MOL   H20928545   2.400   0.810   1.707 -0.7132 -0.1175 -1.0634
   89MOL   C21028546   2.299   0.740   1.888 -0.3201  0.3565  0.2778
   89MOL   C21128547   2.180   0.664   1.935 -0.1797 -0.0814  0.3165
   89MOL   C21228548   2.116   0.702   2.052  0.6435  0.2164 -0.5075
   89MOL   C21328549   1.994   0.638   2.096 -0.5891  0.2576 -0.5931
   89MOL   C21428550   1.942   0.543   2.012  0.2196  0.2646  0.1850
   89MOL  Cl21528551   1.793   0.468   2.056  0.2846 -0.1011 -0.3422
   89MOL   C21628552   2.009   0.491   1.902  0.2496  0.1856 -0.2928
   89MOL   C21728553   2.134   0.551   1.865 -0.1145 -0.1210 -0.7216
   89MOL   C21828554   2.424   0.674   1.949 -0.0079 -0.3404  0.8811
   89MOL   H21928555   2.306   0.844   1.920  3.2327  0.3163 -0.1063
   89MOL   H22028556   2.149   0.794   2.097  0.9580  0.1229 -0.5442
   89MOL   H22128557   1.938   0.673   2.181  0.1445  0.5963 -0.2496
   89MOL   H22228558   1.966   0.412   1.841  1.9087 -0.0463 -1.1897
   89MOL   H22328559   2.184   0.521   1.774  0.2976 -0.9296 -0.2322
   89MOL   H22428560   2.401   0.627   2.044  2.3653 -1.1506  1.0796
   89MOL   H22528561   2.446   0.589   1.885  2.9060  1.0256 -0.0230
   89MOL   C22628562   2.557   0.751   1.951 -0.4204  0.1951 -0.8127
   89MOL   C22728563   2.553   0.881   2.023 -0.5556 -0.0213 -0.8481
   89MOL   C22828564   2.512   0.891   2.161  0.8320 -0.2398 -0.0830
   89MOL   C22928565   2.517   1.016   2.224  0.4656  0.6576  0.2337
   89MOL   C23028566   2.548   1.132   2.155  0.0210 -0.1539  0.2991
   89MOL  Cl23128567   2.528   1.280   2.247  0.2901  0.3038 -0.4261
   89MOL   C23228568   2.586   1.127   2.019 -0.7068 -0.5901 -0.0803
   89MOL   C23328569   2.587   1.005   1.950 -0.7113  0.2905 -0.0723
   89MOL   C23428570   2.667   0.664   2.020  0.8809  0.6874 -0.2156
   89MOL   H23528571   2.585   0.775   1.848 -1.9505 -1.3553 -1.6055
   89MOL   H23628572   2.475   0.802   2.211  1.1925  0.2977  1.1715
   89MOL   H23728573   2.487   1.017   2.327  1.2497 -1.3621  0.5007
   89MOL   H23828574   2.606   1.224   1.975  0.6240  0.3458  2.4438
   89MOL   H23928575   2.600   1.002   1.843 -1.2764  0.4124 -0.1469
   89MOL   H24028576   2.675   0.702   2.121  0.5406  2.9410 -0.9991
   89MOL   H24128577   2.631   0.562   2.037  0.8506  0.7834  0.2875
   89MOL   C24228578   2.804   0.661   1.950 -0.1506  0.3921 -0.5897
   89MOL   C24328579   2.874   0.796   1.953  0.7724 -0.0914 -0.3038
   89MOL   C24428580   2.916   0.851   1.825  0.0952  0.3645 -0.0973
   89MOL   C24528581   3.005   0.960   1.822  0.0322 -0.9410  0.1855
   89MOL   C24628582   3.046   1.014   1.941  0.6493 -1.4424 -0.0873
   89MOL  Cl24728583   3.178   1.125   1.939  0.4958 -0.1659 -0.0018
   89MOL   C24828584   3.001   0.965   2.067 -0.1264 -0.2085 -0.4090
   89MOL   C24928585   2.905   0.861   2.070 -0.5212  0.1693 -0.1468
   89MOL   C25028586   2.892   0.553   2.020  0.1218  0.0506 -0.4485
   89MOL   H25128587   2.788   0.631   1.846 -0.3025  0.6404 -0.6392
   89MOL   H25228588   2.891   0.791   1.739  2.2499 -2.2478  1.0317
   89MOL   H25328589   3.039   1.005   1.730  0.9069 -0.7125  0.6100
   89MOL   H25428590   3.034   1.007   2.161  0.9092  1.4094 -1.4619
   89MOL   H25528591   2.857   0.825   2.160 -2.3596 -3.9435 -2.6353
   89MOL   H25628592   2.913   0.587   2.122 -1.9669 -0.3851  0.1629
   89MOL   H25728593   2.829   0.465   2.031  0.5458 -0.2100 -0.1080
   89MOL   C25828594   3.022   0.512   1.945  0.2490  0.1563 -0.5029
   89MOL   C25928595   3.113   0.414   2.017  0.6439  1.1704  0.1754
   89MOL   C26028596   3.051   0.296   2.066 -0.4872  0.4506  0.1943
   89MOL   C26128597   3.132   0.206   2.146  0.6966 -0.0099 -0.0775
   89MOL   C26228598   3.267   0.240   2.173  0.3816  0.0317 -0.5836
   89MOL  Cl26328599   3.360   0.145   2.283 -0.2154 -0.1236 -0.2268
   89MOL   C26428600   3.330   0.348   2.121 -0.1009 -0.9874  0.4357
   89MOL   C26528601   3.252   0.438   2.042  0.2237 -0.5608  0.1013
   89MOL   C26628602   3.009   0.466   1.803 -0.3019 -0.3208  0.4622
   89MOL   H26728603   3.073   0.609   1.945 -3.2182  2.0807 -1.8977
   89MOL   H26828604   2.946   0.281   2.046 -0.0849 -1.7553 -0.4461
   89MOL   H26928605   3.097   0.112   2.187  3.2907 -0.7407  0.5913
   89MOL   H27028606   3.436   0.366   2.133 -0.1729  0.9365 -1.5445
   89MOL   H27128607   3.302   0.520   1.992 -0.9307  0.6111  0.8521
   89MOL   H27228608   2.973   0.365   1.821  0.0535 -0.8237 -1.5510
   89MOL   H27328609   2.927   0.507   1.744 -0.5342  1.7734  2.1706
   89MOL   C27428610   3.131   0.459   1.718  0.8147  0.7197 -0.8931
   89MOL   C27528611   3.104   0.364   1.601 -0.8458 -0.2994  0.6422
   89MOL   C27628612   3.128   0.229   1.616 -0.0531  0.2747  0.3162
   89MOL   C27728613   3.095   0.140   1.516  0.4064  0.4520 -0.3612
   89MOL   C27828614   3.014   0.182   1.413  0.2810  0.0620 -0.1376
   89MOL  Cl27928615   2.942   0.069   1.307  0.3270 -0.2077  0.2108
   89MOL   C28028616   2.999   0.317   1.384 -0.8754  0.4897  0.5068
   89MOL   C28128617   3.046   0.414   1.480  0.1258 -0.2288 -0.6819
   89MOL   C28228618   3.195   0.597   1.683  0.6190 -0.1065  0.6924
   89MOL   H28328619   3.209   0.399   1.767 -1.8161 -0.5533  1.9026
   89MOL   H28428620   3.173   0.185   1.704 -0.9863 -1.7436 -0.1664
   89MOL   H28528621   3.105   0.033   1.528  1.0327  0.5933  0.3799
   89MOL   H28628622   2.956   0.347   1.290  0.5233  1.6876  0.2375
   89MOL   H28728623   3.041   0.520   1.462  0.6362  0.1536  1.3312
   89MOL   H28828624   3.129   0.651   1.615  0.6514 -2.8491 -1.6260
   89MOL   H28928625   3.207   0.656   1.773  1.3531  3.8328 -1.8435
   89MOL   C29028626   3.330   0.597   1.607  0.2032 -0.4621 -0.1540
   89MOL   C29128627   3.357   0.736   1.547  0.2649 -0.1881  0.9258
   89MOL   C29228628   3.286   0.850   1.587 -0.1389  0.5414 -0.3883
   89MOL   C29328629   3.292   0.973   1.518 -0.5425  0.0673  0.2399
   89MOL   C29428630   3.379   0.976   1.410 -0.5419 -0.1457 -1.1168
   89MOL  Cl29528631   3.383   1.120   1.316  0.1650  0.0005  0.1034
   89MOL   C29628632   3.464   0.872   1.370  0.1603 -0.4422 -0.1876
   89MOL   C29728633   3.454   0.751   1.438  0.8253 -0.1100 -0.2701
   89MOL   C29828634   3.446   0.547   1.689 -1.0871  0.6106 -0.1055
   89MOL   H29928635   3.320   0.525   1.525 -0.7836 -0.2247 -0.2450
   89MOL   H30028636   3.211   0.853   1.664  0.7990  2.6328  0.4818
   89MOL   H30128637   3.236   1.060   1.550 -1.0896 -0.0336 -0.4333
   89MOL   H30228638   3.539   0.879   1.293 -0.1370 -3.0946 -0.7583
   89MOL   H30328639   3.517   0.669   1.408  0.2147 -1.0659  0.9887
   89MOL   H30428640   3.488   0.627   1.748 -0.1359 -0.9107  1.3282
   89MOL   H30528641   3.416   0.473   1.763  0.8649  0.4347  0.5551
   89MOL   C30628642   3.565   0.474   1.620  0.0659 -0.2476 -0.1358
   89MOL   C30728643   3.663   0.427   1.732 -0.0683  0.1975  0.1223
   89MOL   C30828644   3.793   0.494   1.745 -0.2766  0.5216 -0.5875
   89MOL   C30928645   3.879   0.451   1.844 -0.0978  0.0423 -0.1867
   89MOL   C31028646   3.848   0.358   1.942  0.1897 -1.0877  0.1886
   89MOL  Cl31128647   3.963   0.300   2.062  0.0832  0.3461  0.3975
   89MOL   C31228648   3.722   0.295   1.933  0.6265 -0.5235  0.0674
   89MOL   C31328649   3.630   0.330   1.829 -0.4403 -0.4721  0.1254
   89MOL   C31428650   3.521   0.353   1.531 -0.2929 -0.7820  0.6832
   89MOL   H31528651   3.621   0.544   1.558  0.1483  0.3658  0.6163
   89MOL   H31628652   3.825   0.569   1.674 -1.5389  1.4610 -0.1788
   89MOL   H31728653   3.983   0.479   1.850  0.1905 -1.2998  1.7001
   89MOL   H31828654   3.709   0.206   1.992  0.5433 -1.2417 -1.0446
   89MOL   H31928655   3.532   0.286   1.815 -0.3527 -0.2772 -1.1028
   89MOL   H32028656   3.462   0.379   1.443  2.1083 -0.9685 -1.0303
   89MOL   H32128657   3.614   0.309   1.495 -1.5440 -1.9705 -1.2031
   89MOL   H32228658   3.470   0.276   1.590  0.2726 -1.7679 -0.0978
   90MOL     C128659   6.022   6.129   5.843 -0.0867 -0.0960 -0.7502
   90MOL     C228660   5.908   6.185   5.921  0.4429 -0.3431 -0.0939
   90MOL     C328661   5.779   6.191   5.863  0.4313  0.2095 -0.1385
   90MOL     C428662   5.679   6.255   5.935  0.5300  0.4734 -0.0938
   90MOL     C528663   5.706   6.313   6.061  1.0856 -0.1122 -0.2326
   90MOL    Cl628664   5.583   6.403   6.147  0.2559  0.0908  0.1009
   90MOL     C728665   5.833   6.304   6.117 -0.6145  0.3832  0.1279
   90MOL     C828666   5.931   6.240   6.049 -0.4104 -0.3863  0.2347
   90MOL     C928667   6.047   6.192   5.701 -0.1440 -0.1053  0.6523
   90MOL    H1028668   6.017   6.020   5.833  1.3171 -0.2172 -0.2961
   90MOL    H1128669   5.763   6.143   5.767 -0.3777 -0.3059  0.2565
   90MOL    H1228670   5.577   6.265   5.900  0.5170 -0.8016 -0.4560
   90MOL    H1328671   5.837   6.346   6.217  0.2047  0.0020  0.2559
   90MOL    H1428672   6.032   6.246   6.088 -0.2827 -0.4550 -0.0736
   90MOL    H1528673   6.133   6.138   5.661  0.5593  0.8539  0.8581
   90MOL    H1628674   5.956   6.165   5.649 -0.1829  0.0838  0.6235
   90MOL    H1728675   6.108   6.145   5.908 -2.0826  0.4009  1.8135
   90MOL    C1828676   6.059   6.345   5.695 -0.3771  0.2235  0.2114
   90MOL    C1928677   6.202   6.394   5.722  0.4095  0.1909 -0.2050
   90MOL    C2028678   6.313   6.337   5.654  0.5708 -0.7843  0.0895
   90MOL    C2128679   6.445   6.376   5.681  0.7910 -0.0594  0.2284
   90MOL    C2228680   6.466   6.482   5.774 -0.6392  0.0470 -0.2751
   90MOL   Cl2328681   6.628   6.532   5.815  0.4290  0.1071 -0.0734
   90MOL    C2428682   6.354   6.542   5.830 -0.7384 -0.0344 -0.0785
   90MOL    C2528683   6.221   6.498   5.812  0.2074 -0.3254 -0.5396
   90MOL    C2628684   6.005   6.412   5.561  0.3891 -0.8471  0.8622
   90MOL    H2728685   5.996   6.381   5.775 -1.5047 -1.5559  0.1450
   90MOL    H2828686   6.305   6.251   5.588  1.7811 -1.2654  0.5617
   90MOL    H2928687   6.528   6.328   5.631 -0.5752 -1.4045 -0.8019
   90MOL    H3028688   6.379   6.621   5.899  1.4692 -1.2030  0.4994
   90MOL    H3128689   6.130   6.535   5.859 -0.7582 -1.4365 -1.5075
   90MOL    H3228690   6.077   6.491   5.539 -0.0251 -1.3268 -2.3682
   90MOL    H3328691   6.016   6.338   5.481  0.0100  0.1423 -0.1072
   90MOL    C3428692   5.865   6.459   5.564 -0.7092  0.0427  0.6713
   90MOL    C3528693   5.867   6.589   5.646  0.8384 -0.0535  0.1655
   90MOL    C3628694   5.928   6.703   5.600 -0.1125  0.1427 -0.1642
   90MOL    C3728695   5.907   6.824   5.666 -0.0740  0.1804 -0.1743
   90MOL    C3828696   5.824   6.834   5.783 -0.1934 -0.2790 -0.7350
   90MOL   Cl3928697   5.808   6.987   5.861  0.2836 -0.3715 -0.1336
   90MOL    C4028698   5.756   6.722   5.824 -0.2116  0.3095  0.7591
   90MOL    C4128699   5.782   6.602   5.757 -0.2782  0.4522  0.3771
   90MOL    C4228700   5.806   6.481   5.423 -0.3077  0.1024 -0.9110
   90MOL    H4328701   5.809   6.379   5.613 -0.1718 -1.5593 -1.2290
   90MOL    H4428702   5.985   6.706   5.508 -0.7370 -0.8585 -0.5984
   90MOL    H4528703   5.974   6.902   5.632 -0.0854  0.5344  0.6126
   90MOL    H4628704   5.683   6.727   5.903  0.6389 -3.8879  1.9149
   90MOL    H4728705   5.721   6.517   5.784  0.6952 -0.8875 -1.4463
   90MOL    H4828706   5.786   6.588   5.413  0.3364  0.0660 -2.6423
   90MOL    H4928707   5.886   6.479   5.349  2.0725  1.9521  1.5233
   90MOL    C5028708   5.687   6.399   5.380 -0.0197  0.6177 -0.2840
   90MOL    C5128709   5.572   6.414   5.469  0.1449  0.2928 -0.7768
   90MOL    C5228710   5.517   6.305   5.541  0.7439  0.0911  0.3489
   90MOL    C5328711   5.426   6.328   5.648 -0.3135  0.1834 -0.3175
   90MOL    C5428712   5.383   6.460   5.677  0.1742  0.7822  0.5805
   90MOL   Cl5528713   5.273   6.492   5.803  0.3415  0.2924 -0.2838
   90MOL    C5628714   5.431   6.566   5.601  1.5471  1.0092 -0.0350
   90MOL    C5728715   5.519   6.540   5.491  0.3616 -0.9630  0.2218
   90MOL    C5828716   5.639   6.450   5.244  0.2070 -0.9004  0.4724
   90MOL    H5928717   5.710   6.292   5.382  0.1642  0.6864  1.7619
   90MOL    H6028718   5.552   6.204   5.525  1.3461  0.6411 -1.9974
   90MOL    H6128719   5.385   6.257   5.718 -1.0202  0.5641 -0.3472
   90MOL    H6228720   5.386   6.663   5.618 -0.3800  0.0888  0.2517
   90MOL    H6328721   5.552   6.622   5.430 -0.3407 -0.0194  1.1048
   90MOL    H6428722   5.550   6.388   5.227  0.4871 -1.6087  1.5569
   90MOL    H6528723   5.621   6.558   5.242 -0.9566 -1.0887 -0.5254
   90MOL    C6628724   5.748   6.429   5.138  0.1211 -0.3575  0.3095
   90MOL    C6728725   5.809   6.292   5.146  0.3143 -0.1482  0.9018
   90MOL    C6828726   5.946   6.274   5.164 -0.3448 -1.1449  0.5386
   90MOL    C6928727   5.999   6.144   5.180  0.7060  0.5454  1.2702
   90MOL    C7028728   5.918   6.031   5.173 -0.2823 -0.1829 -0.6356
   90MOL   Cl7128729   5.979   5.873   5.200 -0.0149  0.3343  0.0273
   90MOL    C7228730   5.780   6.046   5.147  0.6598 -0.4319  0.3568
   90MOL    C7328731   5.729   6.178   5.129  0.5728  0.5896 -0.2519
   90MOL    C7428732   5.689   6.460   5.003 -0.2587 -0.1150  0.5268
   90MOL    H7528733   5.825   6.503   5.160  1.0732 -1.2387  0.0026
   90MOL    H7628734   6.020   6.352   5.156 -0.2165 -1.3582 -0.3818
   90MOL    H7728735   6.101   6.113   5.199  0.8794  0.3464  0.0724
   90MOL    H7828736   5.718   5.959   5.131  2.4379 -1.4255 -1.4642
   90MOL    H7928737   5.628   6.196   5.096  0.2171  0.0511  0.5361
   90MOL    H8028738   5.612   6.388   4.977  2.0020 -2.2466 -0.4239
   90MOL    H8128739   5.625   6.549   5.001  0.2220  0.2151 -0.6887
   90MOL    C8228740   5.792   6.489   4.893  0.5853  0.6170 -0.0721
   90MOL    C8328741   5.730   6.492   4.757  0.0339 -0.4051  0.3429
   90MOL    C8428742   5.804   6.444   4.648 -0.4813 -0.1170 -0.5028
   90MOL    C8528743   5.735   6.438   4.525  0.0811  0.4166  0.1517
   90MOL    C8628744   5.603   6.479   4.508 -0.6471 -0.7993  0.1246
   90MOL   Cl8728745   5.530   6.485   4.360  0.5377 -0.0415 -0.4090
   90MOL    C8828746   5.537   6.543   4.617  0.3468 -0.1188  0.5942
   90MOL    C8928747   5.602   6.547   4.741  1.2951  0.7864  0.8032
   90MOL    C9028748   5.891   6.608   4.920 -0.3797 -0.8937  0.0369
   90MOL    H9128749   5.855   6.400   4.893  0.7255  0.7057  0.8153
   90MOL    H9228750   5.906   6.407   4.645 -0.4469 -0.2091  1.5039
   90MOL    H9328751   5.795   6.411   4.440 -1.4172 -0.7497 -0.5524
   90MOL    H9428752   5.439   6.582   4.595  0.7754  0.2261 -0.8263
   90MOL    H9528753   5.546   6.607   4.811 -1.7585 -1.4111  0.3343
   90MOL    H9628754   5.949   6.588   5.010  0.3609 -1.4018 -0.5452
   90MOL    H9728755   5.966   6.607   4.841  0.9267  0.2052  1.2443
   90MOL    C9828756   5.833   6.755   4.918 -0.3008  0.1642 -0.4784
   90MOL    C9928757   5.753   6.789   5.049 -0.0144  0.2193  0.1174
   90MOL   C10028758   5.614   6.807   5.034  0.1849  0.0307  0.4400
   90MOL   C10128759   5.533   6.837   5.142  0.1793  0.3195 -0.2823
   90MOL   C10228760   5.587   6.848   5.273  0.0973  0.5546 -0.1298
   90MOL  Cl10328761   5.484   6.908   5.402 -0.2708  0.1551 -0.3412
   90MOL   C10428762   5.724   6.826   5.290  0.0069  0.3592 -0.3860
   90MOL   C10528763   5.810   6.790   5.178  0.0538 -0.5877 -1.1400
   90MOL   C10628764   5.952   6.853   4.886  0.6948 -0.0418  0.0913
   90MOL   H10728765   5.771   6.751   4.828  0.2688  3.0766 -1.0618
   90MOL   H10828766   5.567   6.802   4.936 -1.6803  0.0840  1.2983
   90MOL   H10928767   5.429   6.853   5.120  0.2363  0.1252 -0.7029
   90MOL   H11028768   5.760   6.842   5.390 -1.9550 -0.2688  0.4389
   90MOL   H11128769   5.910   6.758   5.204 -0.4283 -0.2254  1.2667
   90MOL   H11228770   6.031   6.822   4.954 -0.6771 -2.7450  0.5084
   90MOL   H11328771   5.987   6.842   4.784  0.6150 -0.2590  0.0889
   90MOL   C11428772   5.922   7.003   4.916  0.1823 -0.3512 -0.4015
   90MOL   C11528773   6.041   7.091   4.883  0.4174  0.3597  0.0505
   90MOL   C11628774   6.076   7.099   4.745 -0.0071 -0.3314 -0.1242
   90MOL   C11728775   6.174   7.200   4.719 -0.1956 -0.0012 -0.4854
   90MOL   C11828776   6.244   7.265   4.823  0.2958 -0.1573 -1.1772
   90MOL  Cl11928777   6.378   7.362   4.793  0.0697  0.2449  0.6837
   90MOL   C12028778   6.200   7.251   4.954  0.3720  0.0133  0.2601
   90MOL   C12128779   6.100   7.166   4.986 -0.5329  0.3982 -0.3624
   90MOL   C12228780   5.790   7.056   4.847  1.2130 -0.0660  0.2006
   90MOL   H12328781   5.908   7.006   5.024 -0.4449  2.1839 -0.5225
   90MOL   H12428782   6.012   7.054   4.670  0.3637 -3.3005  1.2797
   90MOL   H12528783   6.200   7.208   4.614 -1.0261  1.7522 -0.5821
   90MOL   H12628784   6.255   7.296   5.035  0.5931  1.1333 -0.5059
   90MOL   H12728785   6.069   7.154   5.089  0.1408 -1.0903 -0.3215
   90MOL   H12828786   5.802   7.056   4.738  1.9385 -0.3037  0.2733
   90MOL   H12928787   5.711   6.980   4.849  1.1288  0.0154  0.0052
   90MOL   C13028788   5.748   7.195   4.898 -0.1557  0.3984  0.3146
   90MOL   C13128789   5.749   7.292   4.787  0.2530 -0.2310  0.3162
   90MOL   C13228790   5.855   7.378   4.754 -0.1589  0.0111 -0.2309
   90MOL   C13328791   5.854   7.461   4.642 -0.0943  0.6276  0.2511
   90MOL   C13428792   5.750   7.450   4.542 -0.2147 -0.3238  0.0204
   90MOL  Cl13528793   5.754   7.545   4.396 -0.2899  0.0332 -0.2338
   90MOL   C13628794   5.642   7.363   4.571  0.6146  1.7024  0.0259
   90MOL   C13728795   5.642   7.291   4.697  0.4180  0.0011 -0.2307
   90MOL   C13828796   5.625   7.185   4.984  0.1914 -0.3018  0.1176
   90MOL   H13928797   5.826   7.231   4.966 -1.6001  1.3303  1.5232
   90MOL   H14028798   5.938   7.383   4.824 -1.6510 -1.6676  1.7329
   90MOL   H14128799   5.941   7.521   4.619 -0.6048 -0.0200 -3.6932
   90MOL   H14228800   5.558   7.362   4.503 -0.5196  2.6574  1.3909
   90MOL   H14328801   5.551   7.240   4.724 -0.7346 -0.0997 -4.0155
   90MOL   H14428802   5.538   7.167   4.920 -0.1597  3.3895 -0.5489
   90MOL   H14528803   5.637   7.095   5.046  0.8907  0.6636  1.3991
   90MOL   C14628804   5.586   7.303   5.079 -0.6331 -0.0882  0.2826
   90MOL   C14728805   5.441   7.291   5.121 -0.9724  0.8476 -0.2927
   90MOL   C14828806   5.397   7.195   5.206 -0.2657 -0.0028 -0.3073
   90MOL   C14928807   5.262   7.182   5.243 -0.2399  0.1502  0.0833
   90MOL   C15028808   5.170   7.278   5.188 -0.1385  0.2916  0.2291
   90MOL  Cl15128809   5.000   7.256   5.211 -0.0028  0.3196  0.2184
   90MOL   C15228810   5.214   7.384   5.111 -0.1435  0.1729 -0.6103
   90MOL   C15328811   5.347   7.379   5.072  0.1679 -0.6070  0.1426
   90MOL   C15428812   5.687   7.315   5.195  0.7066 -0.2260  0.4148
   90MOL   H15528813   5.592   7.400   5.029 -2.3559 -0.4340 -0.6509
   90MOL   H15628814   5.470   7.132   5.255 -1.6665 -0.0716  1.7515
   90MOL   H15728815   5.238   7.106   5.316 -1.8299  1.6229  1.1211
   90MOL   H15828816   5.147   7.461   5.074  2.3364  2.8530  0.2977
   90MOL   H15928817   5.382   7.454   5.003 -0.0222  0.3483  1.0611
   90MOL   H16028818   5.688   7.224   5.254  0.0571 -0.6128 -0.1562
   90MOL   H16128819   5.786   7.321   5.151 -0.4189  1.6796 -1.9873
   90MOL   C16228820   5.662   7.439   5.290 -0.0936 -0.1685 -0.1438
   90MOL   C16328821   5.533   7.430   5.377 -0.1043 -0.4546  0.0825
   90MOL   C16428822   5.431   7.529   5.372  0.4554 -1.0048 -0.0813
   90MOL   C16528823   5.314   7.524   5.455  0.0279 -0.4772  0.4616
   90MOL   C16628824   5.302   7.418   5.547 -0.1046  0.3027  0.3000
   90MOL  Cl16728825   5.164   7.417   5.648  0.0494 -0.1039 -0.0755
   90MOL   C16828826   5.392   7.308   5.545 -0.1950 -0.2862  0.7768
   90MOL   C16928827   5.503   7.318   5.459 -0.5102 -0.2972  0.3096
   90MOL   C17028828   5.775   7.470   5.385 -0.1558  0.0452  0.2693
   90MOL   H17128829   5.638   7.532   5.240  1.8880  1.2725  1.4956
   90MOL   H17228830   5.438   7.613   5.305 -0.2372 -0.6338  0.3188
   90MOL   H17328831   5.230   7.592   5.447  0.5874  0.1577 -0.1855
   90MOL   H17428832   5.377   7.213   5.594 -1.0039 -0.7788 -0.4133
   90MOL   H17528833   5.570   7.233   5.457 -0.4856 -0.3091  1.2884
   90MOL   H17628834   5.736   7.546   5.452 -0.1015  2.2608 -2.1047
   90MOL   H17728835   5.780   7.380   5.446 -1.6158  0.1272  0.5295
   90MOL   C17828836   5.922   7.493   5.339  0.1383  0.6953  0.1498
   90MOL   C17928837   5.934   7.606   5.239 -0.2664 -0.7176  0.5240
   90MOL   C18028838   5.866   7.729   5.259  0.6572  0.7781  0.2430
   90MOL   C18128839   5.872   7.824   5.155 -0.3105  0.5020 -0.4629
   90MOL   C18228840   5.951   7.803   5.038  0.4200  0.2634 -0.6624
   90MOL  Cl18328841   5.964   7.945   4.935 -0.2829  0.2418  0.0206
   90MOL   C18428842   6.015   7.677   5.021 -0.2043  0.2950 -0.0378
   90MOL   C18528843   6.017   7.581   5.123 -0.2430 -0.1973 -0.7479
   90MOL   C18628844   6.016   7.529   5.464 -0.1761 -0.1077 -0.2806
   90MOL   H18728845   5.955   7.402   5.289 -0.1178  0.7147 -0.0515
   90MOL   H18828846   5.801   7.747   5.344 -3.0995 -0.1877 -2.2756
   90MOL   H18928847   5.823   7.920   5.165 -0.6099  0.4043 -0.9731
   90MOL   H19028848   6.079   7.665   4.935 -1.7719  0.9680 -1.3292
   90MOL   H19128849   6.058   7.484   5.104  0.9433 -0.0073  0.7476
   90MOL   H19228850   6.107   7.583   5.439  0.0829  0.7064  2.2174
   90MOL   H19328851   5.955   7.600   5.520  0.4082  0.7928 -0.7737
   90MOL   C19428852   6.046   7.407   5.552 -0.2328  0.3232 -0.1528
   90MOL   C19528853   6.099   7.292   5.468 -0.5600  0.2806  0.5937
   90MOL   C19628854   6.207   7.321   5.381  0.1780 -0.3801 -0.4907
   90MOL   C19728855   6.271   7.218   5.316  0.2031 -1.0191  0.2783
   90MOL   C19828856   6.223   7.088   5.322  0.1789  1.0343 -0.6333
   90MOL  Cl19928857   6.308   6.961   5.233 -0.0569  0.2117 -0.5513
   90MOL   C20028858   6.114   7.062   5.405 -0.1039  0.1924 -0.2492
   90MOL   C20128859   6.050   7.164   5.474 -0.5525 -0.0925  0.2051
   90MOL   C20228860   6.130   7.438   5.677 -0.1468  0.1064 -0.2935
   90MOL   H20328861   5.946   7.381   5.587  0.5379 -3.5308 -0.6307
   90MOL   H20428862   6.247   7.422   5.376  2.1459 -0.9351  2.5948
   90MOL   H20528863   6.362   7.239   5.262 -0.6892  0.1540 -0.8336
   90MOL   H20628864   6.073   6.963   5.420  2.0748 -0.5796  0.8147
   90MOL   H20728865   5.971   7.143   5.545 -1.5305 -0.2926 -0.9385
   90MOL   H20828866   6.231   7.476   5.658  0.5393 -1.6841 -0.3352
   90MOL   H20928867   6.087   7.530   5.716 -1.3552 -0.3355 -0.5812
   90MOL   C21028868   6.136   7.330   5.798  0.2918  0.9733 -0.0887
   90MOL   C21128869   6.219   7.206   5.767 -0.2038 -0.3523  0.3561
   90MOL   C21228870   6.172   7.079   5.768 -0.8120  0.4106  0.0507
   90MOL   C21328871   6.256   6.967   5.739 -0.1763  0.2337  0.4527
   90MOL   C21428872   6.398   6.988   5.720  0.3387  0.3939  0.9512
   90MOL  Cl21528873   6.493   6.850   5.678  0.7207 -0.0993 -0.2116
   90MOL   C21628874   6.445   7.122   5.715 -0.1287  0.0956  0.0405
   90MOL   C21728875   6.356   7.228   5.742  0.5162 -0.3134 -0.0288
   90MOL   C21828876   6.152   7.406   5.935 -0.1930  0.6452  0.3743
   90MOL   H21928877   6.037   7.285   5.804  0.9685 -0.8929 -2.3408
   90MOL   H22028878   6.068   7.056   5.782 -0.1872 -1.4762  1.8270
   90MOL   H22128879   6.209   6.871   5.749  0.6895 -0.0394  2.0805
   90MOL   H22228880   6.551   7.139   5.703 -0.0249 -0.7964 -0.3538
   90MOL   H22328881   6.399   7.328   5.739 -1.6078  0.6223 -0.0919
   90MOL   H22428882   6.232   7.475   5.908  1.1999 -1.4210 -0.9226
   90MOL   H22528883   6.062   7.464   5.953 -1.0252  0.0758 -1.6973
   90MOL   C22628884   6.197   7.321   6.054  0.4367  0.2126  1.0414
   90MOL   C22728885   6.243   7.407   6.171  0.3473  0.0916 -0.2550
   90MOL   C22828886   6.186   7.535   6.195 -0.1205  1.0023  0.4319
   90MOL   C22928887   6.208   7.602   6.312 -0.7388 -0.5011 -0.2143
   90MOL   C23028888   6.300   7.550   6.409  0.2165  0.0220 -1.2220
   90MOL  Cl23128889   6.328   7.640   6.552 -0.3388 -0.3950  0.3320
   90MOL   C23228890   6.359   7.427   6.385 -0.6228 -0.1981  0.1868
   90MOL   C23328891   6.335   7.355   6.265 -0.3313  0.1051  0.1776
   90MOL   C23428892   6.093   7.207   6.099  0.4374  0.5597 -0.1910
   90MOL   H23528893   6.283   7.262   6.024  1.1147 -0.3543  3.9286
   90MOL   H23628894   6.116   7.581   6.127  2.5857  0.8376 -2.5684
   90MOL   H23728895   6.164   7.699   6.328 -1.2113 -0.3712 -2.2041
   90MOL   H23828896   6.434   7.378   6.445  0.9487  0.3130 -1.3302
   90MOL   H23928897   6.394   7.265   6.257  2.0173  1.8772 -3.7701
   90MOL   H24028898   6.052   7.159   6.011 -0.8581 -0.4267  0.9305
   90MOL   H24128899   6.153   7.133   6.151 -0.8809 -0.1100  0.4055
   90MOL   C24228900   5.978   7.255   6.201 -0.2712 -0.6810  0.5279
   90MOL   C24328901   5.885   7.360   6.141  0.0921  0.6540  0.3081
   90MOL   C24428902   5.854   7.474   6.222  0.3500 -0.5072 -0.2750
   90MOL   C24528903   5.757   7.566   6.176  0.6716 -0.4942 -0.3344
   90MOL   C24628904   5.684   7.548   6.056  0.0579  0.2647  0.2115
   90MOL  Cl24728905   5.577   7.678   6.003  0.5678  0.5308 -0.0366
   90MOL   C24828906   5.716   7.435   5.983 -0.2735  0.1800  0.3803
   90MOL   C24928907   5.815   7.340   6.021 -0.1273 -0.6513  0.2922
   90MOL   C25028908   5.894   7.138   6.243 -0.1986 -0.4489  0.3295
   90MOL   H25128909   6.028   7.295   6.289 -2.8893  2.0450  0.8345
   90MOL   H25228910   5.900   7.483   6.319  0.4439 -0.9259 -0.2813
   90MOL   H25328911   5.729   7.652   6.235 -0.3992 -0.7368 -0.4962
   90MOL   H25428912   5.673   7.407   5.888 -1.3026 -1.0637  1.1971
   90MOL   H25528913   5.836   7.262   5.950  3.2997 -1.5073  2.1391
   90MOL   H25628914   5.798   7.173   6.279 -0.0085 -2.1043  2.5391
   90MOL   H25728915   5.864   7.089   6.150  0.2211 -1.3037  0.6313
   90MOL   C25828916   5.943   7.031   6.342 -0.1400 -0.4198  0.0643
   90MOL   C25928917   5.989   7.081   6.474 -0.1006 -0.7293  1.0783
   90MOL   C26028918   6.076   6.996   6.546  0.1986  0.3703 -0.2236
   90MOL   C26128919   6.135   7.051   6.668  0.6626 -0.5902  0.5404
   90MOL   C26228920   6.109   7.187   6.704  0.4153 -0.2196 -0.0473
   90MOL  Cl26328921   6.191   7.258   6.837 -0.5354  0.0172 -0.3604
   90MOL   C26428922   6.009   7.255   6.638  0.8358 -0.5202 -0.3140
   90MOL   C26528923   5.944   7.208   6.523 -0.2382  0.2879  0.4471
   90MOL   C26628924   5.831   6.923   6.360  0.5707  0.3154 -0.0552
   90MOL   H26728925   6.026   6.977   6.297 -0.7163 -1.5324  0.3100
   90MOL   H26828926   6.106   6.910   6.488  0.5199  1.7621 -2.1943
   90MOL   H26928927   6.213   6.992   6.714  2.8799  1.6817 -0.2259
   90MOL   H27028928   5.976   7.350   6.676 -0.7926 -0.6543 -1.3599
   90MOL   H27128929   5.875   7.272   6.469  1.4147  1.4487 -0.3414
   90MOL   H27228930   5.867   6.859   6.440  0.4331 -0.4381 -0.5970
   90MOL   H27328931   5.738   6.975   6.382 -0.3032 -1.9792  1.8793
   90MOL   C27428932   5.814   6.829   6.238 -0.6331  0.6255 -0.9458
   90MOL   C27528933   5.948   6.757   6.214  0.4694 -0.1658  0.0194
   90MOL   C27628934   6.027   6.786   6.102  0.1929 -0.0818  0.1911
   90MOL   C27728935   6.155   6.735   6.094  0.6757 -0.0758 -0.4287
   90MOL   C27828936   6.203   6.646   6.195  0.7094  0.3744  0.2597
   90MOL  Cl27928937   6.359   6.569   6.172  0.6249  0.5031  0.4548
   90MOL   C28028938   6.124   6.606   6.304 -0.1678  0.4558 -0.0183
   90MOL   C28128939   5.990   6.659   6.313  0.3263 -0.2408 -1.2657
   90MOL   C28228940   5.696   6.727   6.272 -0.1156 -0.1108  0.7270
   90MOL   H28328941   5.771   6.884   6.154  0.5268  2.8525 -0.1464
   90MOL   H28428942   5.996   6.857   6.026 -2.6080 -1.4528 -0.0070
   90MOL   H28528943   6.216   6.770   6.012 -1.9384 -0.3840 -2.5980
   90MOL   H28628944   6.166   6.546   6.384  0.1672 -2.4074 -2.2489
   90MOL   H28728945   5.937   6.633   6.403 -2.3648  2.2423 -2.0587
   90MOL   H28828946   5.692   6.656   6.190  1.5725  1.6374 -0.9235
   90MOL   H28928947   5.735   6.676   6.360 -1.0758  1.8170  2.3160
   90MOL   C29028948   5.559   6.789   6.280  0.0162 -0.2180  0.6422
   90MOL   C29128949   5.510   6.848   6.148  0.1697 -0.0363  0.5556
   90MOL   C29228950   5.504   6.986   6.122 -0.0511  0.0749  0.2430
   90MOL   C29328951   5.463   7.030   5.992  0.8412 -0.1178 -0.6645
   90MOL   C29428952   5.434   6.937   5.891 -0.4708  0.5961  0.3169
   90MOL  Cl29528953   5.372   6.996   5.740 -0.2550 -0.3312  0.3588
   90MOL   C29628954   5.428   6.801   5.924 -0.7167  0.0622  0.2348
   90MOL   C29728955   5.473   6.755   6.051  0.8102  1.0738 -0.3284
   90MOL   C29828956   5.455   6.693   6.335 -0.3550  0.0871  0.6524
   90MOL   H29928957   5.560   6.867   6.356  1.1790  3.3223 -2.8443
   90MOL   H30028958   5.535   7.061   6.193 -0.2969  0.0021  0.4295
   90MOL   H30128959   5.442   7.134   5.970 -1.5845 -0.1967  1.0704
   90MOL   H30228960   5.394   6.729   5.851 -0.2626  0.2424 -0.1570
   90MOL   H30328961   5.490   6.649   6.063  2.3328  1.0913 -2.1405
   90MOL   H30428962   5.457   6.603   6.272  0.0650  1.1822 -0.9280
   90MOL   H30528963   5.487   6.641   6.426  2.0561 -0.9390 -0.7137
   90MOL   C30628964   5.313   6.737   6.344  0.2427  0.1612 -0.1160
   90MOL   C30728965   5.221   6.617   6.367  0.6504  0.1747 -0.3650
   90MOL   C30828966   5.085   6.631   6.332 -0.3991 -1.1021 -1.0445
   90MOL   C30928967   4.997   6.524   6.344  0.0940  0.8950 -0.3900
   90MOL   C31028968   5.039   6.399   6.395 -0.3040 -0.1814  0.5990
   90MOL  Cl31128969   4.927   6.278   6.448 -0.1798  0.0264 -0.3671
   90MOL   C31228970   5.173   6.389   6.438 -0.6928  0.1904 -0.9506
   90MOL   C31328971   5.265   6.494   6.414 -0.2416  0.0400  0.4739
   90MOL   C31428972   5.296   6.832   6.459 -0.6189 -0.1761  0.4466
   90MOL   H31528973   5.283   6.791   6.254  1.7122 -2.5305 -2.2998
   90MOL   H31628974   5.053   6.728   6.297  0.3858 -0.8057 -0.9519
   90MOL   H31728975   4.895   6.545   6.314  0.8841  2.2815 -2.2035
   90MOL   H31828976   5.193   6.299   6.493  0.8125  0.2071 -1.4530
   90MOL   H31928977   5.366   6.492   6.453 -0.2592  0.5605  0.5578
   90MOL   H32028978   5.317   6.784   6.554 -1.3660 -1.5757 -0.0898
   90MOL   H32128979   5.365   6.917   6.458  1.2661 -1.6191  2.4735
   90MOL   H32228980   5.192   6.862   6.459 -1.2053 -1.8373 -4.0351
   91MOL     C128981   2.867   6.168   8.313 -0.0874 -0.2576  0.0297
   91MOL     C228982   2.992   6.093   8.334  0.2183 -0.1223  0.6490
   91MOL     C328983   3.001   5.959   8.290 -0.4761  1.3132 -0.2942
   91MOL     C428984   3.122   5.889   8.298  0.4129 -0.8541 -0.2051
   91MOL     C528985   3.240   5.952   8.343 -0.6508  0.0422  0.1227
   91MOL    Cl628986   3.384   5.869   8.380 -0.1092 -0.1061 -0.1936
   91MOL     C728987   3.232   6.087   8.380  0.1561  0.3537  0.2948
   91MOL     C828988   3.110   6.157   8.375  0.2358 -0.5786 -0.6137
   91MOL     C928989   2.877   6.301   8.249 -0.4042 -0.1143  0.4080
   91MOL    H1028990   2.823   6.193   8.410  1.7352 -0.4049  0.9302
   91MOL    H1128991   2.920   5.909   8.237  2.3573 -3.4373 -0.4130
   91MOL    H1228992   3.121   5.787   8.264 -4.7816 -0.1221 -2.8238
   91MOL    H1328993   3.321   6.127   8.426  0.9478  0.9098 -1.6761
   91MOL    H1428994   3.113   6.256   8.420  0.6228 -1.7051  1.9235
   91MOL    H1528995   2.775   6.338   8.262 -0.6184 -1.4860  2.9347
   91MOL    H1628996   2.949   6.361   8.305  0.4303 -0.4821 -0.2514
   91MOL    H1728997   2.804   6.114   8.242  0.5801  0.5909 -1.2175
   91MOL    C1828998   2.915   6.287   8.097 -0.0094 -0.7864 -0.1881
   91MOL    C1928999   2.806   6.248   7.997  0.6472  0.5737 -0.1734
   91MOL    C2029000   2.828   6.157   7.892 -0.1534  0.9561  0.4192
   91MOL    C2129001   2.723   6.106   7.810 -0.9731 -0.0019 -0.2370
   91MOL    C2229002   2.593   6.144   7.834  0.5822  0.1194 -0.0950
   91MOL   Cl2329003   2.466   6.088   7.727  0.5104 -0.1774 -0.0623
   91MOL    C2429004   2.562   6.227   7.938  0.2831 -0.2969 -0.2733
   91MOL    C2529005   2.663   6.278   8.020  0.8527 -0.3046 -0.7083
   91MOL    C2629006   3.014   6.389   8.044 -0.4109  0.4903 -0.1396
   91MOL    H2729007   2.978   6.199   8.107 -0.3935 -0.8758  1.6366
   91MOL    H2829008   2.922   6.110   7.870 -0.3471 -1.2303  3.8087
   91MOL    H2929009   2.739   6.028   7.737  0.1595 -0.2045  0.2248
   91MOL    H3029010   2.462   6.265   7.956  1.3777  2.1876  0.7732
   91MOL    H3129011   2.621   6.342   8.097 -0.6220 -1.1639 -0.7796
   91MOL    H3229012   3.095   6.396   8.117  0.4685 -1.3490 -0.9013
   91MOL    H3329013   3.089   6.342   7.979  1.4884  0.9663  1.6343
   91MOL    C3429014   2.970   6.526   7.988 -0.0511  0.3176  0.7788
   91MOL    C3529015   2.910   6.612   8.097 -0.5355  0.3000 -0.8018
   91MOL    C3629016   2.768   6.629   8.093 -1.2239  0.3172 -0.3524
   91MOL    C3729017   2.709   6.718   8.184  0.3361  0.4126 -0.0976
   91MOL    C3829018   2.792   6.786   8.277  0.3692 -0.7904  0.1123
   91MOL   Cl3929019   2.709   6.884   8.387 -0.5263  0.0421 -0.2396
   91MOL    C4029020   2.932   6.763   8.280  0.1700  0.3177 -0.7052
   91MOL    C4129021   2.990   6.667   8.199  0.0577  0.1979  0.1767
   91MOL    C4229022   3.092   6.598   7.919  0.1345 -0.0093 -0.1295
   91MOL    H4329023   2.889   6.499   7.920  1.1892 -2.1879  0.2846
   91MOL    H4429024   2.698   6.578   8.028 -1.0120  0.1165 -0.4219
   91MOL    H4529025   2.603   6.732   8.171  0.3548 -2.2424 -4.1930
   91MOL    H4629026   2.985   6.821   8.354 -2.1875  0.6788  0.7542
   91MOL    H4729027   3.097   6.655   8.195  0.1117  0.8964 -0.5728
   91MOL    H4829028   3.175   6.601   7.990 -1.3467  1.4366  1.6045
   91MOL    H4929029   3.124   6.530   7.840  0.4663  0.4623 -0.4012
   91MOL    C5029030   3.066   6.740   7.871  0.2794 -0.3959 -0.0631
   91MOL    C5129031   3.198   6.823   7.847  0.3611 -0.5685  0.6719
   91MOL    C5229032   3.278   6.867   7.957  0.3204  0.4695  0.3121
   91MOL    C5329033   3.399   6.932   7.932  0.0210  0.2586  0.0439
   91MOL    C5429034   3.441   6.946   7.797 -0.3965 -0.9658  0.3315
   91MOL   Cl5529035   3.597   7.000   7.760  0.2725 -0.2938 -0.4009
   91MOL    C5629036   3.361   6.906   7.690 -0.1694  1.0713  0.1648
   91MOL    C5729037   3.235   6.849   7.715  0.2445  0.2378  0.4706
   91MOL    C5829038   2.950   6.749   7.768  0.0392 -0.3063  0.2255
   91MOL    H5929039   3.032   6.789   7.963  0.8012 -1.7651  0.8843
   91MOL    H6029040   3.249   6.833   8.056 -0.6885  1.1774  0.2653
   91MOL    H6129041   3.464   6.954   8.015  0.0360 -0.7463  0.2997
   91MOL    H6229042   3.398   6.915   7.589  0.8391 -3.3132  0.0628
   91MOL    H6329043   3.182   6.813   7.628  0.8827  1.0069 -0.2422
   91MOL    H6429044   2.983   6.717   7.669 -0.4011  2.0814 -0.7061
   91MOL    H6529045   2.866   6.686   7.799  0.4370 -0.9951 -0.0690
   91MOL    C6629046   2.904   6.894   7.754  0.4368 -0.1290 -0.0468
   91MOL    C6729047   2.834   6.916   7.624  0.3480 -0.5679 -0.6340
   91MOL    C6829048   2.703   6.868   7.596  0.2722 -0.5459  0.2295
   91MOL    C6929049   2.631   6.904   7.477 -0.4930  0.1538 -0.7832
   91MOL    C7029050   2.704   6.975   7.375 -0.2198  0.4444 -0.4789
   91MOL   Cl7129051   2.648   6.975   7.211  0.4742 -0.1395  0.3612
   91MOL    C7229052   2.827   7.038   7.403 -0.0701  0.2573  0.3045
   91MOL    C7329053   2.892   7.008   7.526  0.3300  0.2335  0.0928
   91MOL    C7429054   2.806   6.933   7.877 -0.3194 -0.1046 -0.4582
   91MOL    H7529055   2.986   6.966   7.749 -1.0681  1.6257  0.2672
   91MOL    H7629056   2.657   6.801   7.667  1.9806 -0.4820  1.4175
   91MOL    H7729057   2.533   6.864   7.456 -0.1765  0.4956 -3.0648
   91MOL    H7829058   2.875   7.108   7.337 -0.8033 -0.0252 -0.5357
   91MOL    H7929059   2.984   7.060   7.547 -0.5631  0.9169  2.4745
   91MOL    H8029060   2.710   6.887   7.854 -0.5904 -0.5743  1.4750
   91MOL    H8129061   2.838   6.897   7.975  0.8296 -2.1803 -1.5375
   91MOL    C8229062   2.770   7.077   7.895 -0.5885  0.1101  0.3590
   91MOL    C8329063   2.661   7.106   7.993 -0.2884  0.5992  0.0502
   91MOL    C8429064   2.532   7.132   7.948  0.0081  0.9848  0.1512
   91MOL    C8529065   2.425   7.172   8.034 -0.1289  0.7339 -0.2782
   91MOL    C8629066   2.457   7.173   8.174 -0.3831 -0.1304  0.6932
   91MOL   Cl8729067   2.349   7.232   8.296  0.0702 -0.2902  0.1505
   91MOL    C8829068   2.588   7.143   8.219  0.3773  0.4279  0.5049
   91MOL    C8929069   2.691   7.104   8.131 -1.1115 -0.8136  0.9658
   91MOL    C9029070   2.891   7.176   7.911  0.1909  1.0179  0.3067
   91MOL    H9129071   2.731   7.106   7.797  1.6604  0.4379 -0.4743
   91MOL    H9229072   2.516   7.141   7.842 -0.3438 -0.4034  0.0736
   91MOL    H9329073   2.329   7.199   7.994 -1.9050 -3.3598  0.9790
   91MOL    H9429074   2.611   7.139   8.324  0.7981  2.5671  0.5072
   91MOL    H9529075   2.791   7.075   8.160  0.3065  0.6068 -2.2903
   91MOL    H9629076   2.951   7.151   7.999  1.0201  0.7414 -0.3306
   91MOL    H9729077   2.957   7.153   7.829 -1.6099 -1.2259 -0.5790
   91MOL    C9829078   2.848   7.327   7.915 -0.3259 -0.1410  0.7059
   91MOL    C9929079   2.921   7.392   8.030  1.1601 -0.0502 -0.5992
   91MOL   C10029080   2.842   7.430   8.143  0.2862 -0.1120 -0.0830
   91MOL   C10129081   2.907   7.497   8.247  0.6778  0.4812 -0.5450
   91MOL   C10229082   3.041   7.534   8.241  0.2558 -0.3513 -0.4201
   91MOL  Cl10329083   3.118   7.629   8.363 -0.2504 -0.0567  0.2362
   91MOL   C10429084   3.116   7.517   8.118 -0.0464 -0.4221 -0.2609
   91MOL   C10529085   3.056   7.432   8.019 -0.1022 -0.2655 -0.0099
   91MOL   C10629086   2.888   7.396   7.783  0.3285  0.2139 -0.2722
   91MOL   H10729087   2.741   7.342   7.931 -0.5371  0.7468 -1.3452
   91MOL   H10829088   2.736   7.412   8.138  0.6811 -2.3955 -0.8305
   91MOL   H10929089   2.852   7.537   8.331 -0.1738 -0.7455 -0.5102
   91MOL   H11029090   3.210   7.565   8.097 -0.1425 -1.7367 -4.2189
   91MOL   H11129091   3.106   7.418   7.924  1.2213  0.3915  0.5748
   91MOL   H11229092   2.871   7.502   7.803 -2.3883  0.1395 -1.9545
   91MOL   H11329093   2.996   7.396   7.769  0.8231 -2.2231  3.0068
   91MOL   C11429094   2.819   7.370   7.651 -0.1203  0.1863 -0.2625
   91MOL   C11529095   2.669   7.376   7.681  1.0379  0.9140  0.2772
   91MOL   C11629096   2.606   7.483   7.752  0.5761 -1.1000 -0.1407
   91MOL   C11729097   2.469   7.489   7.761  0.2071 -0.0109 -0.1016
   91MOL   C11829098   2.391   7.388   7.693 -1.1260  0.8578 -0.1186
   91MOL  Cl11929099   2.228   7.415   7.688 -0.2739  0.0692  0.0524
   91MOL   C12029100   2.452   7.277   7.632  0.8179  0.4946  0.2764
   91MOL   C12129101   2.591   7.276   7.615 -0.4052 -0.3174 -0.2042
   91MOL   C12229102   2.872   7.468   7.535 -0.9367  0.0098  0.3243
   91MOL   H12329103   2.842   7.269   7.616  0.2996 -0.9481  3.0921
   91MOL   H12429104   2.667   7.565   7.786 -1.0897  0.4095 -0.7842
   91MOL   H12529105   2.420   7.561   7.825  0.8602 -0.9843  1.5227
   91MOL   H12629106   2.392   7.199   7.589  1.8914 -0.3878  0.3726
   91MOL   H12729107   2.640   7.194   7.564  0.3359  0.6119 -0.9960
   91MOL   H12829108   2.799   7.441   7.458  2.1589 -0.1036 -2.6682
   91MOL   H12929109   2.857   7.571   7.568 -0.8236  0.0943  0.1166
   91MOL   C13029110   3.017   7.461   7.480  0.3761  0.2184  0.5458
   91MOL   C13129111   3.124   7.471   7.583  0.2666  0.4711 -0.0505
   91MOL   C13229112   3.155   7.600   7.648 -0.3394  0.3742 -0.8211
   91MOL   C13329113   3.243   7.601   7.754  0.5109  0.0605  0.1328
   91MOL   C13429114   3.318   7.490   7.791 -1.1297  0.0174 -0.0418
   91MOL  Cl13529115   3.444   7.492   7.906 -0.0251  0.3025 -0.2477
   91MOL   C13629116   3.300   7.365   7.721  0.2928 -0.3720 -0.9059
   91MOL   C13729117   3.200   7.360   7.622  0.2337 -1.0785  0.1453
   91MOL   C13829118   3.030   7.343   7.380 -0.4751 -0.2089 -0.1486
   91MOL   H13929119   3.018   7.546   7.411  0.3136  0.3865  0.7524
   91MOL   H14029120   3.088   7.680   7.620 -2.8259 -1.1354  0.6574
   91MOL   H14129121   3.256   7.688   7.816 -1.3688 -0.4358  1.2514
   91MOL   H14229122   3.348   7.278   7.762 -2.4129 -1.5121 -0.0621
   91MOL   H14329123   3.182   7.263   7.578  2.0219  0.3139 -3.8898
   91MOL   H14429124   3.018   7.250   7.434 -0.2380 -0.6618 -0.8727
   91MOL   H14529125   2.945   7.338   7.311  0.0924  0.2376 -0.8924
   91MOL   C14629126   3.163   7.344   7.301  0.9551  0.9788  0.3064
   91MOL   C14729127   3.264   7.235   7.331  0.4602 -0.1828  0.1986
   91MOL   C14829128   3.387   7.273   7.380 -0.3083 -0.5135 -0.0923
   91MOL   C14929129   3.491   7.181   7.395 -0.6590 -0.2393  0.6680
   91MOL   C15029130   3.472   7.045   7.367 -0.8185  0.4154  0.7509
   91MOL  Cl15129131   3.614   6.941   7.389 -0.5459 -0.1166  0.1987
   91MOL   C15229132   3.351   7.001   7.318 -1.4688  0.0885 -0.1436
   91MOL   C15329133   3.243   7.095   7.304 -0.2473 -0.3244 -0.1448
   91MOL   C15429134   3.140   7.347   7.149 -0.0053  0.4772  0.0387
   91MOL   H15529135   3.189   7.450   7.310 -2.6822  2.2675 -3.1350
   91MOL   H15629136   3.397   7.374   7.417 -0.2818 -0.8219  0.7398
   91MOL   H15729137   3.592   7.202   7.429  0.5164 -0.2556 -2.6135
   91MOL   H15829138   3.342   6.894   7.308  1.5913 -0.5721  3.1409
   91MOL   H15929139   3.153   7.056   7.260 -0.7406  0.6095  0.0236
   91MOL   H16029140   3.104   7.250   7.114  3.2683 -0.5304 -0.7241
   91MOL   H16129141   3.054   7.413   7.135  0.4656  0.8114 -1.4064
   91MOL   C16229142   3.261   7.394   7.066 -0.9902 -0.6396 -0.1480
   91MOL   C16329143   3.364   7.288   7.028 -0.5632 -0.6669 -0.2427
   91MOL   C16429144   3.495   7.306   7.070  0.1226 -0.3858  0.1607
   91MOL   C16529145   3.590   7.217   7.025 -0.2185  0.0226 -0.2199
   91MOL   C16629146   3.543   7.107   6.943 -0.2256  0.0150  0.2793
   91MOL  Cl16729147   3.654   6.992   6.884 -0.3483 -0.1484  0.4810
   91MOL   C16829148   3.412   7.077   6.923 -0.5574 -0.0278  0.2379
   91MOL   C16929149   3.319   7.170   6.964  0.7771 -0.2586 -0.1891
   91MOL   C17029150   3.207   7.474   6.944  0.0645 -0.5234  0.3032
   91MOL   H17129151   3.323   7.471   7.112  0.0270 -3.5763  3.6687
   91MOL   H17229152   3.531   7.390   7.128  1.5137 -0.2656 -0.8702
   91MOL   H17329153   3.693   7.224   7.057 -0.0647  0.4560 -0.8093
   91MOL   H17429154   3.386   6.978   6.890  2.1981 -0.7211  0.0918
   91MOL   H17529155   3.216   7.145   6.947  0.7178  1.4276 -2.4485
   91MOL   H17629156   3.191   7.392   6.874 -0.0202 -2.7885  2.8821
   91MOL   H17729157   3.119   7.530   6.973  0.6915  0.3615  0.5179
   91MOL   C17829158   3.293   7.597   6.881 -0.0947  0.3080 -0.4357
   91MOL   C17929159   3.428   7.555   6.841 -0.4922 -0.7799  1.1298
   91MOL   C18029160   3.544   7.623   6.888 -0.4839 -0.8362 -0.1953
   91MOL   C18129161   3.669   7.583   6.852 -0.4420 -0.7158 -0.2829
   91MOL   C18229162   3.687   7.471   6.771  0.6646  0.0168 -0.1823
   91MOL  Cl18329163   3.835   7.414   6.712 -0.0232  0.1044 -0.0560
   91MOL   C18429164   3.574   7.405   6.723  0.2985  0.6320 -0.4857
   91MOL   C18529165   3.448   7.448   6.755 -0.5138  0.7867  0.2512
   91MOL   C18629166   3.218   7.669   6.760  0.7090  0.3367 -0.5199
   91MOL   H18729167   3.298   7.674   6.957  0.9190  0.4141 -0.6094
   91MOL   H18829168   3.537   7.709   6.953 -0.8794 -0.6518 -0.4791
   91MOL   H18929169   3.753   7.627   6.903 -0.0641 -1.0198 -0.6433
   91MOL   H19029170   3.589   7.315   6.665  0.1734 -0.2379  0.7957
   91MOL   H19129171   3.362   7.387   6.735  0.4742 -0.8616  0.9532
   91MOL   H19229172   3.217   7.582   6.694 -2.8535 -0.3651  0.3545
   91MOL   H19329173   3.116   7.695   6.789  0.2092 -1.5227 -0.5514
   91MOL   C19429174   3.292   7.790   6.694  0.2077 -0.2145  0.0186
   91MOL   C19529175   3.286   7.767   6.542 -0.3736  0.3695 -0.4712
   91MOL   C19629176   3.169   7.791   6.469 -0.0894 -0.5161 -0.0679
   91MOL   C19729177   3.162   7.752   6.331  0.2288  0.6431 -0.1653
   91MOL   C19829178   3.273   7.691   6.273 -0.0769  0.0883 -0.4420
   91MOL  Cl19929179   3.257   7.635   6.108  0.3423  0.1460  0.4094
   91MOL   C20029180   3.393   7.677   6.343  0.5329  0.1096  0.3491
   91MOL   C20129181   3.398   7.716   6.479 -0.6110 -0.2543 -0.0801
   91MOL   C20229182   3.220   7.921   6.732 -0.3026  0.0411  0.2819
   91MOL   H20329183   3.396   7.794   6.726  0.7003  1.1794 -1.6605
   91MOL   H20429184   3.078   7.827   6.515  0.9771 -0.7248  2.2921
   91MOL   H20529185   3.064   7.756   6.285 -1.7547 -2.7144  3.3956
   91MOL   H20629186   3.483   7.631   6.304 -1.1522 -2.9926 -0.0436
   91MOL   H20729187   3.488   7.703   6.537 -0.1631 -0.4665 -0.8248
   91MOL   H20829188   3.208   7.987   6.646 -0.9983 -2.1176 -1.3421
   91MOL   H20929189   3.124   7.899   6.780 -0.8953 -1.3081 -1.4534
   91MOL   C21029190   3.299   8.002   6.835 -0.4278 -0.0076  0.2122
   91MOL   C21129191   3.415   8.081   6.771 -0.4859 -0.4247  0.6560
   91MOL   C21229192   3.547   8.027   6.770  0.2666 -0.9502 -0.0456
   91MOL   C21329193   3.650   8.087   6.696  0.0368  0.5232 -0.3632
   91MOL   C21429194   3.624   8.205   6.624  0.4155 -0.2219  0.6205
   91MOL  Cl21529195   3.753   8.289   6.541 -0.3818 -0.1570  0.2475
   91MOL   C21629196   3.495   8.261   6.624 -0.2505 -0.6400  0.1783
   91MOL   C21729197   3.398   8.194   6.695 -0.3325  0.0512  0.4667
   91MOL   C21829198   3.201   8.104   6.896 -0.3614  0.7182 -0.6293
   91MOL   H21929199   3.334   7.935   6.914  1.8479  0.2936 -0.5219
   91MOL   H22029200   3.579   7.936   6.819  1.7291 -0.7997 -0.6870
   91MOL   H22129201   3.747   8.038   6.698 -0.1636  0.1357  2.7428
   91MOL   H22229202   3.471   8.349   6.566  1.4546 -0.6102 -0.5067
   91MOL   H22329203   3.297   8.231   6.690 -0.5626 -0.7524 -0.8330
   91MOL   H22429204   3.251   8.199   6.917  1.9558 -0.4493 -0.7107
   91MOL   H22529205   3.142   8.135   6.809 -1.8564 -0.2126  0.0236
   91MOL   C22629206   3.102   8.054   7.001 -0.6550  0.3092 -0.1616
   91MOL   C22729207   3.160   7.961   7.097 -0.1574  0.3360  0.0115
   91MOL   C22829208   3.121   7.824   7.094 -0.9726 -0.0291 -0.0116
   91MOL   C22929209   3.183   7.735   7.178 -0.1292  0.2249 -0.2088
   91MOL   C23029210   3.293   7.769   7.258  0.1301  0.2065  0.2213
   91MOL  Cl23129211   3.379   7.653   7.348  0.4219 -0.2896 -0.3297
   91MOL   C23229212   3.329   7.907   7.268 -0.0514 -1.1318 -0.3072
   91MOL   C23329213   3.264   8.008   7.187  0.1469  0.2197  0.1016
   91MOL   C23429214   3.012   8.168   7.061 -0.0840 -0.5674  0.1899
   91MOL   H23529215   3.025   8.002   6.945 -1.9651  0.3048  1.5681
   91MOL   H23629216   3.045   7.789   7.025  0.3650 -0.3915 -1.3214
   91MOL   H23729217   3.147   7.633   7.182 -1.1946  0.5344 -1.4612
   91MOL   H23829218   3.424   7.927   7.315 -0.8291  0.2568  0.7296
   91MOL   H23929219   3.307   8.107   7.181 -0.8437  0.7108  1.0088
   91MOL   H24029220   3.048   8.213   7.154  0.1680 -0.2980 -0.0338
   91MOL   H24129221   3.021   8.256   6.997  1.7675 -2.0111 -1.6471
   91MOL   C24229222   2.862   8.140   7.071  0.1926 -1.3615 -0.4967
   91MOL   C24329223   2.799   8.247   7.164  1.0792  0.5929  0.1888
   91MOL   C24429224   2.775   8.219   7.301 -0.9715 -0.2491 -0.3040
   91MOL   C24529225   2.731   8.313   7.390  0.3869  0.4854  0.3469
   91MOL   C24629226   2.684   8.437   7.340 -0.4188 -0.3466 -0.1955
   91MOL  Cl24729227   2.624   0.113   7.450  0.1064 -0.0365 -0.2056
   91MOL   C24829228   2.699   0.022   7.202 -0.2898  0.1151 -0.2181
   91MOL   C24929229   2.758   8.374   7.113 -0.1529  0.4216  1.2820
   91MOL   C25029230   2.788   8.134   6.929  0.2631 -0.2613 -0.3563
   91MOL   H25129231   2.851   8.050   7.131 -0.7468 -2.5775 -2.4526
   91MOL   H25229232   2.799   8.119   7.334  1.8195  0.1573 -0.9267
   91MOL   H25329233   2.721   8.288   7.494  1.2322 -0.5397  0.1799
   91MOL   H25429234   2.658   0.118   7.175  0.3770  0.1251 -1.1821
   91MOL   H25529235   2.773   8.395   7.008 -1.5094  0.9776  1.1811
   91MOL   H25629236   2.830   8.205   6.859  2.0295 -1.0519 -0.1073
   91MOL   H25729237   2.820   8.045   6.875  1.2026  0.2059 -0.5752
   91MOL   C25829238   2.633   8.143   6.933 -0.8376  0.3600  1.2320
   91MOL   C25929239   2.589   8.156   6.792 -0.7065 -0.2450 -0.6419
   91MOL   C26029240   2.576   8.047   6.702 -0.1216 -0.0628 -0.5115
   91MOL   C26129241   2.535   8.069   6.568  0.3030  0.4797 -0.1575
   91MOL   C26229242   2.496   8.197   6.524 -0.2167 -0.7125  1.1751
   91MOL  Cl26329243   2.430   8.214   6.360 -0.3399  0.1180  0.4900
   91MOL   C26429244   2.505   8.306   6.612 -0.0379  0.7201 -0.9766
   91MOL   C26529245   2.567   8.286   6.744 -0.0351  0.3757  0.0868
   91MOL   C26629246   2.561   8.024   7.001 -0.3503  0.1399  0.4256
   91MOL   H26729247   2.602   8.227   6.995 -0.7270  1.4141 -0.1106
   91MOL   H26829248   2.592   7.943   6.726  1.8071  0.2995 -0.1210
   91MOL   H26929249   2.525   7.983   6.503  3.4929 -0.3176  0.3648
   91MOL   H27029250   2.477   8.409   6.594 -4.2365  0.1604  1.4728
   91MOL   H27129251   2.579   8.363   6.819  0.9799  1.1257 -0.8318
   91MOL   H27229252   2.582   7.934   6.943  2.5803  1.7221 -1.0869
   91MOL   H27329253   2.623   8.007   7.089  1.1021  1.9591 -0.2132
   91MOL   C27429254   2.416   8.056   7.061  0.3966  0.2271 -1.0057
   91MOL   C27529255   2.316   8.071   6.954 -0.0261  0.9700  0.4675
   91MOL   C27629256   2.231   8.187   6.940 -0.2912  0.4531  0.3347
   91MOL   C27729257   2.156   8.204   6.823  0.1735  0.2494 -0.3161
   91MOL   C27829258   2.154   8.105   6.722  0.1535 -0.5624 -0.6376
   91MOL  Cl27929259   2.062   8.133   6.575 -0.3258 -0.4843  0.1058
   91MOL   C28029260   2.223   7.982   6.742  0.0057  0.8717  0.2898
   91MOL   C28129261   2.303   7.962   6.858  0.1978  0.4223 -0.0167
   91MOL   C28229262   2.363   7.951   7.162  0.2209 -0.0822 -0.6579
   91MOL   H28329263   2.425   8.150   7.113  1.0642 -1.1638  1.4582
   91MOL   H28429264   2.225   8.260   7.019  2.3348  2.1971 -0.9844
   91MOL   H28529265   2.095   8.291   6.806 -0.5631  0.0373  1.1432
   91MOL   H28629266   2.216   7.906   6.666  3.0181  1.5652 -0.7481
   91MOL   H28729267   2.364   7.874   6.869  0.1936  0.5055  0.6935
   91MOL   H28829268   2.255   7.945   7.150  0.0531  0.3512  0.5598
   91MOL   H28929269   2.396   7.851   7.133 -1.1999 -0.5448 -0.7028
   91MOL   C29029270   2.407   7.997   7.306 -0.8933 -0.0785  0.0972
   91MOL   C29129271   2.327   8.115   7.359 -0.3657 -0.6911 -0.4438
   91MOL   C29229272   2.192   8.096   7.378 -0.5458 -0.2312  0.3889
   91MOL   C29329273   2.113   8.202   7.426 -0.6169  0.0004  0.0178
   91MOL   C29429274   2.174   8.327   7.453  0.2436 -0.8441  0.2320
   91MOL  Cl29529275   2.084   0.008   7.528 -0.1742  0.0666  0.1441
   91MOL   C29629276   2.307   8.355   7.429 -0.4494 -0.5722  0.4327
   91MOL   C29729277   2.386   8.242   7.390 -0.6141  0.5602 -0.1198
   91MOL   C29829278   2.400   7.885   7.415  0.5829 -0.3486 -0.4902
   91MOL   H29929279   2.510   8.031   7.301 -1.5045  1.8585  0.1988
   91MOL   H30029280   2.147   7.999   7.362 -1.3456  0.3952 -1.2328
   91MOL   H30129281   2.008   8.182   7.441 -0.1254 -1.8950  1.0360
   91MOL   H30229282   2.352   0.008   7.450 -2.1033  0.2203  0.3697
   91MOL   H30329283   2.492   8.258   7.375 -0.4142  0.8066  1.4175
   91MOL   H30429284   2.392   7.930   7.514 -0.8132  0.2144 -0.8440
   91MOL   H30529285   2.306   7.834   7.396  0.1780  0.5617 -0.9415
   91MOL   C30629286   2.521   7.781   7.407  0.3196  0.2548 -0.2937
   91MOL   C30729287   2.650   7.847   7.442 -0.2488 -0.4549 -0.1796
   91MOL   C30829288   2.762   7.826   7.355 -0.7990 -0.1646 -0.7291
   91MOL   C30929289   2.890   7.867   7.399  0.6068 -0.0785 -0.3818
   91MOL   C31029290   2.911   7.922   7.525 -0.9391  1.0067 -0.1918
   91MOL  Cl31129291   3.060   7.998   7.557  0.1714 -0.1068 -0.1311
   91MOL   C31229292   2.800   7.947   7.609 -0.2103  0.1665  0.7744
   91MOL   C31329293   2.669   7.908   7.568 -0.5513 -0.4342  0.0199
   91MOL   C31429294   2.497   7.652   7.485  0.0211  0.4434 -0.9297
   91MOL   H31529295   2.533   7.746   7.304  0.3420  0.9192 -0.5217
   91MOL   H31629296   2.761   7.774   7.260  0.0230 -0.6599 -0.4775
   91MOL   H31729297   2.972   7.867   7.329  2.3846 -0.5160  1.6484
   91MOL   H31829298   2.804   7.999   7.703 -0.7364  0.7767  0.4606
   91MOL   H31929299   2.588   7.911   7.641 -0.6113  2.0394 -0.0792
   91MOL   H32029300   2.457   7.667   7.586  0.1290  0.3210 -0.8689
   91MOL   H32129301   2.434   7.584   7.428 -3.7127  2.5252  0.4649
   91MOL   H32229302   2.592   7.600   7.493 -0.3975 -0.1950 -0.0089
   92MOL     C129303   2.247   5.349   4.018  0.0482  0.4589  0.2418
   92MOL     C229304   2.320   5.473   4.067  0.1837  0.7546  0.1313
   92MOL     C329305   2.266   5.545   4.176 -0.1504 -0.1545 -0.1340
   92MOL     C429306   2.338   5.659   4.220  0.1777  0.1242 -0.0159
   92MOL     C529307   2.463   5.692   4.171  0.0186  0.5164  0.9928
   92MOL    Cl629308   2.554   5.818   4.243 -0.0964 -0.2482  0.1565
   92MOL     C729309   2.513   5.618   4.059  0.8654  0.3049 -0.7647
   92MOL     C829310   2.443   5.510   4.006 -0.7572 -0.1992 -0.9660
   92MOL     C929311   2.230   5.238   4.129 -0.5736 -0.9038 -0.3714
   92MOL    H1029312   2.288   5.307   3.926 -1.2592 -0.2714 -0.0287
   92MOL    H1129313   2.169   5.513   4.211 -1.1830  1.2004 -1.7193
   92MOL    H1229314   2.293   5.721   4.296  3.3216  0.5571  1.5901
   92MOL    H1329315   2.612   5.635   4.017  0.8471 -0.3753 -1.1051
   92MOL    H1429316   2.476   5.450   3.923 -2.1830 -0.4564 -1.3680
   92MOL    H1529317   2.331   5.218   4.164  0.8472  2.1902 -2.4544
   92MOL    H1629318   2.179   5.288   4.211  0.4209  0.6820 -0.6714
   92MOL    H1729319   2.152   5.392   3.987 -1.4338 -0.8057  2.8160
   92MOL    C1829320   2.154   5.120   4.075  0.6529 -0.4188  0.3632
   92MOL    C1929321   2.166   5.005   4.180  0.0384  0.0871  0.6144
   92MOL    C2029322   2.162   4.874   4.128  0.2173  0.0091  0.0706
   92MOL    C2129323   2.186   4.762   4.218 -0.2285  0.2018 -0.3870
   92MOL    C2229324   2.220   4.786   4.352  0.6112  0.4123  0.2254
   92MOL   Cl2329325   2.234   4.643   4.451 -0.3011  0.0997 -0.2544
   92MOL    C2429326   2.215   4.913   4.403  0.6470 -0.0026  0.7288
   92MOL    C2529327   2.195   5.020   4.316 -0.7919 -0.3313  0.1354
   92MOL    C2629328   2.008   5.148   4.038 -0.2912 -0.6954 -0.0709
   92MOL    H2729329   2.212   5.077   3.993 -0.4315 -1.7949  0.3038
   92MOL    H2829330   2.145   4.853   4.024  0.7204 -1.2265  0.2266
   92MOL    H2929331   2.182   4.658   4.189  1.2242  0.1329 -0.3650
   92MOL    H3029332   2.234   4.938   4.506  0.0497 -0.2520  0.9002
   92MOL    H3129333   2.220   5.116   4.359 -1.4352 -0.4157  0.6990
   92MOL    H3229334   2.007   5.230   3.967  1.2234  0.7247  1.4693
   92MOL    H3329335   1.970   5.071   3.971  0.0507 -0.6727 -0.2929
   92MOL    C3429336   1.905   5.178   4.147  0.5784 -0.3058 -0.3054
   92MOL    C3529337   1.862   5.325   4.146 -0.1209 -0.2764 -0.0174
   92MOL    C3629338   1.796   5.378   4.035  0.0425  0.2753  0.3124
   92MOL    C3729339   1.752   5.510   4.032  1.1458  0.0989  0.4394
   92MOL    C3829340   1.781   5.599   4.136 -0.1056 -0.0676 -0.0276
   92MOL   Cl3929341   1.710   5.758   4.150 -0.1686  0.3496 -0.0986
   92MOL    C4029342   1.861   5.555   4.247 -0.0209 -0.8511 -0.4157
   92MOL    C4129343   1.908   5.420   4.245  0.9781  0.2107  0.1641
   92MOL    C4229344   1.780   5.081   4.127  0.5268 -0.7530  0.1085
   92MOL    H4329345   1.937   5.152   4.247 -3.8815  0.6200  1.4945
   92MOL    H4429346   1.777   5.317   3.948 -0.2814  1.0831 -0.1817
   92MOL    H4529347   1.695   5.536   3.944  0.1118 -1.0410  0.7659
   92MOL    H4629348   1.872   5.621   4.331 -1.6605  0.7797 -1.4375
   92MOL    H4729349   1.964   5.371   4.324  0.6672 -1.4900 -0.6481
   92MOL    H4829350   1.713   5.133   4.058 -0.2374  0.4154  1.6956
   92MOL    H4929351   1.816   4.988   4.082 -1.2119 -0.2907 -2.3715
   92MOL    C5029352   1.705   5.038   4.257  0.8895 -0.1456  0.3815
   92MOL    C5129353   1.553   5.011   4.228  0.0410 -0.2422  0.6976
   92MOL    C5229354   1.505   4.923   4.129  0.4648 -0.2048  0.5627
   92MOL    C5329355   1.365   4.894   4.130  0.4023  0.2695 -0.4453
   92MOL    C5429356   1.285   4.964   4.216  0.1086  0.0536  0.0938
   92MOL   Cl5529357   1.113   4.941   4.210 -0.1027  0.0837  0.1967
   92MOL    C5629358   1.333   5.056   4.312  0.3430  0.5653 -0.5163
   92MOL    C5729359   1.466   5.080   4.312  0.5953  0.2607  0.6169
   92MOL    C5829360   1.777   4.920   4.324 -0.0117  1.2100  0.5453
   92MOL    H5929361   1.704   5.121   4.328 -0.5412 -0.3089  0.5763
   92MOL    H6029362   1.569   4.865   4.065  2.3148  0.0729  2.1027
   92MOL    H6129363   1.328   4.815   4.067 -1.0422 -0.0215  0.7539
   92MOL    H6229364   1.269   5.099   4.388  0.5922 -2.4605  1.5067
   92MOL    H6329365   1.498   5.160   4.378 -0.1797  0.3710  0.8687
   92MOL    H6429366   1.758   4.821   4.281  6.0809 -0.6980  1.7977
   92MOL    H6529367   1.882   4.945   4.317  0.4176 -0.0572  2.2011
   92MOL    C6629368   1.747   4.904   4.479 -0.4050  0.5317 -0.1548
   92MOL    C6729369   1.619   4.825   4.496  0.5393  1.3622  0.1405
   92MOL    C6829370   1.608   4.687   4.484  0.5209 -0.2869  0.2434
   92MOL    C6929371   1.491   4.622   4.516 -0.2092  0.2905  0.9819
   92MOL    C7029372   1.383   4.683   4.577  0.5735 -0.3735  0.1315
   92MOL   Cl7129373   1.244   4.591   4.616  0.2278 -0.2869 -0.3085
   92MOL    C7229374   1.390   4.825   4.598  0.7268 -0.0055 -0.5241
   92MOL    C7329375   1.505   4.889   4.552 -0.0719  0.8087 -0.2156
   92MOL    C7429376   1.867   4.840   4.557  0.3690  0.1173 -0.1753
   92MOL    H7529377   1.720   5.003   4.516 -0.3028  1.5067 -2.5719
   92MOL    H7629378   1.695   4.632   4.449  1.0211  2.2956 -2.8067
   92MOL    H7729379   1.478   4.516   4.502 -0.6169  0.4351  0.2403
   92MOL    H7829380   1.306   4.878   4.641  0.1152 -2.0730  0.9659
   92MOL    H7929381   1.515   4.995   4.565 -1.0482  0.6716  1.9740
   92MOL    H8029382   1.884   4.742   4.513 -1.5107  0.0984 -0.9153
   92MOL    H8129383   1.948   4.906   4.525 -0.2009  0.6673 -0.4971
   92MOL    C8229384   1.871   4.830   4.713 -0.2567 -0.0465  0.1142
   92MOL    C8329385   2.002   4.762   4.754 -0.1351  0.3786  0.9325
   92MOL    C8429386   2.121   4.834   4.752 -0.2331  0.1966 -0.0532
   92MOL    C8529387   2.240   4.773   4.794 -0.0549 -0.2936  0.1147
   92MOL    C8629388   2.242   4.638   4.833 -0.2168  0.0891  0.2104
   92MOL   Cl8729389   2.398   4.563   4.854  0.2302  0.0981 -0.2281
   92MOL    C8829390   2.128   4.567   4.847 -0.2679 -0.1869 -0.0375
   92MOL    C8929391   2.006   4.626   4.811  0.3719  0.0367 -0.1272
   92MOL    C9029392   1.856   4.966   4.784  0.0757  0.1327 -0.0298
   92MOL    H9129393   1.796   4.753   4.733  0.6138 -1.0626 -0.4990
   92MOL    H9229394   2.141   4.933   4.713  1.7984 -0.3181 -0.4103
   92MOL    H9329395   2.332   4.828   4.787  0.0922 -0.4907  0.4521
   92MOL    H9429396   2.124   4.461   4.868 -0.1819 -0.1544  0.1359
   92MOL    H9529397   1.910   4.576   4.804  0.4584  0.0488 -1.6543
   92MOL    H9629398   1.926   4.964   4.867  1.3105  1.6427 -0.9974
   92MOL    H9729399   1.898   5.051   4.729 -0.6426 -0.2736 -1.2202
   92MOL    C9829400   1.716   5.004   4.835  0.3750  0.8743  0.2175
   92MOL    C9929401   1.660   4.884   4.912 -0.4512 -0.4499  0.1098
   92MOL   C10029402   1.522   4.862   4.901  0.2299 -0.5325  0.3898
   92MOL   C10129403   1.456   4.750   4.966  0.4630  0.0686  0.2702
   92MOL   C10229404   1.529   4.665   5.048  1.3378  0.6551  0.3037
   92MOL  Cl10329405   1.455   4.537   5.142  0.0345 -0.3027  0.0912
   92MOL   C10429406   1.670   4.682   5.057 -0.4625  0.1127  0.5454
   92MOL   C10529407   1.734   4.789   4.992  0.4129  0.5256  0.6148
   92MOL   C10629408   1.720   5.124   4.930 -0.0992  0.2682 -0.0902
   92MOL   H10729409   1.667   5.022   4.739  0.9975 -2.8680 -0.8674
   92MOL   H10829410   1.469   4.925   4.831  1.5203  1.3365  1.0503
   92MOL   H10929411   1.350   4.733   4.954  0.1973  1.9282 -0.0483
   92MOL   H11029412   1.725   4.609   5.113 -0.3627 -1.1164 -1.1129
   92MOL   H11129413   1.839   4.805   5.011  0.4063 -0.6109  1.6448
   92MOL   H11229414   1.623   5.144   4.976  0.1436  0.7581  0.2125
   92MOL   H11329415   1.788   5.102   5.013  1.1408 -1.3444 -1.4944
   92MOL   C11429416   1.757   5.262   4.860  0.1599 -0.5408  0.4323
   92MOL   C11529417   1.669   5.310   4.744 -0.0779 -0.9046 -1.0868
   92MOL   C11629418   1.719   5.311   4.615 -0.1864  0.7207  0.9748
   92MOL   C11729419   1.633   5.348   4.508  0.1569  0.1230  0.0711
   92MOL   C11829420   1.491   5.364   4.524  0.5483  0.1994 -0.6833
   92MOL  Cl11929421   1.378   5.409   4.395 -0.4294 -0.3053  0.0335
   92MOL   C12029422   1.448   5.354   4.655 -0.1578 -0.3364 -0.8800
   92MOL   C12129423   1.535   5.326   4.761 -1.0386 -0.0014  0.1672
   92MOL   C12229424   1.777   5.368   4.968 -0.4698 -0.3901 -0.0892
   92MOL   H12329425   1.857   5.258   4.814  0.2208  0.4808  0.4641
   92MOL   H12429426   1.820   5.287   4.585  0.6976  3.9130  1.2676
   92MOL   H12529427   1.682   5.352   4.413 -1.8577  0.7568 -0.9692
   92MOL   H12629428   1.348   5.378   4.685  0.4670 -1.3791  2.2176
   92MOL   H12729429   1.498   5.315   4.862  0.2175  0.7340  0.7171
   92MOL   H12829430   1.819   5.451   4.911  0.6584  0.4547  1.8866
   92MOL   H12929431   1.679   5.410   4.989 -0.9383  0.2281 -3.2594
   92MOL   C13029432   1.860   5.342   5.097  0.1867  0.1143 -0.0839
   92MOL   C13129433   1.994   5.284   5.043  0.1547 -0.1155 -0.1800
   92MOL   C13229434   2.071   5.346   4.939 -0.4480  0.5517  0.1519
   92MOL   C13329435   2.192   5.284   4.892  0.3595 -0.0077  0.0567
   92MOL   C13429436   2.230   5.159   4.937 -0.0137  0.5744 -0.5006
   92MOL  Cl13529437   2.384   5.097   4.895 -0.3356  0.1935  0.1285
   92MOL   C13629438   2.144   5.089   5.026 -0.1060 -0.4723 -0.3339
   92MOL   C13729439   2.035   5.154   5.086  0.6517  0.0265  0.3821
   92MOL   C13829440   1.885   5.475   5.172 -0.2942 -0.4763 -0.3020
   92MOL   H13929441   1.805   5.277   5.165  1.8383 -0.2741  0.8872
   92MOL   H14029442   2.040   5.439   4.894 -0.8847 -0.4994 -1.7435
   92MOL   H14129443   2.251   5.341   4.821 -3.3388  1.1533 -2.2531
   92MOL   H14229444   2.166   4.989   5.060  0.7905 -0.3871 -0.6441
   92MOL   H14329445   1.988   5.105   5.170  0.5389  1.5196  1.1960
   92MOL   H14429446   1.966   5.458   5.244  0.9251 -0.9299 -1.7595
   92MOL   H14529447   1.926   5.550   5.105 -0.6829  0.3841  0.4117
   92MOL   C14629448   1.761   5.523   5.249 -0.3490  0.2934  0.0313
   92MOL   C14729449   1.743   5.467   5.392  0.2603  0.6638 -0.7234
   92MOL   C14829450   1.821   5.515   5.496  0.0961  0.1158 -0.6520
   92MOL   C14929451   1.784   5.491   5.629  0.4949 -0.0887 -0.4334
   92MOL   C15029452   1.672   5.412   5.659  0.3536  0.1064  0.2357
   92MOL  Cl15129453   1.625   5.382   5.825  0.1409 -0.2384  0.3925
   92MOL   C15229454   1.609   5.343   5.555  0.9190  0.5945 -0.5868
   92MOL   C15329455   1.641   5.378   5.422  0.3017  0.1449  0.1885
   92MOL   C15429456   1.757   5.676   5.263  0.5899 -0.0009  0.4249
   92MOL   H15529457   1.670   5.494   5.198 -0.4661 -1.2363  1.0899
   92MOL   H15629458   1.903   5.579   5.468 -0.9055  0.9283 -1.7855
   92MOL   H15729459   1.828   5.536   5.717 -0.2000 -2.0935  0.9986
   92MOL   H15829460   1.533   5.270   5.578  1.4375 -0.4018 -2.0486
   92MOL   H15929461   1.589   5.319   5.348 -1.6661  2.1980 -0.1185
   92MOL   H16029462   1.669   5.704   5.320  0.0615 -1.0505  0.1364
   92MOL   H16129463   1.845   5.718   5.313  0.8448 -1.6586  1.4002
   92MOL   C16229464   1.746   5.749   5.124  0.6277 -0.4115 -0.3175
   92MOL   C16329465   1.634   5.853   5.124  0.1137 -0.6714  0.3459
   92MOL   C16429466   1.532   5.845   5.021 -0.1913 -0.9334 -0.5538
   92MOL   C16529467   1.432   5.941   5.024  0.1971 -0.0846 -0.7755
   92MOL   C16629468   1.423   6.036   5.125  0.2505 -0.7163 -0.2822
   92MOL  Cl16729469   1.292   6.149   5.111 -0.1523 -0.2414  0.1955
   92MOL   C16829470   1.517   6.041   5.231 -0.4116 -0.4166  0.0436
   92MOL   C16929471   1.626   5.955   5.221  0.0356 -0.2258  0.2121
   92MOL   C17029472   1.874   5.820   5.082 -0.5914 -0.3166 -0.5225
   92MOL   H17129473   1.721   5.678   5.045 -0.8864  0.1635 -0.3658
   92MOL   H17229474   1.528   5.769   4.945 -1.3719 -0.0933 -1.3366
   92MOL   H17329475   1.354   5.938   4.950 -1.6043  0.1872  1.0497
   92MOL   H17429476   1.511   6.113   5.310 -1.4069  0.1747 -0.5596
   92MOL   H17529477   1.707   5.968   5.292  0.2390 -3.5676  0.6812
   92MOL   H17629478   1.898   5.898   5.154 -2.6291 -1.2608  1.2125
   92MOL   H17729479   1.963   5.760   5.102 -0.7922 -0.0566  1.2594
   92MOL   C17829480   1.892   5.851   4.935 -0.7306 -0.6237  0.3719
   92MOL   C17929481   2.025   5.931   4.908  0.6854  0.1235  0.4545
   92MOL   C18029482   2.014   6.070   4.881  0.1262  0.2774 -0.0164
   92MOL   C18129483   2.125   6.148   4.863 -0.0546  0.3963 -0.2725
   92MOL   C18229484   2.250   6.074   4.825  0.2326 -0.0873  0.0964
   92MOL  Cl18329485   2.384   6.164   4.753  0.3484 -0.1254 -0.2107
   92MOL   C18429486   2.265   5.935   4.844  0.9680  0.7252 -0.2350
   92MOL   C18529487   2.152   5.866   4.895 -0.3190  0.0407  0.2814
   92MOL   C18629488   1.870   5.737   4.840  0.5720  0.3802  0.1967
   92MOL   H18729489   1.810   5.916   4.903 -2.1586 -1.6755  1.7872
   92MOL   H18829490   1.916   6.114   4.880 -0.4701 -1.0139 -2.0225
   92MOL   H18929491   2.116   6.251   4.830  0.3434  0.4912 -0.0816
   92MOL   H19029492   2.358   5.887   4.818 -0.0696 -0.5924 -1.6286
   92MOL   H19129493   2.172   5.760   4.896 -0.5700 -0.0070  0.6053
   92MOL   H19229494   1.924   5.647   4.869 -1.7387 -1.2817 -0.4886
   92MOL   H19329495   1.764   5.714   4.840  0.5300  0.5163 -1.1381
   92MOL   C19429496   1.916   5.764   4.693 -1.4330  0.8479 -0.4344
   92MOL   C19529497   2.021   5.667   4.639  0.4435  0.3543  0.0846
   92MOL   C19629498   1.990   5.530   4.637  0.0547  0.3172  0.2545
   92MOL   C19729499   2.088   5.438   4.591  0.5878 -0.0164 -0.2124
   92MOL   C19829500   2.215   5.484   4.556 -0.2831 -0.3063  0.4885
   92MOL  Cl19929501   2.322   5.359   4.498 -0.3688  0.6854  0.0803
   92MOL   C20029502   2.244   5.621   4.549  0.7204  0.0301  1.2579
   92MOL   C20129503   2.151   5.710   4.602  0.2655 -0.0348  0.7920
   92MOL   C20229504   1.800   5.766   4.605  0.3185 -0.4264 -0.4787
   92MOL   H20329505   1.966   5.860   4.683  1.3491 -0.6388 -1.2970
   92MOL   H20429506   1.893   5.498   4.673  0.8280 -1.7081  0.6282
   92MOL   H20529507   2.064   5.332   4.585  0.1806  0.1039 -0.8206
   92MOL   H20629508   2.341   5.654   4.514  0.0688  0.8112  0.1562
   92MOL   H20729509   2.179   5.814   4.604 -0.3798  0.2438 -2.2542
   92MOL   H20829510   1.836   5.804   4.510 -0.9605  2.2119  0.0459
   92MOL   H20929511   1.752   5.669   4.590 -0.0340  0.0068 -2.3577
   92MOL   C21029512   1.683   5.864   4.632 -0.6158  0.2695 -0.3834
   92MOL   C21129513   1.716   6.012   4.649  0.2346 -0.0393 -0.3695
   92MOL   C21229514   1.645   6.100   4.737 -0.0075  0.0964  1.2732
   92MOL   C21329515   1.682   6.237   4.739  0.4355  0.4113  0.1871
   92MOL   C21429516   1.789   6.283   4.665 -0.1688  0.5661  0.0340
   92MOL  Cl21529517   1.816   6.456   4.665  0.0790 -0.0588  0.0568
   92MOL   C21629518   1.853   6.199   4.572 -0.8399  0.6892  0.5851
   92MOL   C21729519   1.813   6.064   4.560  0.0160 -0.0174 -0.9219
   92MOL   C21829520   1.574   5.833   4.524 -0.8898  0.2977 -0.1605
   92MOL   H21929521   1.634   5.828   4.722  0.9341 -2.4260 -0.5806
   92MOL   H22029522   1.573   6.064   4.809 -0.4530 -3.6838 -0.9170
   92MOL   H22129523   1.638   6.307   4.808  0.1762  2.8526 -2.3537
   92MOL   H22229524   1.927   6.234   4.502 -1.0610 -0.9666 -0.5169
   92MOL   H22329525   1.857   6.006   4.480 -2.0017  0.9250 -2.7919
   92MOL   H22429526   1.613   5.871   4.429 -1.4394  0.6683 -0.2454
   92MOL   H22529527   1.575   5.726   4.505  1.4469  0.0459  1.1747
   92MOL   C22629528   1.429   5.869   4.568  0.1148 -0.2331  0.1324
   92MOL   C22729529   1.358   5.980   4.483 -0.4101 -0.0047  0.9081
   92MOL   C22829530   1.320   6.104   4.546  0.5290  0.2245  0.1138
   92MOL   C22929531   1.267   6.208   4.474  0.3787  0.5085  0.1327
   92MOL   C23029532   1.244   6.193   4.337  0.0241  1.1059  0.5951
   92MOL  Cl23129533   1.178   6.327   4.250  0.3363  0.1488 -0.4539
   92MOL   C23229534   1.277   6.072   4.274  0.0425  0.4492  0.5638
   92MOL   C23329535   1.336   5.960   4.346 -0.7859  0.0045  0.6307
   92MOL   C23429536   1.340   5.739   4.569 -0.3418 -0.6646 -0.3019
   92MOL   H23529537   1.428   5.909   4.670  0.7742  0.8574 -0.2755
   92MOL   H23629538   1.349   6.122   4.649 -2.0563 -0.9570  1.0754
   92MOL   H23729539   1.242   6.298   4.529  1.3782  0.7276  0.2339
   92MOL   H23829540   1.256   6.059   4.169 -1.6172  0.1500  0.9148
   92MOL   H23929541   1.366   5.865   4.305 -2.7264 -0.7422  0.9245
   92MOL   H24029542   1.335   5.702   4.467  0.3299 -1.2465 -0.1252
   92MOL   H24129543   1.390   5.664   4.631 -0.7110 -0.1795  0.6004
   92MOL   C24229544   1.199   5.756   4.625 -0.7163 -0.0748 -0.0591
   92MOL   C24329545   1.133   5.623   4.604 -0.6192  0.2784  1.0491
   92MOL   C24429546   1.091   5.587   4.474 -0.7330  0.0586  0.6559
   92MOL   C24529547   1.024   5.467   4.450 -0.5192  0.5210 -0.3914
   92MOL   C24629548   1.005   5.381   4.557  0.2987 -0.0466 -0.8145
   92MOL  Cl24729549   0.914   5.235   4.547 -0.2018 -0.4944 -0.0088
   92MOL   C24829550   1.053   5.408   4.686  0.9148 -0.4873 -0.2061
   92MOL   C24929551   1.121   5.528   4.710 -0.4561  0.5763  0.2685
   92MOL   C25029552   1.185   5.818   4.771 -0.3799  0.2024  0.6847
   92MOL   H25129553   1.137   5.820   4.563 -1.8858 -1.2414 -0.1280
   92MOL   H25229554   1.103   5.652   4.388 -0.7667 -2.8203 -1.6053
   92MOL   H25329555   0.983   5.452   4.351  1.7277  1.0022 -1.4104
   92MOL   H25429556   1.030   5.344   4.769 -0.4479 -0.6194 -0.6722
   92MOL   H25529557   1.159   5.543   4.810 -1.4141 -1.8489  1.0209
   92MOL   H25629558   1.241   5.774   4.854  1.0274  1.6056  0.5071
   92MOL   H25729559   1.232   5.916   4.770  0.5840 -0.2626  0.7984
   92MOL   C25829560   1.035   5.837   4.818  0.1746  0.2605  0.0669
   92MOL   C25929561   1.007   5.745   4.939  0.2290  0.5838 -0.6323
   92MOL   C26029562   1.086   5.744   5.052 -0.1408 -0.5459 -0.5016
   92MOL   C26129563   1.041   5.666   5.161  0.2336  0.2361 -0.3386
   92MOL   C26229564   0.930   5.579   5.157 -0.3343 -0.7261  0.8640
   92MOL  Cl26329565   0.890   5.485   5.287 -0.0292  0.1980 -0.0232
   92MOL   C26429566   0.854   5.573   5.038 -0.1052  0.6224 -0.0207
   92MOL   C26529567   0.894   5.654   4.934  0.1207  0.1984  0.4281
   92MOL   C26629568   1.019   5.986   4.852  0.5821  0.8034  0.2056
   92MOL   H26729569   0.971   5.814   4.732 -1.6516 -0.3109  1.5498
   92MOL   H26829570   1.176   5.803   5.062 -0.3537 -0.3960  0.6379
   92MOL   H26929571   1.107   5.655   5.245  0.3276 -0.3221 -0.4840
   92MOL   H27029572   0.770   5.505   5.024  0.4785  0.3938 -2.6483
   92MOL   H27129573   0.839   5.639   4.842  0.4438 -0.1972  0.3028
   92MOL   H27229574   0.941   5.996   4.929  0.7990 -0.6643  0.6407
   92MOL   H27329575   1.096   6.031   4.915  0.9021  0.6703 -0.0954
   92MOL   C27429576   0.981   6.077   4.733 -0.2681  0.0627  0.5016
   92MOL   C27529577   0.878   6.006   4.631  0.1496  0.8550 -0.3916
   92MOL   C27629578   0.747   5.983   4.684  0.2795  0.2550 -0.7900
   92MOL   C27729579   0.650   5.914   4.613 -0.5025  0.6922  0.2637
   92MOL   C27829580   0.693   5.851   4.494 -0.0385 -0.8710  0.1793
   92MOL  Cl27929581   0.585   5.745   4.423  0.1109  0.0117 -0.2881
   92MOL   C28029582   0.819   5.880   4.441 -0.7662  0.2179  0.2892
   92MOL   C28129583   0.917   5.962   4.503  0.8097 -0.0749  0.3191
   92MOL   C28229584   0.945   6.219   4.778  0.1313 -0.0748  0.0746
   92MOL   H28329585   1.072   6.082   4.672 -0.4809 -0.0622  0.1755
   92MOL   H28429586   0.735   6.021   4.784  0.4610 -0.4737 -0.4833
   92MOL   H28529587   0.548   5.896   4.646 -0.8258 -0.2050 -1.1724
   92MOL   H28629588   0.847   5.835   4.347 -0.6920  1.3930 -0.2548
   92MOL   H28729589   1.016   5.970   4.461  1.0736  1.4188  1.1822
   92MOL   H28829590   0.855   6.219   4.840  0.7215 -0.1898  0.9426
   92MOL   H28929591   1.021   6.265   4.841 -1.1309  1.0786  0.7798
   92MOL   C29029592   0.920   6.319   4.659 -0.7805 -0.1470  0.4377
   92MOL   C29129593   0.803   6.295   4.563  0.1257 -0.5916 -0.2570
   92MOL   C29229594   0.678   6.290   4.621 -0.4684  0.2986  0.4654
   92MOL   C29329595   0.568   6.251   4.542 -0.4628 -0.0466 -0.2675
   92MOL   C29429596   0.587   6.220   4.406 -0.4869 -0.6710  0.8837
   92MOL  Cl29529597   0.447   6.166   4.310 -0.2490 -0.1991  0.0016
   92MOL   C29629598   0.716   6.227   4.348 -0.7491 -0.1617 -0.0326
   92MOL   C29729599   0.823   6.262   4.431 -0.3461  0.3667  0.3488
   92MOL   C29829600   0.917   6.464   4.718  0.0180 -0.6423  0.0508
   92MOL   H29929601   1.015   6.316   4.605 -1.8630  0.1991 -1.5187
   92MOL   H30029602   0.670   6.308   4.727  1.3420 -1.1103  0.8629
   92MOL   H30129603   0.474   6.234   4.591 -0.8088 -0.7199 -1.1578
   92MOL   H30229604   0.731   6.191   4.248  1.9544  0.3694  0.1341
   92MOL   H30329605   0.922   6.257   4.387  0.7383  0.2536  2.7394
   92MOL   H30429606   0.840   6.463   4.795  0.8412  0.4402  0.9039
   92MOL   H30529607   1.010   6.473   4.775 -0.0610 -3.9397  0.8244
   92MOL   C30629608   0.890   6.590   4.623  0.2831  0.2256 -0.3265
   92MOL   C30729609   0.894   6.716   4.709  0.3819  0.5443  0.7464
   92MOL   C30829610   1.016   6.743   4.774  0.2412 -0.5802  0.3922
   92MOL   C30929611   1.030   6.870   4.837  0.7038  0.3823 -0.2747
   92MOL   C31029612   0.918   6.960   4.848 -0.0629  0.5655  0.3351
   92MOL  Cl31129613   0.933   7.094   4.953  0.0515  0.0610  0.1518
   92MOL   C31229614   0.799   6.932   4.778  0.0196 -0.3917 -0.0191
   92MOL   C31329615   0.793   6.819   4.704 -0.8122  0.2661 -0.8755
   92MOL   C31429616   0.979   6.597   4.504  0.2665 -0.0044  0.2539
   92MOL   H31529617   0.784   6.589   4.598  0.4995  0.3613 -1.2729
   92MOL   H31629618   1.101   6.677   4.771  0.1136 -0.7119 -1.0261
   92MOL   H31729619   1.122   6.898   4.886  2.7175 -0.4376 -3.4692
   92MOL   H31829620   0.732   7.016   4.772 -0.9079 -1.2237 -1.5262
   92MOL   H31929621   0.704   6.806   4.644 -1.0708  0.5172 -0.5441
   92MOL   H32029622   0.966   6.699   4.468  0.2590 -0.1159 -0.0613
   92MOL   H32129623   1.082   6.565   4.523 -0.5648 -1.5686  2.2888
   92MOL   H32229624   0.945   6.535   4.421 -0.5703  0.9612 -0.1315
   93MOL     C129625   4.302   6.091   8.348  0.8085  0.4446  0.3387
   93MOL     C229626   4.417   5.989   8.359 -0.0004 -0.5243 -0.5788
   93MOL     C329627   4.398   5.865   8.421  0.1752  0.0117 -0.0460
   93MOL     C429628   4.499   5.769   8.438 -0.0996  0.1117 -0.7122
   93MOL     C529629   4.625   5.801   8.392  0.5204 -0.0312  0.0689
   93MOL    Cl629630   4.759   5.691   8.401 -0.0489  0.1021  0.3316
   93MOL     C729631   4.655   5.927   8.339  0.3456 -0.2535  0.0016
   93MOL     C829632   4.549   6.018   8.313 -0.0214  0.3049 -0.0383
   93MOL     C929633   4.225   6.107   0.031  0.0049  0.4866  0.0388
   93MOL    H1029634   4.238   6.068   8.264  0.1119 -1.0925  1.2619
   93MOL    H1129635   4.301   5.844   0.021  0.2272 -2.6955 -1.1125
   93MOL    H1229636   4.480   5.671   0.034  1.7276 -0.2786 -0.7519
   93MOL    H1329637   4.759   5.944   8.313 -0.0955  1.2645 -0.8258
   93MOL    H1429638   4.575   6.106   8.255 -1.2876 -0.1984 -1.4090
   93MOL    H1529639   4.157   6.029   0.065 -0.8321  1.9398  1.7756
   93MOL    H1629640   4.302   6.108   0.107 -1.2484  1.6254  1.3278
   93MOL    H1729641   4.359   6.181   8.330 -1.9193  1.6178 -2.7742
   93MOL    C1829642   4.149   6.240   0.023 -0.4634 -0.1405  0.4135
   93MOL    C1929643   4.057   6.261   8.349 -0.1275  0.8965 -0.2170
   93MOL    C2029644   4.074   6.383   8.285  0.4152  0.4147 -0.6050
   93MOL    C2129645   4.013   6.416   8.170  0.5563  0.0937  0.3168
   93MOL    C2229646   3.934   6.315   8.107 -0.1517  0.2179  0.9524
   93MOL   Cl2329647   3.870   6.337   7.947  0.2322 -0.4163 -0.3648
   93MOL    C2429648   3.913   6.188   8.172  0.5388  0.0453 -0.3131
   93MOL    C2529649   3.977   6.160   8.289 -0.4840  0.7797 -0.8731
   93MOL    C2629650   4.057   6.249   0.155 -0.1601  0.1520 -0.5409
   93MOL    H2729651   4.226   6.317   0.014  0.2280 -1.0679 -1.9493
   93MOL    H2829652   4.147   6.444   8.337  0.5421  0.4056 -0.7728
   93MOL    H2929653   4.028   6.510   8.120 -0.0362 -0.4576 -0.9471
   93MOL    H3029654   3.856   6.121   8.111  0.3442 -1.5856  1.6223
   93MOL    H3129655   3.965   6.060   8.328  2.1929  0.3989 -0.9478
   93MOL    H3229656   4.000   6.340   0.169  1.2520  1.0767 -0.6953
   93MOL    H3329657   3.981   6.172   0.148 -0.3456  0.3517 -0.7280
   93MOL    C3429658   4.124   6.232   0.294 -0.7466 -0.4373 -0.2797
   93MOL    C3529659   4.229   6.336   0.330  0.2645 -0.1572  0.2120
   93MOL    C3629660   4.202   6.474   0.349  0.6643 -0.3354 -0.5488
   93MOL    C3729661   4.297   6.554   0.410  0.1767  0.0915  0.5564
   93MOL    C3829662   4.425   6.509   0.451  0.6463  0.1382  0.2719
   93MOL   Cl3929663   4.530   6.611   0.539 -0.1110 -0.5437 -0.1206
   93MOL    C4029664   4.452   6.371   0.422 -0.6041  0.3213 -0.8796
   93MOL    C4129665   4.358   6.286   0.361  0.0701  0.4664 -0.8137
   93MOL    C4229666   4.017   6.230   0.403 -0.1037 -0.5550  0.2703
   93MOL    H4329667   4.180   6.139   0.294  0.7919  0.4665 -0.3705
   93MOL    H4429668   4.104   6.518   0.346  0.5004 -0.5156  1.4637
   93MOL    H4529669   4.266   6.650   0.449 -0.1044 -0.8956  2.8990
   93MOL    H4629670   4.550   6.331   0.442 -0.6744 -0.2729 -1.6734
   93MOL    H4729671   4.389   6.184   0.348 -0.7552  0.1140 -0.0789
   93MOL    H4829672   4.053   6.231   0.506  0.0405  0.6672  0.2116
   93MOL    H4929673   3.962   6.323   0.415  1.1918  0.0675  1.5643
   93MOL    C5029674   3.913   6.116   0.399  0.2387 -0.7726 -0.2120
   93MOL    C5129675   3.949   5.981   0.331 -0.3802 -0.8833 -0.0885
   93MOL    C5229676   4.038   5.894   0.395 -1.3224 -0.4184 -0.2023
   93MOL    C5329677   4.078   5.773   0.331 -0.4221 -0.6271  0.2796
   93MOL    C5429678   4.022   5.738   0.208 -0.2391  0.5843 -0.1305
   93MOL   Cl5529679   4.075   5.602   0.121  0.0890 -0.1226  0.0311
   93MOL    C5629680   3.919   5.813   0.147  0.5339  0.5356 -0.5085
   93MOL    C5729681   3.883   5.936   0.206  0.0172  0.3588 -0.2102
   93MOL    C5829682   3.847   6.105   0.540 -0.4891 -0.2478  0.2524
   93MOL    H5929683   3.833   6.154   0.335  0.0264  0.1022  0.5665
   93MOL    H6029684   4.081   5.916   0.492 -0.4175  0.9078 -0.8817
   93MOL    H6129685   4.148   5.706   0.380  2.1048  0.8538 -1.1720
   93MOL    H6229686   3.863   5.790   0.058 -0.8028  0.4119  0.3608
   93MOL    H6329687   3.799   5.993   0.171 -0.9393  0.6700  2.4266
   93MOL    H6429688   3.925   6.055   0.599 -0.6746  0.8827  1.4902
   93MOL    H6529689   3.838   6.205   0.582 -0.7336  0.6748 -1.9601
   93MOL    C6629690   3.706   6.035   0.544  0.0371 -0.2864  0.2164
   93MOL    C6729691   3.706   5.912   0.631 -0.5008 -0.6790  0.3496
   93MOL    C6829692   3.671   5.787   0.576 -0.7831  0.3721 -0.0732
   93MOL    C6929693   3.660   5.675   0.659  0.2161 -0.5732  0.9176
   93MOL    C7029694   3.711   5.674   0.789  0.3632  0.2979 -0.0661
   93MOL   Cl7129695   3.729   5.519   0.870 -0.0636  0.2740  0.1632
   93MOL    C7229696   3.747   5.800   0.845 -0.4275 -0.0387 -0.2598
   93MOL    C7329697   3.751   5.915   0.766 -0.9182 -0.2856 -0.4846
   93MOL    C7429698   3.594   6.139   0.573 -0.1990 -0.5058  0.8954
   93MOL    H7529699   3.686   6.003   0.442  0.6058 -0.0819  0.0381
   93MOL    H7629700   3.641   5.779   0.473 -1.4869 -3.5187  0.3268
   93MOL    H7729701   3.621   5.585   0.615 -1.6524 -0.5489  2.4598
   93MOL    H7829702   3.788   5.809   0.944 -1.5253 -0.3887  0.2409
   93MOL    H7929703   3.755   6.015   0.807  0.9655 -1.2287  1.6833
   93MOL    H8029704   3.610   6.199   0.662 -2.3373 -1.8346  2.2115
   93MOL    H8129705   3.588   6.219   0.498 -2.4209  0.2954  1.8708
   93MOL    C8229706   3.453   6.085   0.597  0.0479 -0.1710 -0.0605
   93MOL    C8329707   3.359   6.189   0.663  0.0436 -0.3296 -0.7419
   93MOL    C8429708   3.321   6.307   0.596 -0.0423  0.3889  0.2416
   93MOL    C8529709   3.215   6.385   0.641  0.6152 -0.5775  0.4149
   93MOL    C8629710   3.143   6.342   0.748 -1.0590 -0.2208  0.2896
   93MOL   Cl8729711   2.989   6.421   0.785  0.1680 -0.1330 -0.0442
   93MOL    C8829712   3.186   6.233   0.823  0.3332  0.6987  0.5680
   93MOL    C8929713   3.296   6.155   0.784 -0.1996  0.2558 -0.2594
   93MOL    C9029714   3.394   6.000   0.478  0.3179  0.3270  0.6791
   93MOL    H9129715   3.458   6.006   0.672  1.1448  0.2658  0.3436
   93MOL    H9229716   3.375   6.350   0.514 -0.1013 -1.8004 -0.9918
   93MOL    H9329717   3.176   6.463   0.577 -1.8338 -2.0902  0.0247
   93MOL    H9429718   3.130   6.200   0.910 -2.9246  0.0173 -1.6916
   93MOL    H9529719   3.320   6.066   0.839  1.2096  0.7967  0.0352
   93MOL    H9629720   3.478   5.940   0.443  0.9022  1.3348  0.3222
   93MOL    H9729721   3.322   5.926   0.514  0.5218 -1.2774 -2.0597
   93MOL    C9829722   3.323   6.066   0.360  0.4180  0.3338 -0.3560
   93MOL    C9929723   3.405   6.158   0.268  0.6678 -0.1987  0.1503
   93MOL   C10029724   3.354   6.289   0.239  0.6030  0.9496  0.5374
   93MOL   C10129725   3.423   6.385   0.165  0.3982  0.0972 -0.0654
   93MOL   C10229726   3.551   6.352   0.117  0.2037 -0.2319  0.3387
   93MOL  Cl10329727   3.639   6.465   0.034  0.3876 -0.3739 -0.1956
   93MOL   C10429728   3.600   6.220   0.137 -0.3871 -0.0350  0.8247
   93MOL   C10529729   3.528   6.126   0.211 -0.5384  0.3613 -0.1932
   93MOL   C10629730   3.254   5.961   0.274 -0.5612  0.4779 -0.0893
   93MOL   H10729731   3.245   6.128   0.405 -1.1986 -1.6094 -0.3818
   93MOL   H10829732   3.261   6.315   0.286 -0.0764 -1.3397  0.4944
   93MOL   H10929733   3.381   6.483   0.153  0.8378  0.3725  0.6355
   93MOL   H11029734   3.693   6.184   0.095 -0.7357  0.0111 -0.0059
   93MOL   H11129735   3.573   6.029   0.229 -0.0446  0.6783  0.3206
   93MOL   H11229736   3.220   6.015   0.186 -1.0975  0.6081  0.1966
   93MOL   H11329737   3.326   5.890   0.234 -0.4178  2.0750 -2.7869
   93MOL   C11429738   3.129   5.888   0.320 -0.1470 -0.4667  0.7048
   93MOL   C11529739   3.005   5.981   0.356  0.7801  0.6055  0.0114
   93MOL   C11629740   2.978   6.021   0.488 -0.1090  0.7056 -0.0543
   93MOL   C11729741   2.879   6.118   0.520  0.3775  1.0510  0.1031
   93MOL   C11829742   2.803   6.183   0.417  0.5535 -0.0807 -0.1668
   93MOL  Cl11929743   2.677   6.301   0.449 -0.5763 -0.5533 -0.2003
   93MOL   C12029744   2.831   6.135   0.287  0.4594  0.2843  0.2681
   93MOL   C12129745   2.923   6.034   0.252 -0.2360 -0.5111 -0.2977
   93MOL   C12229746   3.091   5.784   0.215  0.1514 -0.7426 -0.2808
   93MOL   H12329747   3.166   5.842   0.412 -0.7151  0.2603  1.3049
   93MOL   H12429748   3.044   5.987   0.566  0.1521  1.6031  0.1233
   93MOL   H12529749   2.865   6.137   0.625 -0.8381 -1.2915  0.4002
   93MOL   H12629750   2.774   6.182   0.208 -2.3507 -1.0074  1.4517
   93MOL   H12729751   2.936   6.013   0.147 -0.1423 -0.6478 -0.2599
   93MOL   H12829752   3.090   5.842   0.123  2.0190 -3.0653 -1.8319
   93MOL   H12929753   3.163   5.706   0.193  0.2682 -0.2512 -1.6717
   93MOL   C13029754   2.958   5.714   0.213 -0.0445  0.2164  0.3463
   93MOL   C13129755   2.934   5.649   0.072 -0.4243  0.0195  0.5060
   93MOL   C13229756   2.829   5.684   8.425 -0.1116  0.1034 -0.2016
   93MOL   C13329757   2.823   5.629   8.294 -0.4557 -0.0620  0.3079
   93MOL   C13429758   2.920   5.537   8.257  0.2575  0.3372 -0.1895
   93MOL  Cl13529759   2.912   5.452   8.105  0.4983 -0.0602  0.3713
   93MOL   C13629760   3.035   5.517   8.333 -0.5502  0.3728  0.0728
   93MOL   C13729761   3.031   5.559   0.026 -0.1839  0.3788 -0.4891
   93MOL   C13829762   2.940   5.609   0.331  0.6195 -0.7023 -0.0289
   93MOL   H13929763   2.880   5.790   0.223 -0.8373 -0.1780 -2.4630
   93MOL   H14029764   2.751   5.753   0.011  2.4393  3.4377 -0.9341
   93MOL   H14129765   2.749   5.659   8.222  0.2335 -0.8504 -0.7570
   93MOL   H14229766   3.115   5.448   8.307 -2.1989 -1.8479  0.7739
   93MOL   H14329767   3.110   5.526   0.092  0.2360  0.8961 -0.7348
   93MOL   H14429768   2.997   5.518   0.314  1.4521 -0.6830  2.4252
   93MOL   H14529769   2.966   5.644   0.431 -1.4608 -0.9111  0.6147
   93MOL   C14629770   2.791   5.562   0.350 -0.1157 -0.5924  1.4460
   93MOL   C14729771   2.750   5.456   0.257 -0.2647 -0.2040 -0.6005
   93MOL   C14829772   2.805   5.330   0.275 -0.0008  0.1377 -0.2780
   93MOL   C14929773   2.774   5.221   0.193 -0.1818 -0.7057  0.3293
   93MOL   C15029774   2.695   5.247   0.079 -0.1673  0.3096  0.1277
   93MOL  Cl15129775   2.666   5.129   8.397 -0.5314 -0.2098 -0.0888
   93MOL   C15229776   2.637   5.372   0.058  0.8826  0.0499  0.5048
   93MOL   C15329777   2.659   5.474   0.154  0.4552 -0.6112  0.1701
   93MOL   C15429778   2.759   5.525   0.497 -0.3326  0.2531 -0.4011
   93MOL   H15529779   2.739   5.655   0.325 -0.1124 -0.7211  0.9662
   93MOL   H15629780   2.879   5.305   0.350  2.6069  3.1442 -1.7597
   93MOL   H15729781   2.825   5.128   0.209  0.8585 -0.2980 -0.4950
   93MOL   H15829782   2.569   5.389   8.419 -0.1175 -0.5022  1.2053
   93MOL   H15929783   2.604   5.564   0.132 -0.2726 -1.0497  0.2050
   93MOL   H16029784   2.680   5.450   0.500  0.7338 -0.8245  1.1356
   93MOL   H16129785   2.843   5.466   0.534 -1.4277 -0.8982  0.2680
   93MOL   C16229786   2.726   5.634   0.594 -0.1513 -0.1190  0.6093
   93MOL   C16329787   2.601   5.715   0.553  0.5124 -0.7834 -0.3697
   93MOL   C16429788   2.612   5.851   0.550  0.3676 -0.2018  0.0270
   93MOL   C16529789   2.500   5.935   0.524  0.4479  0.3160 -0.2533
   93MOL   C16629790   2.374   5.874   0.498 -0.1167  0.3561  0.3651
   93MOL  Cl16729791   2.236   5.966   0.473 -0.2802  0.4666  0.3667
   93MOL   C16829792   2.365   5.736   0.486  0.2758 -0.1554 -0.2650
   93MOL   C16929793   2.480   5.655   0.513 -0.5613 -0.3469 -0.3873
   93MOL   C17029794   2.704   5.572   0.731  0.0548 -0.3300 -0.3541
   93MOL   H17129795   2.816   5.696   0.591  1.1290 -2.0248 -1.0837
   93MOL   H17229796   2.708   5.899   0.557  0.0708  0.5950 -1.4112
   93MOL   H17329797   2.522   6.041   0.524  1.5350  0.1188 -1.9571
   93MOL   H17429798   2.269   5.690   0.465 -0.0492 -0.7831  2.3723
   93MOL   H17529799   2.472   5.549   0.491  3.1687 -1.0827  1.3175
   93MOL   H17629800   2.599   5.553   0.754  0.1884  1.1481  1.5250
   93MOL   H17729801   2.755   5.475   0.726 -0.9364 -0.8588 -0.4038
   93MOL   C17829802   2.758   5.643   0.853  0.6258  0.6680 -0.3581
   93MOL   C17929803   2.904   5.679   0.841  0.2780  0.4275  0.0097
   93MOL   C18029804   3.001   5.597   0.899  0.9955 -0.0283 -0.7491
   93MOL   C18129805   3.138   5.628   0.902 -0.4570  0.2937 -1.0583
   93MOL   C18229806   3.183   5.750   0.854  0.1511  0.1991 -1.2093
   93MOL  Cl18329807   3.348   5.772   0.822  0.2078 -0.4637  0.3019
   93MOL   C18429808   3.091   5.842   0.803  0.2322  0.5029  0.1274
   93MOL   C18529809   2.953   5.805   0.793  0.3343 -0.5935 -0.4970
   93MOL   C18629810   2.673   5.749   0.907 -0.3257 -0.4398 -0.2178
   93MOL   H18729811   2.764   5.567   0.931 -0.1616  1.7787  0.8044
   93MOL   H18829812   2.977   5.502   0.945  0.0456  1.3445  1.7065
   93MOL   H18929813   3.213   5.564   0.946  0.2301  0.3792 -2.0990
   93MOL   H19029814   3.124   5.934   0.758  0.8514 -0.6779 -1.8704
   93MOL   H19129815   2.881   5.876   0.755 -3.2719 -3.6589  0.3649
   93MOL   H19229816   2.726   5.778   0.998  0.8957 -2.8429 -0.1097
   93MOL   H19329817   2.685   5.840   0.849  1.3569 -0.1767  0.4859
   93MOL   C19429818   2.521   5.724   0.939  0.1648  0.2090 -0.1254
   93MOL   C19529819   2.499   5.607   1.040 -0.2660 -0.2825 -0.6087
   93MOL   C19629820   2.468   5.474   1.009  0.5310 -0.2872  0.6133
   93MOL   C19729821   2.446   5.382   1.107 -0.0142 -0.1531  0.3617
   93MOL   C19829822   2.445   5.419   1.240 -0.0541 -0.0145 -0.5110
   93MOL  Cl19929823   2.392   5.306   1.361 -0.1317  0.0613 -0.0343
   93MOL   C20029824   2.470   5.551   1.272  0.1049 -0.3317  0.5254
   93MOL   C20129825   2.501   5.645   1.174  0.3647  0.0335 -0.2958
   93MOL   C20229826   2.455   5.854   0.982 -0.1618  0.4125 -0.7876
   93MOL   H20329827   2.464   5.700   0.849 -1.1204  0.5756  0.5722
   93MOL   H20429828   2.472   5.441   0.906 -0.5727  1.2115  0.0698
   93MOL   H20529829   2.415   5.283   1.078  0.9627 -0.4764  0.4157
   93MOL   H20629830   2.471   5.586   1.374 -1.5188 -0.5420  0.6154
   93MOL   H20729831   2.525   5.748   1.195 -1.7723  0.0129  2.6774
   93MOL   H20829832   2.512   5.903   1.061 -1.8266  1.3102 -0.1266
   93MOL   H20929833   2.477   5.918   0.897 -0.5902  1.5366 -0.0539
   93MOL   C21029834   2.302   5.855   1.004 -0.3070  0.3884  0.0219
   93MOL   C21129835   2.266   5.967   1.100 -0.0871  0.1515 -0.5588
   93MOL   C21229836   2.193   5.946   1.216 -0.4443 -0.3336 -0.0093
   93MOL   C21329837   2.167   6.050   1.306  0.7863  0.2155 -0.4269
   93MOL   C21429838   2.215   6.182   1.283  0.1207  0.3353 -0.6215
   93MOL  Cl21529839   2.193   6.300   1.407 -0.1675 -0.1700  0.1245
   93MOL   C21629840   2.290   6.205   1.167 -0.2534  0.1888 -0.3054
   93MOL   C21729841   2.319   6.097   1.080  0.1127  0.0408  0.3063
   93MOL   C21829842   2.224   5.862   0.875 -0.2940  0.1258  0.1354
   93MOL   H21929843   2.270   5.767   1.059  0.7673 -1.1287 -1.7545
   93MOL   H22029844   2.157   5.847   1.240 -0.2008  0.2164  2.7870
   93MOL   H22129845   2.108   6.036   1.395 -1.3707 -0.7503 -1.9359
   93MOL   H22229846   2.340   6.299   1.149 -1.1239  0.8441  0.6671
   93MOL   H22329847   2.371   6.133   0.993  0.3712 -0.1103  0.3964
   93MOL   H22429848   2.209   5.967   0.846 -0.1175  0.5015  1.3810
   93MOL   H22529849   2.289   5.833   0.792  0.4987  0.4744  0.6347
   93MOL   C22629850   2.092   5.789   0.869 -0.0429 -0.0360  0.4515
   93MOL   C22729851   2.106   5.636   0.896 -0.6270  0.7187  0.2817
   93MOL   C22829852   2.083   5.584   1.027 -0.1737 -0.2614 -0.2731
   93MOL   C22929853   2.104   5.443   1.048  0.3006  0.1721  0.4425
   93MOL   C23029854   2.155   5.360   0.941  1.1306  0.0060  0.2704
   93MOL  Cl23129855   2.180   5.191   0.971 -0.7104 -0.0192 -0.0259
   93MOL   C23229856   2.173   5.419   0.815  0.5409 -0.3907 -0.2877
   93MOL   C23329857   2.145   5.553   0.791  0.5482 -0.4681 -0.1572
   93MOL   C23429858   1.968   5.851   0.938  0.8475 -0.1423  0.4880
   93MOL   H23529859   2.069   5.794   0.763 -0.8558 -0.0951  0.6228
   93MOL   H23629860   2.069   5.656   1.107  0.7123 -0.2613 -0.1136
   93MOL   H23729861   2.099   5.400   1.147 -1.1010 -0.0746  0.2760
   93MOL   H23829862   2.184   5.355   0.729  3.6144  1.5154 -1.3732
   93MOL   H23929863   2.169   5.593   0.694  1.0943 -1.5694 -0.4885
   93MOL   H24029864   1.987   5.857   1.045 -2.2014 -1.4185  1.1463
   93MOL   H24129865   1.968   5.958   0.913 -1.2251 -0.2552 -0.0240
   93MOL   C24229866   1.833   5.782   0.903  0.7834  0.0658  0.2078
   93MOL   C24329867   1.758   5.760   1.036 -0.0635  0.0013  0.0562
   93MOL   C24429868   1.727   5.633   1.082  0.3498  0.6412  0.5806
   93MOL   C24529869   1.650   5.618   1.198 -0.3908 -0.3155  0.0477
   93MOL   C24629870   1.595   5.731   1.262  0.6667 -0.8943  0.5779
   93MOL  Cl24729871   1.483   5.703   1.398  0.0470 -0.2626 -0.4803
   93MOL   C24829872   1.634   5.863   1.225 -0.3624 -0.7496 -0.1711
   93MOL   C24929873   1.713   5.871   1.107 -0.4264 -0.2623 -0.5901
   93MOL   C25029874   1.744   5.870   0.809  0.6585  0.7110 -0.1165
   93MOL   H25129875   1.867   5.692   0.853  2.0376  0.9137 -0.4795
   93MOL   H25229876   1.764   5.553   1.021  0.1588  2.3482 -1.8677
   93MOL   H25329877   1.637   5.517   1.235  0.0386 -0.5516 -0.4389
   93MOL   H25429878   1.592   5.945   1.281  1.9075  1.8394 -2.1214
   93MOL   H25529879   1.734   5.971   1.073  4.3596 -0.1454  2.2916
   93MOL   H25629880   1.647   5.821   0.807 -0.2697  2.0481  4.5374
   93MOL   H25729881   1.729   5.965   0.861  0.8132  1.0795 -0.7395
   93MOL   C25829882   1.790   5.905   0.675  0.2482 -0.2387 -0.0799
   93MOL   C25929883   1.807   5.785   0.589 -0.0208 -0.5079  0.7118
   93MOL   C26029884   1.726   5.669   0.606 -0.1580  0.1918  0.9659
   93MOL   C26129885   1.771   5.551   0.549  0.0101 -0.7571  0.1927
   93MOL   C26229886   1.888   5.541   0.474 -1.2539 -0.4857  0.0392
   93MOL  Cl26329887   1.931   5.381   0.429 -0.3908  0.0810  0.2289
   93MOL   C26429888   1.958   5.661   0.439  0.2685 -0.1216 -0.2645
   93MOL   C26529889   1.917   5.779   0.501 -0.4945  0.3381 -0.3544
   93MOL   C26629890   1.710   6.020   0.601 -0.7803 -0.1150  0.2045
   93MOL   H26729891   1.893   5.938   0.690  0.4352 -0.8293 -0.0729
   93MOL   H26829892   1.637   5.667   0.667 -0.6394 -2.3063  0.2310
   93MOL   H26929893   1.723   5.458   0.575  3.8968 -1.7003  4.6486
   93MOL   H27029894   2.049   5.666   0.381  0.1378  2.7091 -0.2747
   93MOL   H27129895   1.983   5.865   0.498 -0.1457  0.0371 -1.7577
   93MOL   H27229896   1.768   6.018   0.508 -0.5501  1.6493  0.2979
   93MOL   H27329897   1.609   5.986   0.579 -1.1385  0.4361  0.9982
   93MOL   C27429898   1.722   6.162   0.667  0.0198  0.4248 -0.9384
   93MOL   C27529899   1.868   6.200   0.705  0.4505 -0.1527  0.0274
   93MOL   C27629900   1.897   6.255   0.829 -0.1976  0.2034 -0.3207
   93MOL   C27729901   2.026   6.296   0.860 -0.2206  0.7058 -0.1768
   93MOL   C27829902   2.131   6.291   0.764 -0.0437  0.2225  0.4114
   93MOL  Cl27929903   2.295   6.335   0.795  0.0091  0.3214  0.2183
   93MOL   C28029904   2.104   6.226   0.643  0.1998  0.0838 -0.1074
   93MOL   C28129905   1.970   6.185   0.617  0.8099  0.2611 -0.8884
   93MOL   C28229906   1.656   6.268   0.591 -0.6070  0.1849  0.0511
   93MOL   H28329907   1.667   6.170   0.761  2.7251 -1.9322  0.9186
   93MOL   H28429908   1.816   6.266   0.899  0.3702 -2.2543  0.7926
   93MOL   H28529909   2.036   6.350   0.953  1.6921  0.4023 -0.1991
   93MOL   H28629910   2.180   6.209   0.567  0.3665  2.7896 -0.6042
   93MOL   H28729911   1.942   6.143   0.522  0.7896  0.9863 -1.2029
   93MOL   H28829912   1.674   6.356   0.653  0.2534  0.6467 -0.8375
   93MOL   H28929913   1.710   6.300   0.502 -0.4139 -2.0216 -0.6530
   93MOL   C29029914   1.512   6.244   0.543  0.4024 -0.3068  0.9743
   93MOL   C29129915   1.406   6.206   0.656  0.3538 -0.2611 -0.4504
   93MOL   C29229916   1.412   6.266   0.778  0.1516 -0.4606 -0.1105
   93MOL   C29329917   1.324   6.234   0.876 -0.0544 -1.1256  0.3830
   93MOL   C29429918   1.222   6.137   0.850 -0.0783 -0.2985  0.0750
   93MOL  Cl29529919   1.092   6.111   0.967  0.1465  0.3467 -0.1191
   93MOL   C29629920   1.219   6.071   0.726  0.1080  0.5994 -0.2647
   93MOL   C29729921   1.309   6.111   0.626 -0.0404  0.3246  0.4463
   93MOL   C29829922   1.451   6.360   0.457  0.7819 -0.7300 -0.3547
   93MOL   H29929923   1.508   6.162   0.472  1.0777  2.6749 -2.6558
   93MOL   H30029924   1.480   6.349   0.794 -0.2040 -0.2424  0.2694
   93MOL   H30129925   1.318   6.292   0.968  0.1601  1.2643 -1.0671
   93MOL   H30229926   1.133   6.011   0.701 -0.7360  1.5399  0.3266
   93MOL   H30329927   1.330   6.068   0.529  0.7315 -0.4545  0.9527
   93MOL   H30429928   1.342   6.360   0.463  0.8354  0.1333  0.9617
   93MOL   H30529929   1.495   6.453   0.494 -0.0269  0.2561 -1.7947
   93MOL   C30629930   1.499   6.346   0.306  0.6292 -0.0044 -0.6936
   93MOL   C30729931   1.424   6.238   0.221  0.4071  0.0522  0.1011
   93MOL   C30829932   1.478   6.214   0.089  0.7078 -0.5859 -0.3749
   93MOL   C30929933   1.417   6.117   0.007  0.2770  0.2999 -0.2454
   93MOL   C31029934   1.307   6.045   0.055  0.6311  0.3462  0.6529
   93MOL  Cl31129935   1.229   5.923   8.410 -0.3794 -0.0049 -0.0947
   93MOL   C31229936   1.242   6.080   0.177 -0.1277  0.0864 -0.4037
   93MOL   C31329937   1.307   6.168   0.261 -0.2081 -0.3888 -0.5860
   93MOL   C31429938   1.484   6.487   0.238 -0.4001  0.2922 -0.4288
   93MOL   H31529939   1.606   6.325   0.312  0.3087 -1.4738  0.2397
   93MOL   H31629940   1.565   6.263   0.048 -0.5538  2.7637  0.8025
   93MOL   H31729941   1.465   6.097   8.355  2.1784  4.0517 -0.1516
   93MOL   H31829942   1.151   6.030   0.207 -0.6875  0.1825 -1.8972
   93MOL   H31929943   1.273   6.188   0.362  0.3760  1.3155 -0.7151
   93MOL   H32029944   1.542   6.491   0.146 -0.5150  0.1217 -0.5089
   93MOL   H32129945   1.381   6.523   0.231 -1.0680 -1.0810  1.8010
   93MOL   H32229946   1.536   6.562   0.297 -0.6228 -1.0412  1.5351
   94MOL     C129947   3.076   0.327   5.214 -0.2101  0.4840 -0.5578
   94MOL     C229948   3.137   0.391   5.094 -0.0796  0.3058  0.3634
   94MOL     C329949   3.128   0.331   4.966  0.1692  0.4475  0.2400
   94MOL     C429950   3.195   0.384   4.849 -1.1774 -0.1700 -0.0760
   94MOL     C529951   3.283   0.490   4.873 -0.9184  0.1973 -0.1317
   94MOL    Cl629952   3.392   0.527   4.752  0.0240 -0.3689  0.1175
   94MOL     C729953   3.295   0.552   4.999  0.0457  0.3420 -0.2012
   94MOL     C829954   3.223   0.502   5.108 -0.3836 -0.0041 -0.4096
   94MOL     C929955   3.175   0.228   5.276 -0.6018 -0.0771 -0.2403
   94MOL    H1029956   2.978   0.284   5.193  0.6569 -0.5059 -2.7928
   94MOL    H1129957   3.058   0.251   4.946 -1.8811  1.8459  1.6321
   94MOL    H1229958   3.208   0.341   4.751 -0.2438 -0.9837  0.4028
   94MOL    H1329959   3.352   0.643   5.005 -1.6566  1.4558 -0.4495
   94MOL    H1429960   3.224   0.548   5.205  1.4815 -0.0922 -0.3773
   94MOL    H1529961   3.123   0.157   5.340  0.7685 -1.5294 -0.7181
   94MOL    H1629962   3.215   0.164   5.198  0.0028 -0.6880  0.5679
   94MOL    H1729963   3.045   0.398   5.290  2.7338  1.2052  0.0258
   94MOL    C1829964   3.288   0.293   5.358 -0.0506  0.0734  0.0840
   94MOL    C1929965   3.237   0.345   5.488  0.0525 -0.0062 -0.0392
   94MOL    C2029966   3.197   0.250   5.586 -0.2712  0.7770  0.0992
   94MOL    C2129967   3.163   0.302   5.715 -0.2711  0.9522  0.3638
   94MOL    C2229968   3.164   0.442   5.741 -0.2182 -0.2328  0.3913
   94MOL   Cl2329969   3.132   0.486   5.902  0.0265  0.2855 -0.4409
   94MOL    C2429970   3.205   0.533   5.640 -0.7413 -0.3598 -0.1602
   94MOL    C2529971   3.242   0.478   5.515  0.2253 -0.2725  0.2932
   94MOL    C2629972   3.407   0.196   5.381 -0.2636  0.1458  0.7339
   94MOL    H2729973   3.326   0.375   5.297 -1.9716  1.5059  0.7330
   94MOL    H2829974   3.198   0.143   5.573 -0.7154  0.5898  1.5300
   94MOL    H2929975   3.138   0.236   5.797 -0.8726  0.7191  0.0031
   94MOL    H3029976   3.216   0.639   5.654  1.8818 -0.6076 -0.1091
   94MOL    H3129977   3.279   0.549   5.442 -2.1856  0.3141 -0.4059
   94MOL    H3229978   3.465   0.242   5.461  0.2135  1.4777 -0.3643
   94MOL    H3329979   3.375   0.099   5.419  0.5213 -1.3160 -2.1618
   94MOL    C3429980   3.505   0.169   5.258  0.7774  0.2127  0.0748
   94MOL    C3529981   3.552   0.300   5.182  0.2241  0.2283 -0.6242
   94MOL    C3629982   3.570   0.423   5.249  0.7164  0.5758  0.3562
   94MOL    C3729983   3.629   0.533   5.186  0.4836  1.1600  0.1223
   94MOL    C3829984   3.661   0.524   5.049 -0.4806  0.7685 -0.2149
   94MOL   Cl3929985   3.752   0.655   4.979 -0.2346 -0.0880  0.1323
   94MOL    C4029986   3.643   0.405   4.980 -0.3285  0.0426 -0.2303
   94MOL    C4129987   3.592   0.293   5.045 -0.8879  0.1155 -0.0720
   94MOL    C4229988   3.629   0.081   5.292  0.3834  0.4654  0.3828
   94MOL    H4329989   3.440   0.121   5.186 -2.1288  0.2833  2.5678
   94MOL    H4429990   3.556   0.431   5.356  0.0152  1.9718  0.1694
   94MOL    H4529991   3.652   0.626   5.235 -2.2930  1.9429  0.0002
   94MOL    H4629992   3.685   0.392   4.881 -0.9720  2.3720 -0.8396
   94MOL    H4729993   3.585   0.201   4.988  1.4585 -0.1959  0.0829
   94MOL    H4829994   3.684   0.062   5.200 -1.0249  0.3240 -0.4616
   94MOL    H4929995   3.687   0.147   5.355 -0.5793  1.7594 -0.0411
   94MOL    C5029996   3.598   8.383   5.350  0.1039 -0.2251  0.3701
   94MOL    C5129997   3.504   8.303   5.273 -0.4912 -0.1255  0.1968
   94MOL    C5229998   3.380   8.258   5.325 -0.5692  0.0461 -0.0877
   94MOL    C5329999   3.303   8.161   5.252 -0.0349  0.9366  0.5875
   94MOL    C5430000   3.337   8.111   5.123 -1.0042  0.4401 -0.3875
   94MOL   Cl5530001   3.248   7.992   5.040  0.5722 -0.0128  0.0691
   94MOL    C5630002   3.454   8.172   5.065  0.2997 -0.1274  0.1632
   94MOL    C5730003   3.532   8.262   5.139 -0.2285  0.3597  0.6073
   94MOL    C5830004   3.716   8.300   5.394 -0.3257  0.0389  0.2453
   94MOL    H5930005   3.551   8.396   5.447  0.3604 -1.8617  0.7390
   94MOL    H6030006   3.343   8.292   5.420 -0.9764  1.5137 -0.7663
   94MOL    H6130007   3.216   8.113   5.294 -0.1384 -1.0031 -1.7501
   94MOL    H6230008   3.480   8.151   4.962  2.3191  0.6325  0.4766
   94MOL    H6330009   3.618   8.300   5.086  1.1076 -1.3487  1.4898
   94MOL    H6430010   3.772   8.275   5.304 -2.5903 -1.0707 -0.9116
   94MOL    H6530011   3.791   8.364   5.439 -0.4789  1.7762 -1.9072
   94MOL    C6630012   3.696   8.170   5.482  0.7403  0.6881 -0.9780
   94MOL    C6730013   3.821   8.081   5.486  0.2609  0.2855  0.0931
   94MOL    C6830014   3.802   7.948   5.516  0.1342  0.5587 -0.3869
   94MOL    C6930015   3.910   7.857   5.513  0.6774 -0.5729  0.2774
   94MOL    C7030016   4.037   7.901   5.483  0.0749  0.1252  0.2169
   94MOL   Cl7130017   4.168   7.789   5.483 -0.5438 -0.1764  0.0876
   94MOL    C7230018   4.050   8.035   5.442 -0.5119 -0.3795  0.2884
   94MOL    C7330019   3.952   8.126   5.456  0.1419 -0.3564  0.3132
   94MOL    C7430020   3.629   8.183   5.624 -0.6270  0.2321 -0.3900
   94MOL    H7530021   3.626   8.123   5.413  1.2045  0.4457 -1.2803
   94MOL    H7630022   3.705   7.906   5.535  0.0329  0.8512 -0.2588
   94MOL    H7730023   3.889   7.754   5.540 -1.4470  0.2703  1.8625
   94MOL    H7830024   4.150   8.069   5.417 -0.2952 -1.3023 -0.1113
   94MOL    H7930025   3.966   8.229   5.425  1.0155 -0.8814 -1.0833
   94MOL    H8030026   3.529   8.227   5.626 -0.7862 -0.1207 -0.6848
   94MOL    H8130027   3.614   8.083   5.664  0.4620  0.3605  0.3964
   94MOL    C8230028   3.711   8.256   5.726 -0.3093 -0.4576 -0.8909
   94MOL    C8330029   3.701   8.405   5.711  0.2209  0.1143  0.3788
   94MOL    C8430030   3.573   0.021   5.737 -0.2705  0.9687  0.2008
   94MOL    C8530031   3.551   0.160   5.716  0.2794 -0.1195 -0.9570
   94MOL    C8630032   3.659   0.241   5.676  0.4082  0.5057 -0.4932
   94MOL   Cl8730033   3.645   0.408   5.622 -0.0442  0.2862 -0.1973
   94MOL    C8830034   3.789   0.185   5.668 -1.6056 -0.4284 -0.4716
   94MOL    C8930035   3.809   0.047   5.675 -0.1415 -0.0836  0.1854
   94MOL    C9030036   3.668   8.224   5.877  0.5903 -0.3267  0.6298
   94MOL    H9130037   3.815   8.224   5.719 -0.5079 -1.4927  0.5180
   94MOL    H9230038   3.487   8.404   5.760  1.4893 -1.0496  1.5972
   94MOL    H9330039   3.452   0.199   5.732 -1.1821 -2.9625 -2.4724
   94MOL    H9430040   3.876   0.244   5.643 -0.4386 -0.4126  3.3636
   94MOL    H9530041   3.913   0.016   5.667  0.0949  1.1165 -1.8048
   94MOL    H9630042   3.675   8.313   5.939 -0.7138  0.0419  0.2494
   94MOL    H9730043   3.561   8.215   5.893  0.8312 -0.9366  2.0112
   94MOL    C9830044   3.759   8.119   5.940  0.1311  0.3654 -0.1270
   94MOL    C9930045   3.894   8.178   5.971  0.0613 -0.9517 -0.4859
   94MOL   C10030046   3.920   8.272   6.074 -0.2578  0.5327 -0.1872
   94MOL   C10130047   4.048   8.314   6.102  0.4771  0.0138  0.6073
   94MOL   C10230048   4.155   8.255   6.026  0.2204  1.0545  1.1025
   94MOL  Cl10330049   4.317   8.293   6.063 -0.3555 -0.0038  0.3622
   94MOL   C10430050   4.132   8.152   5.932  0.5283 -0.5646 -0.1811
   94MOL   C10530051   4.002   8.112   5.909 -0.5839 -0.7053 -0.5422
   94MOL   C10630052   3.697   8.038   6.060 -1.1715  0.0855  0.0659
   94MOL   H10730053   3.765   8.045   5.860  3.2211  1.3675 -0.9007
   94MOL   H10830054   3.851   8.324   6.139  2.2652  2.0495  1.3519
   94MOL   H10930055   4.077   8.379   6.183  1.3133 -1.0821  1.2067
   94MOL   H11030056   4.216   8.120   5.873 -2.1339 -1.0242 -3.9363
   94MOL   H11130057   3.986   8.030   5.840  1.8115 -1.2151 -0.5520
   94MOL   H11230058   3.774   7.971   6.099 -0.2986  1.3833  0.6125
   94MOL   H11330059   3.664   8.102   6.142  0.4167 -0.5815  1.2574
   94MOL   C11430060   3.583   7.950   6.007 -0.4087  0.3461 -0.6360
   94MOL   C11530061   3.631   7.807   5.967 -0.5067 -0.1678 -0.3667
   94MOL   C11630062   3.668   7.719   6.071  0.3244 -0.4027  0.6053
   94MOL   C11730063   3.721   7.587   6.047 -0.3150  0.5835  0.1867
   94MOL   C11830064   3.722   7.536   5.918 -0.3592  0.5309 -0.3703
   94MOL  Cl11930065   3.775   7.374   5.895  0.0849  0.3599  0.0310
   94MOL   C12030066   3.666   7.613   5.818 -0.1553 -0.0925  0.5373
   94MOL   C12130067   3.625   7.750   5.839  0.6534  0.8304  0.1216
   94MOL   C12230068   3.465   7.955   6.111 -0.4158 -0.3774  0.4758
   94MOL   H12330069   3.543   7.992   5.915  1.1676  0.8622 -1.1026
   94MOL   H12430070   3.653   7.749   6.173 -0.3765 -0.8144  0.6309
   94MOL   H12530071   3.758   7.541   6.138 -0.1266 -0.0328 -0.2011
   94MOL   H12630072   3.672   7.558   5.726 -0.8195  1.6920 -0.6018
   94MOL   H12730073   3.581   7.801   5.755  0.9178 -0.8751 -1.0832
   94MOL   H12830074   3.413   7.862   6.090  0.7022 -0.7447 -0.7310
   94MOL   H12930075   3.512   7.943   6.209  1.0532  1.1881 -0.0150
   94MOL   C13030076   3.376   8.079   6.129 -0.5017 -0.3507  0.6521
   94MOL   C13130077   3.306   8.124   6.000 -0.5702  0.3263 -0.4334
   94MOL   C13230078   3.329   8.253   5.948  0.1665  0.3192  0.2274
   94MOL   C13330079   3.266   8.298   5.829  0.1233  0.3323 -0.1907
   94MOL   C13430080   3.185   8.202   5.758 -0.2931 -0.0123  0.7255
   94MOL  Cl13530081   3.122   8.241   5.604 -0.0873 -0.4058  0.0390
   94MOL   C13630082   3.165   8.071   5.809 -0.3367 -0.7521 -0.6879
   94MOL   C13730083   3.226   8.033   5.933 -0.5245  0.2584 -0.2337
   94MOL   C13830084   3.274   8.057   6.243 -0.1267  0.4827  0.1221
   94MOL   H13930085   3.438   8.160   6.167 -1.4597 -0.7075  3.0471
   94MOL   H14030086   3.397   8.313   6.007  1.1549 -0.5197 -0.0502
   94MOL   H14130087   3.306   8.392   5.793 -0.4240  1.3024  1.6979
   94MOL   H14230088   3.110   7.990   5.763  0.6205 -1.3998 -0.7277
   94MOL   H14330089   3.211   7.935   5.975 -0.1771 -0.1771 -1.1258
   94MOL   H14430090   3.221   7.967   6.213  1.5845 -0.6198  0.3278
   94MOL   H14530091   3.321   8.036   6.339  0.8909 -0.3245 -0.5497
   94MOL   C14630092   3.172   8.175   6.259 -0.2049  0.0759 -0.0631
   94MOL   C14730093   3.027   8.124   6.262  0.9157 -0.2583 -0.1686
   94MOL   C14830094   2.973   8.080   6.391 -0.3025  0.3795  0.4591
   94MOL   C14930095   2.843   8.017   6.387 -0.0923 -0.5254 -0.1876
   94MOL   C15030096   2.779   7.991   6.265  0.4053 -0.5594  0.4005
   94MOL  Cl15130097   2.631   7.907   6.264 -0.0015 -0.0102 -0.0775
   94MOL   C15230098   2.835   8.038   6.146  0.0851  0.6443 -0.1154
   94MOL   C15330099   2.959   8.097   6.140 -0.3052 -0.6939  0.2277
   94MOL   C15430100   3.216   8.263   6.378  0.7773 -0.3285 -0.4394
   94MOL   H15530101   3.185   8.245   6.177 -0.1251 -0.7476 -0.7626
   94MOL   H15630102   3.022   8.100   6.486  3.5608  0.0454 -1.3630
   94MOL   H15730103   2.803   7.979   6.480 -1.7463 -1.5947 -1.2946
   94MOL   H15830104   2.778   8.015   6.057 -0.9588  0.4358  0.6026
   94MOL   H15930105   2.996   8.135   6.046  1.1475  0.7297  1.3385
   94MOL   H16030106   3.206   8.214   6.474  0.3968 -1.6628 -1.1543
   94MOL   H16130107   3.322   8.284   6.364  0.4031  1.6343 -0.4701
   94MOL   C16230108   3.138   8.395   6.385 -0.2006 -0.8286  0.7619
   94MOL   C16330109   3.111   8.431   6.535 -0.3324  0.0733 -0.0143
   94MOL   C16430110   3.209   0.047   6.618 -0.0836 -0.5133  0.8954
   94MOL   C16530111   3.183   0.057   6.754  1.9357  0.0069  0.4673
   94MOL   C16630112   3.048   0.033   6.803 -0.5390 -0.0953  0.1704
   94MOL  Cl16730113   3.001   0.078   6.965  0.0606 -0.0198  0.3994
   94MOL   C16830114   2.953   8.417   6.721 -0.1839 -0.0590  0.1548
   94MOL   C16930115   2.987   8.389   6.588 -0.3150  0.3965 -0.3435
   94MOL   C17030116   3.199   0.081   6.314  0.2794 -0.3813  0.2155
   94MOL   H17130117   3.039   8.380   6.342 -0.9193  0.5037  1.9126
   94MOL   H17230118   3.303   0.076   6.575  0.6042 -2.3108  1.1371
   94MOL   H17330119   3.248   0.091   6.833 -1.0309 -0.6656  3.3322
   94MOL   H17430120   2.857   8.390   6.761 -0.7860  0.3048 -1.0344
   94MOL   H17530121   2.917   8.332   6.529 -0.1492 -1.0136  0.7976
   94MOL   H17630122   3.293   0.096   6.367 -1.3093 -0.5895  3.1922
   94MOL   H17730123   3.241   0.055   6.217  0.4972  0.5770  0.0504
   94MOL   C17830124   3.110   0.209   6.312 -0.8531  0.6773  0.1971
   94MOL   C17930125   3.191   0.342   6.311 -0.7855 -0.0922 -1.2094
   94MOL   C18030126   3.299   0.351   6.219  0.8756 -0.0667  0.5890
   94MOL   C18130127   3.379   0.469   6.222 -0.1651  0.1627  0.2688
   94MOL   C18230128   3.354   0.570   6.318 -0.7364  0.4007 -0.2461
   94MOL  Cl18330129   3.465   0.700   6.317 -0.0752  0.0613  0.2903
   94MOL   C18430130   3.236   0.566   6.399 -0.2226  0.2571  0.3154
   94MOL   C18530131   3.161   0.450   6.399 -0.1999 -0.2713 -0.2263
   94MOL   C18630132   2.990   0.204   6.211 -0.6829 -0.3156 -0.0644
   94MOL   H18730133   3.076   0.204   6.415  1.5596 -0.5140  0.9787
   94MOL   H18830134   3.321   0.273   6.148  1.6120  1.2865 -0.6802
   94MOL   H18930135   3.464   0.472   6.155 -0.8357 -1.1112 -0.6668
   94MOL   H19030136   3.214   0.653   6.460  0.2922  0.3885  0.3209
   94MOL   H19130137   3.094   0.436   6.482 -0.1411 -1.5726 -0.3990
   94MOL   H19230138   3.028   0.222   6.111  0.2243 -0.3517  0.2645
   94MOL   H19330139   2.951   0.103   6.228  1.0302 -0.6609  2.0688
   94MOL   C19430140   2.865   0.294   6.242 -0.4254 -0.2562 -0.0427
   94MOL   C19530141   2.820   0.291   6.390  0.0136  0.7084 -0.6002
   94MOL   C19630142   2.771   0.168   6.441  0.7828 -0.6881 -0.5419
   94MOL   C19730143   2.736   0.162   6.576  0.3329 -0.1018 -0.8265
   94MOL   C19830144   2.753   0.275   6.657 -0.1578 -0.5188  0.8937
   94MOL  Cl19930145   2.702   0.272   6.820  0.8774 -0.1015  0.1788
   94MOL   C20030146   2.799   0.401   6.605 -0.3226 -0.3129  0.2196
   94MOL   C20130147   2.836   0.408   6.474  0.6955 -0.1701 -0.3052
   94MOL   C20230148   2.879   0.431   6.176  0.1358  0.7567  0.6418
   94MOL   H20330149   2.783   0.244   6.191 -1.3150  2.1345 -1.0069
   94MOL   H20430150   2.763   0.084   6.374  0.4702 -0.7266 -0.4579
   94MOL   H20530151   2.685   0.078   6.620 -2.2664  2.0880  0.4829
   94MOL   H20630152   2.808   0.489   6.668 -2.8879  0.1772 -0.0184
   94MOL   H20730153   2.864   0.505   6.435 -1.5127 -0.0306 -1.6775
   94MOL   H20830154   2.964   0.474   6.229 -0.4551  0.0625  2.1800
   94MOL   H20930155   2.916   0.417   6.075 -0.6415  2.4406  0.0966
   94MOL   C21030156   2.744   0.509   6.160  0.6332 -0.4814 -0.4040
   94MOL   C21130157   2.765   0.663   6.169 -0.0715 -0.0035 -0.3679
   94MOL   C21230158   2.676   0.743   6.244  0.6820  0.4711 -0.6858
   94MOL   C21330159   2.698   0.879   6.263 -0.3362 -0.6282  1.4656
   94MOL   C21430160   2.811   0.940   6.200 -0.1402 -0.1617 -0.3942
   94MOL  Cl21530161   2.827   1.109   6.221  0.0589 -0.1818  0.1574
   94MOL   C21630162   2.899   0.866   6.118 -0.1035  0.0419 -0.1727
   94MOL   C21730163   2.878   0.726   6.109  0.4955 -0.5375  0.4005
   94MOL   C21830164   2.671   0.467   6.034 -0.3508 -0.1546 -0.1844
   94MOL   H21930165   2.680   0.470   6.239  0.4164 -0.5068 -0.5909
   94MOL   H22030166   2.590   0.691   6.284  1.2637  0.3829  0.4982
   94MOL   H22130167   2.627   0.943   6.313 -0.4297 -0.7586  1.4983
   94MOL   H22230168   2.982   0.918   6.072  0.8639 -0.3062  1.1197
   94MOL   H22330169   2.951   0.664   6.059  0.2264  0.1144 -0.8111
   94MOL   H22430170   2.732   0.507   5.953  1.5610  0.2320  1.4215
   94MOL   H22530171   2.675   0.359   6.015 -0.0122  0.0327 -1.2320
   94MOL   C22630172   2.532   0.525   6.021 -0.4036 -0.1103 -0.1335
   94MOL   C22730173   2.520   0.630   5.913  0.3769  0.2072 -0.7149
   94MOL   C22830174   2.498   0.594   5.777 -0.8269 -0.2302  0.1853
   94MOL   C22930175   2.483   0.697   5.686  0.2357  0.8750  0.3978
   94MOL   C23030176   2.467   0.830   5.729 -0.1872  0.2949  0.1093
   94MOL  Cl23130177   2.434   0.957   5.615 -0.2805  0.4039  0.0504
   94MOL   C23230178   2.476   0.863   5.865 -0.7603  0.2865  0.3746
   94MOL   C23330179   2.502   0.759   5.957  0.6703 -0.8904  0.5774
   94MOL   C23430180   2.416   0.421   6.025  1.3876 -0.1031 -0.1364
   94MOL   H23530181   2.518   0.578   6.115 -0.9334 -2.4305  1.1343
   94MOL   H23630182   2.498   0.489   5.754  0.1311  0.0505 -1.1379
   94MOL   H23730183   2.471   0.668   5.582 -0.6206  2.2059  0.1252
   94MOL   H23830184   2.451   0.960   5.905 -2.1667 -0.2873  0.9162
   94MOL   H23930185   2.512   0.791   6.060  1.8312  1.0183 -0.0974
   94MOL   H24030186   2.324   0.476   6.003  1.4862 -0.5469 -1.7087
   94MOL   H24130187   2.439   0.358   5.940  0.4479 -1.9008  0.9102
   94MOL   C24230188   2.406   0.347   6.163  0.9371  0.9738 -0.0589
   94MOL   C24330189   2.375   0.437   6.280  0.4468  0.5641 -0.2521
   94MOL   C24430190   2.466   0.450   6.389  0.0105 -0.3416  0.4793
   94MOL   C24530191   2.425   0.541   6.493  0.2005 -0.0453  0.6176
   94MOL   C24630192   2.302   0.609   6.493 -0.4354  0.2217 -0.6031
   94MOL  Cl24730193   2.264   0.717   6.624  0.0890  0.0130  0.2588
   94MOL   C24830194   2.218   0.595   6.385  0.2111  0.9415 -0.3873
   94MOL   C24930195   2.253   0.508   6.276  0.0371  0.8069  0.0758
   94MOL   C25030196   2.321   0.214   6.160 -0.8458  0.3822 -0.1674
   94MOL   H25130197   2.510   0.316   6.172  0.7223  0.3588  0.3938
   94MOL   H25230198   2.550   0.385   6.410  0.8498 -0.0124 -1.6685
   94MOL   H25330199   2.491   0.556   6.576 -1.3845  0.4600  1.8062
   94MOL   H25430200   2.122   0.646   6.380 -1.1736 -1.6922 -1.4111
   94MOL   H25530201   2.193   0.486   6.189  1.5504  1.7340 -1.2242
   94MOL   H25630202   2.338   0.158   6.252 -1.6544 -1.1664 -0.9179
   94MOL   H25730203   2.213   0.231   6.165 -1.2684 -1.5586 -1.6514
   94MOL   C25830204   2.349   0.120   6.034 -0.5791 -0.4901 -0.2338
   94MOL   C25930205   2.494   0.084   6.001 -0.6635  0.6672  0.7193
   94MOL   C26030206   2.562   0.117   5.873  0.6442 -0.4093 -0.3152
   94MOL   C26130207   2.700   0.091   5.865 -0.4753 -0.6204  0.5201
   94MOL   C26230208   2.774   0.027   5.972  0.3713 -1.0058  0.8254
   94MOL  Cl26330209   2.943   8.434   5.955 -0.2493 -0.4166  0.1132
   94MOL   C26430210   2.703   8.441   6.089  0.1904  0.0748 -0.6247
   94MOL   C26530211   2.565   0.018   6.106 -0.6336 -0.7199 -0.4220
   94MOL   C26630212   2.261   8.430   6.044  0.2001 -0.3786 -0.4378
   94MOL   H26730213   2.307   0.177   5.951 -0.2414  1.8160  1.1268
   94MOL   H26830214   2.519   0.179   5.796  1.4307  1.8537  1.0121
   94MOL   H26930215   2.767   0.126   5.787  0.0215 -0.2673  1.1030
   94MOL   H27030216   2.771   8.406   6.165  0.2019 -0.8914 -1.0735
   94MOL   H27130217   2.512   8.432   6.196  0.1201  0.4892  0.4219
   94MOL   H27230218   2.296   8.359   6.120 -2.0111  0.3740  1.3359
   94MOL   H27330219   2.164   0.024   6.080  0.9271  0.5589  0.6041
   94MOL   C27430220   2.238   8.352   5.915  0.0529 -0.0948  0.3272
   94MOL   C27530221   2.358   8.268   5.878 -0.1226 -0.3777  0.1975
   94MOL   C27630222   2.423   8.277   5.750  0.0999  0.0017  0.6153
   94MOL   C27730223   2.546   8.212   5.725  0.2626 -0.6113 -0.2746
   94MOL   C27830224   2.594   8.116   5.814 -0.7635 -0.2219 -0.4822
   94MOL  Cl27930225   2.736   8.025   5.784 -0.3381 -0.2377  0.2069
   94MOL   C28030226   2.518   8.089   5.929  0.4229 -0.2591  0.9266
   94MOL   C28130227   2.403   8.169   5.961 -0.1206  0.5748 -0.9855
   94MOL   C28230228   2.111   8.266   5.907  0.2805  0.2199 -0.5525
   94MOL   H28330229   2.231   8.430   5.839 -1.2456  1.3548  1.8781
   94MOL   H28430230   2.386   8.350   5.680 -3.2205  0.0036  2.2825
   94MOL   H28530231   2.594   8.228   5.629 -0.9536 -2.0579 -1.1390
   94MOL   H28630232   2.552   8.015   6.000  3.2947  0.4148  0.3219
   94MOL   H28730233   2.354   8.161   6.057  2.9468 -0.8341  0.5422
   94MOL   H28830234   2.101   8.201   5.993  0.5299  0.9729  0.0476
   94MOL   H28930235   2.032   8.341   5.907  0.7901  0.8091 -2.8355
   94MOL   C29030236   2.101   8.180   5.773  0.1967  1.0233  0.2760
   94MOL   C29130237   2.115   8.029   5.802 -0.2848  0.2999  0.2065
   94MOL   C29230238   2.219   7.967   5.744  0.3163  0.8889 -0.3368
   94MOL   C29330239   2.256   7.835   5.781 -0.6513 -0.4209  0.2924
   94MOL   C29430240   2.169   7.763   5.859 -0.2431  0.6345 -0.5149
   94MOL  Cl29530241   2.230   7.603   5.908  0.0393  0.0237  0.0289
   94MOL   C29630242   2.048   7.819   5.911 -0.7820 -1.0010 -0.1231
   94MOL   C29730243   2.022   7.958   5.882 -0.8082 -0.0407  0.4680
   94MOL   C29830244   1.966   8.227   5.703 -0.1342  0.6808 -0.1899
   94MOL   H29930245   2.173   8.205   5.695 -0.2630  3.1731  0.5093
   94MOL   H30030246   2.291   8.010   5.676  0.2611  3.4436  1.1472
   94MOL   H30130247   2.348   7.797   5.739  0.7403 -0.2534  3.0356
   94MOL   H30230248   1.991   7.761   5.981  0.9421  0.5004  2.5906
   94MOL   H30330249   1.939   8.010   5.928 -1.5875 -0.6035 -0.2877
   94MOL   H30430250   1.884   8.217   5.775  0.5899 -3.0103  0.2447
   94MOL   H30530251   1.970   8.332   5.676 -1.2711  1.8573  3.8420
   94MOL   C30630252   1.919   8.135   5.595 -0.0847 -0.0376  0.6860
   94MOL   C30730253   1.765   8.151   5.577  0.5473  0.2616  0.5054
   94MOL   C30830254   1.677   8.074   5.662 -0.0639  0.3114  0.6061
   94MOL   C30930255   1.536   8.094   5.658 -0.1763 -0.6146  0.1247
   94MOL   C31030256   1.486   8.189   5.564  1.0214 -0.3552 -0.5864
   94MOL  Cl31130257   1.320   8.232   5.562 -0.1163 -0.3594  0.1674
   94MOL   C31230258   1.567   8.263   5.479 -0.1002 -0.0425  0.0892
   94MOL   C31330259   1.708   8.247   5.487  0.3934 -0.2752 -0.0417
   94MOL   C31430260   1.986   8.168   5.461 -0.2489 -0.0267  0.3842
   94MOL   H31530261   1.943   8.032   5.623  0.1972  0.7219  3.4007
   94MOL   H31630262   1.722   8.001   5.728  1.0391  1.5165  1.2140
   94MOL   H31730263   1.479   8.035   5.729 -0.6008 -1.7030 -1.1151
   94MOL   H31830264   1.528   8.340   5.414  0.7304  0.3963  0.1081
   94MOL   H31930265   1.773   8.297   5.417 -0.7679 -0.3955 -1.2313
   94MOL   H32030266   2.089   8.132   5.454  0.0410  0.4643  1.9095
   94MOL   H32130267   1.935   8.131   5.372 -1.5186  1.4931  0.4596
   94MOL   H32230268   1.997   8.276   5.449  0.1065 -0.1899 -0.8688
   95MOL     C130269   5.922   2.638   8.349 -0.1531 -0.1716 -0.0353
   95MOL     C230270   5.899   2.778   8.290  0.7467 -0.0016 -0.9217
   95MOL     C330271   5.852   2.797   8.157 -0.4948  0.4269 -0.2628
   95MOL     C430272   5.819   2.931   8.110  0.1871 -0.2632 -0.3274
   95MOL     C530273   5.848   3.044   8.187  0.5622 -0.4141 -0.4307
   95MOL    Cl630274   5.831   3.207   8.133 -0.0018  0.1544  0.2751
   95MOL     C730275   5.906   3.024   8.311  0.5224  0.1606 -0.5375
   95MOL     C830276   5.916   2.895   8.373 -0.0688 -0.1769 -0.5329
   95MOL     C930277   5.804   2.593   8.437 -0.8882 -0.0711 -0.4952
   95MOL    H1030278   6.007   2.627   8.416 -0.9109  1.0087  1.1479
   95MOL    H1130279   5.842   2.713   8.091  0.8191 -0.0263  0.0957
   95MOL    H1230280   5.787   2.958   8.011  0.7932  0.1770 -0.4080
   95MOL    H1330281   5.925   3.114   8.369  0.2732 -0.8850  1.2042
   95MOL    H1430282   5.951   2.895   0.032 -0.7211 -0.5682 -0.3083
   95MOL    H1530283   5.801   2.666   0.074 -3.5006  0.5273 -1.1153
   95MOL    H1630284   5.710   2.586   8.382 -2.0956 -2.0942  1.7825
   95MOL    H1730285   5.936   2.564   8.271 -1.3834 -0.1905 -0.2607
   95MOL    C1830286   5.828   2.466   0.079 -0.1928 -0.0255 -0.2658
   95MOL    C1930287   5.704   2.438   0.175  0.2393 -0.6303  0.2528
   95MOL    C2030288   5.567   2.454   0.139 -0.3708  0.2929 -0.2794
   95MOL    C2130289   5.462   2.442   0.234  0.1839 -0.5428 -0.0443
   95MOL    C2230290   5.493   2.417   0.374  0.2634  0.3089 -0.5425
   95MOL   Cl2330291   5.377   2.411   0.498  0.2021  0.1005  0.2214
   95MOL    C2430292   5.627   2.397   0.405 -0.2770  0.0413 -0.6617
   95MOL    C2530293   5.732   2.416   0.308  0.0231 -0.4613  0.7395
   95MOL    C2630294   5.857   2.346   8.433 -0.1225  0.4011  0.1898
   95MOL    H2730295   5.910   2.488   0.147 -1.9866  1.7285  1.3926
   95MOL    H2830296   5.549   2.459   0.033  0.4657 -2.8562 -0.6226
   95MOL    H2930297   5.362   2.462   0.199  0.4943  0.9363 -0.0876
   95MOL    H3030298   5.645   2.392   0.511  3.0997 -0.9731 -1.2231
   95MOL    H3130299   5.836   2.415   0.336  0.2362  0.0203 -0.0198
   95MOL    H3230300   5.778   2.341   8.357  0.5629  3.2382 -0.7516
   95MOL    H3330301   5.944   2.372   8.373 -0.6899  0.9006 -0.4231
   95MOL    C3430302   5.884   2.206   0.055 -0.1485 -0.2779 -0.2710
   95MOL    C3530303   5.872   2.106   8.386  0.1902 -0.8303 -0.5706
   95MOL    C3630304   5.749   2.040   8.364 -0.3016 -0.1319 -0.2893
   95MOL    C3730305   5.732   1.947   8.264  0.2687 -0.2472  0.1827
   95MOL    C3830306   5.840   1.930   8.173  0.7282 -0.2711 -0.2132
   95MOL   Cl3930307   5.829   1.832   8.029  0.7419 -0.2609 -0.2274
   95MOL    C4030308   5.964   2.002   8.187 -0.3241 -0.3986  0.1471
   95MOL    C4130309   5.975   2.090   8.294  0.3856 -0.1487  0.4954
   95MOL    C4230310   6.019   2.196   0.139 -0.3258  0.4032  1.4037
   95MOL    H4330311   5.803   2.188   0.125  1.5602 -1.3568  1.4916
   95MOL    H4430312   5.675   2.044   8.443 -0.5142  1.6066 -0.5579
   95MOL    H4530313   5.639   1.894   8.253 -3.4839  5.2334  2.9020
   95MOL    H4630314   6.050   1.996   8.122 -1.3430 -0.0554 -1.2713
   95MOL    H4730315   6.076   2.128   8.300  0.2703  0.3710 -0.7477
   95MOL    H4830316   6.103   2.172   0.074 -1.9854 -0.7226 -0.4139
   95MOL    H4930317   6.049   2.296   0.169  0.1646  0.3305  1.1529
   95MOL    C5030318   6.021   2.104   0.262  0.7991 -0.1069 -0.1857
   95MOL    C5130319   5.963   1.964   0.231  0.3251 -0.0080 -0.0530
   95MOL    C5230320   6.036   1.871   0.157 -0.3580  0.2589  0.4409
   95MOL    C5330321   5.979   1.749   0.116 -0.3402 -1.2456 -0.2349
   95MOL    C5430322   5.846   1.723   0.154 -0.1592  0.0939 -0.2545
   95MOL   Cl5530323   5.776   1.574   0.102  0.6239 -0.2258 -0.7978
   95MOL    C5630324   5.775   1.815   0.226  0.0770  0.5033  0.2918
   95MOL    C5730325   5.829   1.940   0.270  0.2802 -0.2134 -0.2391
   95MOL    C5830326   6.155   2.109   0.342  0.2420  0.1154 -0.0268
   95MOL    H5930327   5.945   2.163   0.314  0.9331  2.7836 -3.0843
   95MOL    H6030328   6.131   1.902   0.115 -1.9715  5.3414  0.2620
   95MOL    H6130329   6.040   1.670   0.073 -1.0151 -0.9368 -1.7918
   95MOL    H6230330   5.671   1.793   0.244  0.3391  0.9772  2.5194
   95MOL    H6330331   5.774   2.020   0.317  0.4674 -1.0949  1.5181
   95MOL    H6430332   6.230   2.061   0.280 -1.0363  0.8602 -2.2132
   95MOL    H6530333   6.180   2.215   0.345  0.3000  0.1526 -1.5966
   95MOL    C6630334   6.157   2.050   0.487 -0.5524  1.1428 -0.1113
   95MOL    C6730335   6.118   2.169   0.576 -0.1515 -0.1464 -0.2178
   95MOL    C6830336   5.980   2.202   0.595 -0.0259  0.2062  0.2116
   95MOL    C6930337   5.948   2.314   0.678  0.0323  0.2108 -0.1461
   95MOL    C7030338   6.045   2.395   0.734 -0.3300  0.1362  0.1326
   95MOL   Cl7130339   5.996   2.528   0.832  0.0348 -0.3887 -0.3069
   95MOL    C7230340   6.183   2.366   0.712  0.2345 -0.0405 -0.3762
   95MOL    C7330341   6.215   2.244   0.644 -0.0706 -0.5472  0.1106
   95MOL    C7430342   6.073   1.918   0.519 -0.7633  0.1737  0.0022
   95MOL    H7530343   6.262   2.023   0.497 -0.6522  0.9611  0.4554
   95MOL    H7630344   5.901   2.141   0.554 -0.7296  0.0170  1.7827
   95MOL    H7730345   5.844   2.333   0.698 -0.0206  1.1099 -1.2192
   95MOL    H7830346   6.264   2.425   0.752  0.4252  0.2779 -1.2122
   95MOL    H7930347   6.315   2.208   0.628  0.3259  0.0846  1.1611
   95MOL    H8030348   5.967   1.945   0.518 -1.1192 -1.0835  1.5681
   95MOL    H8130349   6.071   1.840   0.443 -1.4253 -1.1723  1.3640
   95MOL    C8230350   6.101   1.862   0.659 -0.4218 -0.3181 -0.7093
   95MOL    C8330351   5.974   1.796   0.718 -0.2319 -0.1557 -0.3347
   95MOL    C8430352   5.945   1.665   0.674  0.1851  0.0637  0.8647
   95MOL    C8530353   5.840   1.595   0.732  0.3941  0.5489 -0.0564
   95MOL    C8630354   5.766   1.655   0.836 -0.3521 -0.3180  0.1218
   95MOL   Cl8730355   5.647   1.564   0.912 -0.4120  0.4206  0.2370
   95MOL    C8830356   5.793   1.788   0.876  0.8976 -0.5242 -0.3715
   95MOL    C8930357   5.903   1.856   0.820  0.4290  0.4258 -0.0374
   95MOL    C9030358   6.235   1.785   0.680 -0.0892 -0.3710  0.1519
   95MOL    H9130359   6.111   1.950   0.723 -1.5134 -1.4267  1.0384
   95MOL    H9230360   6.001   1.621   0.593  0.6774  0.0007  1.2386
   95MOL    H9330361   5.821   1.493   0.701 -0.1485  0.7849 -0.4950
   95MOL    H9430362   5.739   1.845   0.950  3.1489 -1.7019  2.2623
   95MOL    H9530363   5.941   1.950   0.855  1.2204 -0.0779  0.4860
   95MOL    H9630364   6.213   1.694   0.736 -1.8900  0.2927  0.5488
   95MOL    H9730365   6.267   1.742   0.585  2.1294 -0.8259  1.0731
   95MOL    C9830366   6.350   1.855   0.752  0.4541 -0.6286 -0.2026
   95MOL    C9930367   6.310   1.873   0.902 -0.1316 -0.4034  0.0904
   95MOL   C10030368   6.329   1.993   0.964 -0.2110  0.7654 -0.7910
   95MOL   C10130369   6.310   2.001   1.100  0.1864  0.4346  0.2108
   95MOL   C10230370   6.277   1.889   1.180  0.2900  0.2621 -0.2402
   95MOL  Cl10330371   6.289   1.892   1.347 -0.3046 -0.2896 -0.3763
   95MOL   C10430372   6.248   1.767   1.119 -0.2522 -0.4862 -0.0712
   95MOL   C10530373   6.264   1.762   0.976  0.6537 -0.0523 -0.1484
   95MOL   C10630374   6.490   1.785   0.752  0.2991 -0.0197  0.4599
   95MOL   H10730375   6.356   1.950   0.699 -1.5467  1.2226  2.7174
   95MOL   H10830376   6.361   2.082   0.911 -0.5400  0.9261 -0.7257
   95MOL   H10930377   6.327   2.085   1.165  0.3518 -0.5379  1.4433
   95MOL   H11030378   6.217   1.680   1.176  1.0382 -1.1003 -0.2736
   95MOL   H11130379   6.249   1.667   0.928  0.7463 -0.0308 -0.2206
   95MOL   H11230380   6.557   1.861   0.790  0.3492  0.3809 -0.4079
   95MOL   H11330381   6.481   1.692   0.808 -0.1165 -1.0339 -1.2237
   95MOL   C11430382   6.552   1.749   0.613 -0.6115 -0.1014  0.7294
   95MOL   C11530383   6.538   1.858   0.503  0.4046  0.1485  0.2778
   95MOL   C11630384   6.554   2.000   0.531  0.6919  0.5799 -0.0930
   95MOL   C11730385   6.551   2.091   0.422 -0.5139  1.1235 -0.2146
   95MOL   C11830386   6.518   2.044   0.290 -0.0378 -0.2593 -0.5048
   95MOL  Cl11930387   6.521   2.147   0.156  0.4526  0.0107  0.3747
   95MOL   C12030388   6.497   1.907   0.267  0.5450 -0.2273  0.4293
   95MOL   C12130389   6.500   1.814   0.371  0.0177 -0.7562 -0.1408
   95MOL   C12230390   6.703   1.704   0.633  0.1637  0.3413  0.0859
   95MOL   H12330391   6.497   1.662   0.578 -2.1077  1.7041 -1.6076
   95MOL   H12430392   6.588   2.029   0.629  0.9529 -0.7948  0.2357
   95MOL   H12530393   6.576   2.193   0.446  0.7365  0.4234  1.5879
   95MOL   H12630394   6.475   1.870   0.168  3.8092 -0.4151 -0.2498
   95MOL   H12730395   6.484   1.709   0.354  0.0023 -0.8568  0.4700
   95MOL   H12830396   6.761   1.702   0.541  0.9028 -1.1872  0.5716
   95MOL   H12930397   6.748   1.781   0.696 -1.1329 -0.0422  1.5008
   95MOL   C13030398   6.726   1.565   0.696 -0.2548 -0.4074 -0.0900
   95MOL   C13130399   6.701   1.462   0.594 -0.4613  0.1433 -0.5018
   95MOL   C13230400   6.572   1.404   0.591 -1.0178  0.1688 -0.5468
   95MOL   C13330401   6.544   1.307   0.493 -0.0656  0.4881 -0.2989
   95MOL   C13430402   6.651   1.260   0.407 -0.2787  0.1248 -0.9227
   95MOL  Cl13530403   6.633   1.131   0.292  0.3292 -0.1906  0.0385
   95MOL   C13630404   6.780   1.315   0.420  0.2984  0.6317  0.6029
   95MOL   C13730405   6.803   1.420   0.505 -0.0196  0.9758  0.1408
   95MOL   C13830406   6.872   1.565   0.755 -0.5281 -0.3817  0.1383
   95MOL   H13930407   6.641   1.554   0.764 -1.5755  2.4373 -1.1564
   95MOL   H14030408   6.491   1.443   0.650  0.0255  0.1328  0.9376
   95MOL   H14130409   6.442   1.270   0.486 -0.5404  1.4119  1.4255
   95MOL   H14230410   6.859   1.278   0.357 -0.6311  0.5840 -0.5523
   95MOL   H14330411   6.901   1.462   0.522  1.8388 -1.8990 -2.9892
   95MOL   H14430412   6.896   1.460   0.773  0.3296 -0.1345  0.4756
   95MOL   H14530413   6.940   1.611   0.683 -1.6352  0.1362 -0.5998
   95MOL   C14630414   6.872   1.638   0.892  0.7193  0.1955 -0.3612
   95MOL   C14730415   6.757   1.593   0.981 -0.3306  0.1159 -0.5533
   95MOL   C14830416   6.742   1.457   1.010  0.3765 -0.0413 -0.3568
   95MOL   C14930417   6.650   1.420   1.104  0.8411 -0.1073  0.2404
   95MOL   C15030418   6.577   1.516   1.178 -0.0753  0.2745 -0.5921
   95MOL  Cl15130419   6.467   1.457   1.299  0.2922 -0.0351  0.3401
   95MOL   C15230420   6.590   1.656   1.146 -0.3880  0.4898  0.4717
   95MOL   C15330421   6.683   1.699   1.048 -0.2871  0.5539 -0.5450
   95MOL   C15430422   7.012   1.624   0.950  0.0191 -0.8644 -0.1445
   95MOL   H15530423   6.859   1.743   0.866 -2.0910  0.3409  1.4078
   95MOL   H15630424   6.805   1.384   0.961 -1.0074 -0.6325 -1.2608
   95MOL   H15730425   6.644   1.314   1.124  1.2844 -0.6113 -2.1301
   95MOL   H15830426   6.525   1.726   1.195 -0.8071  0.6705 -0.3269
   95MOL   H15930427   6.705   1.803   1.028 -0.9522  0.8478  0.1948
   95MOL   H16030428   7.015   1.521   0.988  0.9319  0.4601  3.5874
   95MOL   H16130429   7.086   1.627   0.870  1.8699  0.3033  1.5450
   95MOL   C16230430   7.054   1.727   1.059  0.4516  0.1006  0.5965
   95MOL   C16330431   7.144   1.663   1.158 -1.1339  0.4292 -0.1467
   95MOL   C16430432   7.097   1.627   1.287 -0.3357 -0.2490 -0.1383
   95MOL   C16530433   7.178   1.553   1.369  0.8515  0.5212  0.4338
   95MOL   C16630434   7.304   1.505   1.327 -0.9778 -0.1948  0.5187
   95MOL  Cl16730435   7.376   1.386   1.425  0.1927  0.1273  0.4781
   95MOL   C16830436   7.367   1.555   1.206  0.1204 -0.1283 -0.1826
   95MOL   C16930437   7.283   1.638   1.124 -0.1198 -0.1014  0.3120
   95MOL   C17030438   7.121   1.864   1.002 -0.1461 -0.0198  0.5656
   95MOL   H17130439   6.963   1.759   1.110  0.4583 -1.0607  1.3439
   95MOL   H17230440   7.000   1.658   1.321  0.5463  0.2682  1.9541
   95MOL   H17330441   7.138   1.518   1.463 -2.4194 -0.4904 -1.2608
   95MOL   H17430442   7.464   1.517   1.178  0.7750 -0.0390  1.8637
   95MOL   H17530443   7.332   1.676   1.035  0.5410  3.2189  2.0266
   95MOL   H17630444   7.180   1.910   1.081  0.1269  0.4811  0.0742
   95MOL   H17730445   7.202   1.830   0.936  1.0536  0.9638  1.5065
   95MOL   C17830446   7.024   1.962   0.931  0.1366  0.1955  0.0584
   95MOL   C17930447   6.907   2.015   1.020  0.0846 -0.2201 -0.6491
   95MOL   C18030448   6.923   2.023   1.164  0.0626  1.1551  0.3503
   95MOL   C18130449   6.821   2.076   1.241  1.1186 -0.4580 -0.1384
   95MOL   C18230450   6.698   2.113   1.187 -0.4209  1.0413 -0.4107
   95MOL  Cl18330451   6.565   2.168   1.286  0.2603 -0.3490  0.2802
   95MOL   C18430452   6.680   2.104   1.045 -0.5861  0.2659 -0.6770
   95MOL   C18530453   6.784   2.060   0.963 -0.6739  0.5178  0.2308
   95MOL   C18630454   7.088   2.080   0.863  0.2848 -0.0464 -0.2707
   95MOL   H18730455   6.974   1.906   0.851  1.8141  1.0609 -1.6324
   95MOL   H18830456   7.018   1.993   1.204 -1.1152 -1.6331  1.1673
   95MOL   H18930457   6.833   2.077   1.349 -1.1380  1.8614  0.1375
   95MOL   H19030458   6.583   2.123   1.000 -1.0004 -0.4440 -0.0927
   95MOL   H19130459   6.761   2.056   0.858 -1.3117  0.1802  0.3799
   95MOL   H19230460   7.017   2.156   0.830  1.0563  1.5555  1.6464
   95MOL   H19330461   7.132   2.134   0.947  0.0847  0.0892 -0.2535
   95MOL   C19430462   7.177   2.046   0.741 -0.0659 -0.6952 -0.2920
   95MOL   C19530463   7.113   1.973   0.629  0.1521 -0.6990  0.0832
   95MOL   C19630464   7.009   2.030   0.551  0.5690 -0.0023 -0.3258
   95MOL   C19730465   6.949   1.956   0.443  0.4044 -0.0682  0.2120
   95MOL   C19830466   6.987   1.819   0.426  0.5764 -0.7196 -0.0105
   95MOL  Cl19930467   6.913   1.715   0.306 -0.1347  0.3158 -0.1045
   95MOL   C20030468   7.090   1.767   0.503 -0.0702  0.4136  0.2258
   95MOL   C20130469   7.151   1.840   0.601 -0.3720 -0.7306 -0.4893
   95MOL   C20230470   7.240   2.179   0.689  0.7390  0.1080  0.0580
   95MOL   H20330471   7.266   1.996   0.777  1.0352  0.7602 -0.9542
   95MOL   H20430472   6.973   2.131   0.563  2.3911  0.4528  1.6099
   95MOL   H20530473   6.858   1.993   0.398 -0.4869 -0.2983  1.7791
   95MOL   H20630474   7.123   1.665   0.493 -3.9062 -0.8622 -0.5160
   95MOL   H20730475   7.225   1.788   0.660 -0.5852 -0.4843  0.0016
   95MOL   H20830476   7.170   2.240   0.632  0.0305 -0.4795  0.2894
   95MOL   H20930477   7.254   2.240   0.778  1.0470  0.3985 -0.1898
   95MOL   C21030478   7.372   2.177   0.610  0.3935  1.0963  0.3783
   95MOL   C21130479   7.369   2.073   0.494 -0.6099  0.4544 -0.1139
   95MOL   C21230480   7.443   1.956   0.521 -0.4150 -0.1631  0.0965
   95MOL   C21330481   7.459   1.863   0.418 -0.0640  0.1825  0.1209
   95MOL   C21430482   7.395   1.885   0.295 -1.0802  0.7347  0.4248
   95MOL  Cl21530483   7.408   1.767   0.168  0.1411  0.2118 -0.4862
   95MOL   C21630484   7.313   1.997   0.277  0.3904 -0.2671  0.5827
   95MOL   C21730485   7.299   2.099   0.379 -0.3415  0.0642  0.1078
   95MOL   C21830486   7.402   2.320   0.565  0.0798  0.6378  1.0079
   95MOL   H21930487   7.439   2.135   0.685  0.8353  1.8813  0.4308
   95MOL   H22030488   7.493   1.942   0.616  1.7761  0.6375 -0.8922
   95MOL   H22130489   7.519   1.775   0.440 -2.3051 -1.7707 -1.3034
   95MOL   H22230490   7.258   2.011   0.186  1.1292  1.4420  0.3809
   95MOL   H22330491   7.248   2.193   0.369  2.3991  1.7052  1.1372
   95MOL   H22430492   7.486   2.307   0.496  0.2222  1.2984  1.0474
   95MOL   H22530493   7.323   2.354   0.498  3.4625  0.5428 -3.2689
   95MOL   C22630494   7.449   2.427   0.663 -0.6325  0.0224 -0.9752
   95MOL   C22730495   7.563   2.364   0.745  0.1670  0.0422  0.6380
   95MOL   C22830496   7.546   2.354   0.887  0.3728  0.1737  0.8421
   95MOL   C22930497   7.645   2.290   0.967  0.1554  0.0131 -0.6803
   95MOL   C23030498   7.755   2.226   0.903  0.7481  0.2961  0.6153
   95MOL  Cl23130499   7.874   2.163   1.002 -0.0406 -0.6123  0.3246
   95MOL   C23230500   7.777   2.240   0.763 -0.3062  0.0359  0.4711
   95MOL   C23330501   7.682   2.308   0.689 -0.2378  1.1269 -0.0444
   95MOL   C23430502   7.506   2.549   0.583  0.3481  0.4394  0.1292
   95MOL   H23530503   7.367   2.465   0.723  0.6783  0.1750  0.7456
   95MOL   H23630504   7.468   2.401   0.945  0.7609 -0.0225  1.5364
   95MOL   H23730505   7.641   2.292   1.075 -0.5884 -0.5258 -0.6912
   95MOL   H23830506   7.859   2.189   0.715  0.1619  1.0011  0.2325
   95MOL   H23930507   7.698   2.302   0.582 -1.4547 -0.2086 -0.1682
   95MOL   H24030508   7.587   2.515   0.519  1.1342 -0.9821  1.8358
   95MOL   H24130509   7.423   2.577   0.517 -0.8130 -0.8391  0.9949
   95MOL   C24230510   7.551   2.673   0.655 -0.2787  0.1697 -0.2970
   95MOL   C24330511   7.618   2.760   0.553  0.7597 -0.6169 -0.8077
   95MOL   C24430512   7.550   2.851   0.469  0.6688 -0.2867 -0.5209
   95MOL   C24530513   7.618   2.933   0.374  0.3090 -0.1288 -0.1651
   95MOL   C24630514   7.758   2.918   0.356 -1.1384  0.1161 -0.6761
   95MOL  Cl24730515   7.836   3.015   0.242 -0.1031  0.2317  0.2637
   95MOL   C24830516   7.830   2.824   0.439  0.0510 -0.3583  0.6203
   95MOL   C24930517   7.759   2.744   0.533 -0.9258 -0.1322  0.3363
   95MOL   C25030518   7.447   2.751   0.742 -0.3860  0.6411  0.0456
   95MOL   H25130519   7.629   2.636   0.723  0.6220  1.5214 -0.5659
   95MOL   H25230520   7.444   2.870   0.474  0.2914 -1.4893 -2.9563
   95MOL   H25330521   7.570   3.012   0.317  3.7697  1.7077 -0.6669
   95MOL   H25430522   7.934   2.802   0.421  0.2419 -0.6298  2.0106
   95MOL   H25530523   7.808   2.673   0.597 -0.3633 -0.3301 -0.3122
   95MOL   H25630524   7.359   2.765   0.680 -1.0981 -1.4736  0.5426
   95MOL   H25730525   7.409   2.686   0.821 -0.0418  0.2989 -0.0691
   95MOL   C25830526   7.491   2.884   0.808  0.8038  0.4467  0.5702
   95MOL   C25930527   7.371   2.966   0.854  0.1134 -0.6023  0.7109
   95MOL   C26030528   7.350   3.095   0.793 -0.3404  0.0240  0.1707
   95MOL   C26130529   7.235   3.168   0.825  0.0058  0.0965  0.7477
   95MOL   C26230530   7.150   3.122   0.928  0.2158 -0.7337  0.0762
   95MOL  Cl26330531   7.014   3.226   0.983  0.2446  0.1908 -0.3481
   95MOL   C26430532   7.174   2.996   0.987  0.8012  0.2987  0.1021
   95MOL   C26530533   7.284   2.918   0.956  0.2167 -0.9915  0.6443
   95MOL   C26630534   7.597   2.846   0.919  0.1022  0.0399 -0.4035
   95MOL   H26730535   7.543   2.947   0.736 -0.0269  0.5982  0.0926
   95MOL   H26830536   7.420   3.134   0.720  0.5626 -0.0618  0.9798
   95MOL   H26930537   7.209   3.262   0.779 -1.3076 -0.0233  1.2067
   95MOL   H27030538   7.097   2.966   1.057  0.5154 -0.2117 -0.4237
   95MOL   H27130539   7.307   2.820   0.996  1.3051 -0.1459  2.1739
   95MOL   H27230540   7.552   2.784   0.997  1.1140  0.6116  0.6526
   95MOL   H27330541   7.684   2.794   0.880  1.6651  1.2588  1.3700
   95MOL   C27430542   7.644   2.973   0.992 -0.2973 -1.1124  0.9559
   95MOL   C27530543   7.588   2.985   1.127  0.6693  0.0721  0.9304
   95MOL   C27630544   7.621   2.893   1.230 -0.6215  0.8582  1.0311
   95MOL   C27730545   7.560   2.902   1.357 -0.3469  0.3768  0.4266
   95MOL   C27830546   7.453   2.987   1.379 -0.8753  0.4370  0.1773
   95MOL  Cl27930547   7.381   2.985   1.533 -0.7010  0.0231 -0.2174
   95MOL   C28030548   7.417   3.078   1.275 -0.0989  0.2379 -0.0645
   95MOL   C28130549   7.481   3.076   1.146  0.2017 -0.2452  0.6348
   95MOL   C28230550   7.803   2.978   0.989 -1.0512  0.1285 -0.5829
   95MOL   H28330551   7.617   3.067   0.942  2.2748 -1.6289 -1.5538
   95MOL   H28430552   7.695   2.820   1.201 -1.8795 -0.4710  1.1132
   95MOL   H28530553   7.584   2.831   1.435  1.4028  0.2781 -0.1954
   95MOL   H28630554   7.329   3.140   1.281 -0.6326 -0.4098 -1.1450
   95MOL   H28730555   7.450   3.141   1.066  1.3880 -0.2141  0.1895
   95MOL   H28830556   7.853   3.052   1.051  0.1722  0.1436 -1.5751
   95MOL   H28930557   7.836   2.885   1.036 -1.1877  0.2006 -0.3416
   95MOL   C29030558   7.860   2.994   0.844 -0.2784  0.2671 -0.5763
   95MOL   C29130559   7.814   3.130   0.788 -0.3684 -0.1056 -0.1399
   95MOL   C29230560   7.841   3.253   0.862 -0.4366  0.1500  0.4244
   95MOL   C29330561   7.794   3.370   0.801  0.6914  0.3219  0.2273
   95MOL   C29430562   7.722   3.371   0.684 -0.2511 -0.3372  0.1703
   95MOL  Cl29530563   7.662   3.518   0.624 -0.0557  0.2646  0.0177
   95MOL   C29630564   7.700   3.255   0.611  0.3670 -0.2939  0.0716
   95MOL   C29730565   7.747   3.131   0.663  0.3586  0.3162  0.8904
   95MOL   C29830566   8.019   2.975   0.840 -0.0709  0.6770 -0.4146
   95MOL   H29930567   7.819   2.917   0.780 -0.4279  1.3198 -1.7565
   95MOL   H30030568   7.891   3.260   0.957  2.0045  1.8548 -0.9361
   95MOL   H30130569   7.809   3.458   0.863 -0.2875 -0.2143  1.2506
   95MOL   H30230570   7.650   3.259   0.515  1.5704 -3.0626 -0.7158
   95MOL   H30330571   7.744   3.039   0.607 -0.5487 -0.6767  2.5527
   95MOL   H30430572   8.058   3.046   0.913 -0.5407 -0.0840  0.5920
   95MOL   H30530573   8.047   2.880   0.886 -0.0875  0.8285 -0.0914
   95MOL   C30630574   8.086   2.984   0.704  0.1534 -0.1315  0.7482
   95MOL   C30730575   8.109   3.126   0.664  0.1701 -0.2402  1.0224
   95MOL   C30830576   8.190   3.207   0.745 -0.8092  0.4685 -0.2131
   95MOL   C30930577   8.199   3.344   0.717 -0.3625  0.0822  0.5195
   95MOL   C31030578   8.126   3.396   0.611  0.1990  0.1842 -0.1467
   95MOL  Cl31130579   8.119   3.570   0.595  0.4601 -0.0567  0.1148
   95MOL   C31230580   8.042   3.318   0.530 -0.6483 -0.2777 -0.1987
   95MOL   C31330581   8.039   3.179   0.551  0.2493 -0.0726 -0.2209
   95MOL   C31430582   8.222   2.902   0.698  0.2007 -0.2326  0.9231
   95MOL   H31530583   8.010   2.948   0.635  0.1749  1.9920 -0.4251
   95MOL   H31630584   8.245   3.155   0.822  1.2445 -1.2963 -2.7752
   95MOL   H31730585   8.247   3.406   0.792  0.4201  0.9326 -0.6808
   95MOL   H31830586   7.981   3.373   0.459  1.2089 -0.3289 -1.8588
   95MOL   H31930587   7.976   3.125   0.482 -1.1232  1.8071 -0.4815
   95MOL   H32030588   8.305   2.941   0.756  0.4047  1.6431 -0.5615
   95MOL   H32130589   8.207   2.800   0.732  0.1745  0.1988  2.2241
   95MOL   H32230590   8.259   2.898   0.595  0.8805  0.8296  1.1148
   96MOL     C130591   3.643   2.106   6.151 -0.0045 -0.1506 -0.4563
   96MOL     C230592   3.501   2.165   6.137  0.2194  0.2889  0.7461
   96MOL     C330593   3.428   2.189   6.252  0.0012  0.4132  0.1216
   96MOL     C430594   3.297   2.237   6.249 -0.1644  0.4781  0.1894
   96MOL     C530595   3.237   2.270   6.128  0.2070  0.0162  0.0767
   96MOL    Cl630596   3.077   2.339   6.128  0.1967  0.1188  0.1943
   96MOL     C730597   3.302   2.227   6.010  0.3356  0.2883 -0.1988
   96MOL     C830598   3.433   2.179   6.017 -0.1508 -0.5903 -0.2146
   96MOL     C930599   3.663   1.969   6.200 -0.3910  0.1869  0.2388
   96MOL    H1030600   3.693   2.169   6.225 -0.1584 -0.2075 -0.3041
   96MOL    H1130601   3.480   2.180   6.347  1.4062  2.7476 -0.3989
   96MOL    H1230602   3.252   2.263   6.344  0.7204 -0.1230  0.7915
   96MOL    H1330603   3.247   2.256   5.922  1.1872 -0.4053 -0.9734
   96MOL    H1430604   3.486   2.145   5.930 -1.5166 -1.9247 -0.5413
   96MOL    H1530605   3.601   1.946   6.287 -0.9344  0.9527  0.0607
   96MOL    H1630606   3.626   1.888   6.138  0.9642  0.7311 -1.3282
   96MOL    H1730607   3.691   2.123   6.054 -0.1327  0.6193 -0.3891
   96MOL    C1830608   3.815   1.941   6.234  0.6482 -0.1602  0.2974
   96MOL    C1930609   3.814   1.809   6.313 -0.1876 -0.6485  1.0285
   96MOL    C2030610   3.786   1.822   6.450 -0.4292 -0.4936  0.0021
   96MOL    C2130611   3.801   1.715   6.538 -0.8938  0.5348 -0.1205
   96MOL    C2230612   3.826   1.585   6.490 -0.0365  0.4158  0.6853
   96MOL   Cl2330613   3.820   1.451   6.591 -0.0833  0.3333 -0.3416
   96MOL    C2430614   3.842   1.564   6.353  0.1201 -0.2038  0.3873
   96MOL    C2530615   3.846   1.680   6.270 -0.3115 -0.2918  0.2709
   96MOL    C2630616   3.905   1.948   6.107  0.4141  0.7318  0.0528
   96MOL    H2730617   3.849   2.021   6.300  1.3386  1.7513 -2.3146
   96MOL    H2830618   3.748   1.920   6.476  3.7385  0.7100  1.9760
   96MOL    H2930619   3.776   1.736   6.640  0.1000  2.7385 -0.2852
   96MOL    H3030620   3.834   1.468   6.305 -1.1499 -0.7826  1.7184
   96MOL    H3130621   3.860   1.664   6.164  1.7724  2.7245  0.0288
   96MOL    H3230622   3.884   1.862   6.043 -1.4921  1.8362 -0.8386
   96MOL    H3330623   3.906   2.043   6.054 -2.0514 -0.2311 -1.8079
   96MOL    C3430624   4.051   1.932   6.146 -0.5607  0.0672  0.2399
   96MOL    C3530625   4.138   1.870   6.036  0.0062  0.3520 -0.3617
   96MOL    C3630626   4.203   1.742   6.038 -0.0766  0.4808  0.2837
   96MOL    C3730627   4.266   1.697   5.922 -0.2672  0.5804 -0.7190
   96MOL    C3830628   4.257   1.767   5.800 -0.0157  0.6423 -0.5714
   96MOL   Cl3930629   4.332   1.712   5.652 -0.2341  0.2281  0.0855
   96MOL    C4030630   4.194   1.891   5.799  0.7339  0.0212  0.1192
   96MOL    C4130631   4.130   1.941   5.910  0.2467  0.5409  0.5902
   96MOL    C4230632   4.111   2.063   6.204 -0.6821 -0.7117 -0.4493
   96MOL    H4330633   4.061   1.857   6.225  0.0777  0.7763  0.8315
   96MOL    H4430634   4.222   1.690   6.130 -0.8279  0.1908  0.2771
   96MOL    H4530635   4.307   1.597   5.928  1.2785  1.3442  2.5450
   96MOL    H4630636   4.173   1.936   5.703  1.3027  1.6519  0.7501
   96MOL    H4730637   4.081   2.036   5.892 -2.9174 -1.4298 -1.6494
   96MOL    H4830638   4.152   2.115   6.118 -1.6832  0.2258 -0.3785
   96MOL    H4930639   4.041   2.131   6.254 -0.1270 -1.3635  1.2788
   96MOL    C5030640   4.228   2.041   6.298 -0.1092  0.2222 -0.1284
   96MOL    C5130641   4.320   2.163   6.299 -0.0940  0.4275 -0.1135
   96MOL    C5230642   4.457   2.139   6.257 -0.0856 -0.1196 -0.4483
   96MOL    C5330643   4.553   2.237   6.279  0.1424 -0.0453 -0.8687
   96MOL    C5430644   4.509   2.363   6.316 -0.1191 -0.3702  0.0441
   96MOL   Cl5530645   4.612   2.493   6.337  0.1487 -0.0067  0.0327
   96MOL    C5630646   4.373   2.390   6.354  0.1626  0.0367  0.4771
   96MOL    C5730647   4.277   2.290   6.336  0.3693 -0.1816 -0.1145
   96MOL    C5830648   4.173   1.991   6.432  0.3116 -0.0276 -0.1349
   96MOL    H5930649   4.293   1.965   6.255 -0.9686  0.7767 -2.5343
   96MOL    H6030650   4.484   2.043   6.216  1.9548  0.7408 -1.1642
   96MOL    H6130651   4.658   2.224   6.257  0.5796 -0.9599  1.6742
   96MOL    H6230652   4.353   2.493   6.380  1.3409  0.0130  1.5353
   96MOL    H6330653   4.173   2.305   6.360  0.1519 -0.2694 -1.0037
   96MOL    H6430654   4.171   2.078   6.498  1.5528  0.5079 -0.7799
   96MOL    H6530655   4.067   1.967   6.433  0.4614 -0.7273  3.1784
   96MOL    C6630656   4.249   1.876   6.502 -0.5462 -0.4647  1.0673
   96MOL    C6730657   4.225   1.863   6.653  0.5724 -0.1596  0.0700
   96MOL    C6830658   4.116   1.790   6.700 -0.2505 -0.2092  0.2877
   96MOL    C6930659   4.090   1.794   6.840 -0.3288 -0.4898 -0.1017
   96MOL    C7030660   4.173   1.871   6.927 -0.0992 -0.1608  0.1692
   96MOL   Cl7130661   4.136   1.879   7.095  0.1043 -0.0982  0.3192
   96MOL    C7230662   4.279   1.949   6.877  0.4737 -0.3845  0.4620
   96MOL    C7330663   4.313   1.936   6.736  0.0950  0.0737 -1.0769
   96MOL    C7430664   4.228   1.749   6.424 -0.2181  0.2499 -0.1427
   96MOL    H7530665   4.354   1.902   6.489 -0.9690  0.6193 -0.3442
   96MOL    H7630666   4.036   1.749   6.640 -1.1007  0.1396  1.1580
   96MOL    H7730667   3.996   1.748   6.869  0.3681 -1.2240  1.0150
   96MOL    H7830668   4.336   2.015   6.940  2.2143 -1.6917  0.3083
   96MOL    H7930669   4.394   1.990   6.689 -0.8453  0.1408 -2.6632
   96MOL    H8030670   4.123   1.733   6.400 -0.3896 -0.0748  0.7802
   96MOL    H8130671   4.266   1.773   6.325  0.3662  2.0186  0.4987
   96MOL    C8230672   4.292   1.618   6.474 -0.0894 -0.5519 -0.7274
   96MOL    C8330673   4.268   1.508   6.376 -0.0188 -0.1328  0.0689
   96MOL    C8430674   4.167   1.415   6.406  0.8167 -0.3572  0.2881
   96MOL    C8530675   4.156   1.306   6.315 -0.2201 -0.2567  0.2130
   96MOL    C8630676   4.237   1.290   6.204  0.3256 -0.5346  0.0206
   96MOL   Cl8730677   4.210   1.156   6.094 -0.1773  0.0925 -0.1733
   96MOL    C8830678   4.336   1.383   6.184  0.0657 -0.0918 -0.5874
   96MOL    C8930679   4.360   1.481   6.277 -0.3280  0.4463 -0.3414
   96MOL    C9030680   4.441   1.627   6.521 -0.4302  0.5159 -0.7003
   96MOL    H9130681   4.229   1.583   6.555  0.7679  0.1666  0.2740
   96MOL    H9230682   4.094   1.422   6.485  2.0587  0.2424  1.3989
   96MOL    H9330683   4.070   1.241   6.330  0.0562 -0.7122 -0.1689
   96MOL    H9430684   4.406   1.359   6.105 -0.3875 -0.6011 -0.8359
   96MOL    H9530685   4.450   1.539   6.261 -0.0915  0.7641  2.0376
   96MOL    H9630686   4.517   1.622   6.444  0.4731 -0.8179  0.2516
   96MOL    H9730687   4.469   1.723   6.565  0.7243  1.1531 -2.7617
   96MOL    C9830688   4.482   1.512   6.628  0.5228  0.3719  0.2130
   96MOL    C9930689   4.626   1.508   6.655 -0.0725 -0.5308  0.3042
   96MOL   C10030690   4.685   1.377   6.654  0.2176 -0.2529 -0.0736
   96MOL   C10130691   4.826   1.363   6.691  0.6006 -0.4024 -0.4718
   96MOL   C10230692   4.902   1.481   6.732 -0.0130 -0.2844  0.3576
   96MOL  Cl10330693   5.068   1.465   6.784 -0.1205  0.1878  0.1293
   96MOL   C10430694   4.835   1.607   6.739  0.2200  0.1584  0.5392
   96MOL   C10530695   4.697   1.623   6.701  0.1341 -0.4384  0.4352
   96MOL   C10630696   4.397   1.521   6.762 -0.0216 -0.4068 -0.3870
   96MOL   H10730697   4.458   1.421   6.574 -0.3300  0.3216  0.6759
   96MOL   H10830698   4.633   1.290   6.617  1.8281 -1.1420 -0.2507
   96MOL   H10930699   4.886   1.273   6.689  0.0871 -0.7623  0.2639
   96MOL   H11030700   4.887   1.692   6.779  1.1459 -0.4120  0.5478
   96MOL   H11130701   4.647   1.718   6.710 -0.2956 -0.6331  0.1444
   96MOL   H11230702   4.462   1.562   6.840 -0.6125  2.0538 -1.1341
   96MOL   H11330703   4.327   1.604   6.752  2.0939  1.2740 -1.7005
   96MOL   C11430704   4.310   1.397   6.801  0.2098  0.0300  1.1950
   96MOL   C11530705   4.383   1.261   6.766  0.4013  0.1861  0.1903
   96MOL   C11630706   4.346   1.179   6.657 -0.4326  0.4741 -0.3598
   96MOL   C11730707   4.424   1.067   6.619  0.2846  0.4382 -0.0573
   96MOL   C11830708   4.522   1.027   6.705 -0.8341 -0.1265 -0.0398
   96MOL  Cl11930709   4.611   0.885   6.673 -0.1603 -0.1281 -0.1399
   96MOL   C12030710   4.553   1.102   6.817  0.2550  0.8743  0.5393
   96MOL   C12130711   4.487   1.223   6.848 -0.2087  0.1986  0.6238
   96MOL   C12230712   4.251   1.411   6.947 -0.0884  0.2426 -0.2779
   96MOL   H12330713   4.229   1.399   6.727  1.6736  0.4466 -0.4252
   96MOL   H12430714   4.264   1.207   6.592 -1.7906  1.2520  1.6596
   96MOL   H12530715   4.402   1.006   6.532  1.5233 -0.7945  0.4795
   96MOL   H12630716   4.636   1.071   6.878 -0.4620  2.2806  2.2605
   96MOL   H12730717   4.512   1.278   6.938 -1.1611  3.5808 -1.0818
   96MOL   H12830718   4.316   1.364   7.021 -1.4236  0.1739  0.8778
   96MOL   H12930719   4.256   1.513   6.986  0.2385 -0.3534  1.2646
   96MOL   C13030720   4.107   1.359   6.966 -0.2626  0.7195  0.6764
   96MOL   C13130721   4.087   1.213   6.937 -0.4987  0.0840  0.3490
   96MOL   C13230722   4.151   1.115   7.017 -0.0625  0.2285  0.6475
   96MOL   C13330723   4.137   0.980   6.986 -0.3251  0.2672 -0.3404
   96MOL   C13430724   4.068   0.943   6.868 -1.0923  0.7030 -0.4089
   96MOL  Cl13530725   4.061   0.778   6.825 -0.3730 -0.1262  0.0892
   96MOL   C13630726   4.001   1.040   6.789  0.1051  0.0724  0.1187
   96MOL   C13730727   4.013   1.175   6.824  0.7094  0.3956  0.1977
   96MOL   C13830728   4.082   1.403   7.121  0.5401 -0.1780  0.0401
   96MOL   H13930729   4.031   1.405   6.903  1.2305 -0.6560 -2.2429
   96MOL   H14030730   4.210   1.143   7.103 -0.4032 -1.4716  1.4515
   96MOL   H14130731   4.176   0.904   7.053 -1.6923  1.2392  1.5884
   96MOL   H14230732   3.950   1.001   6.702 -2.2353 -1.0924  1.9453
   96MOL   H14330733   3.964   1.245   6.758 -1.5823 -2.3549 -1.1676
   96MOL   H14430734   4.166   1.379   7.186  1.1339  0.7539 -0.3658
   96MOL   H14530735   4.075   1.511   7.132 -0.5855 -0.0027 -2.1232
   96MOL   C14630736   3.953   1.350   7.182 -0.7979  0.0684  0.8010
   96MOL   C14730737   3.968   1.333   7.334 -0.4061  0.0514  0.3708
   96MOL   C14830738   3.909   1.224   7.398 -0.5091  0.2001 -0.7568
   96MOL   C14930739   3.913   1.215   7.537 -1.0034 -0.8056  0.1148
   96MOL   C15030740   3.970   1.318   7.617 -0.5156 -0.4142  0.1160
   96MOL  Cl15130741   3.965   1.310   7.791  0.1931 -0.0597  0.0279
   96MOL   C15230742   4.044   1.425   7.550 -0.7360  0.2581 -0.3180
   96MOL   C15330743   4.036   1.429   7.409 -0.5711  0.7169 -0.2618
   96MOL   C15430744   3.824   1.427   7.147  0.4804 -0.5083 -0.2885
   96MOL   H15530745   3.942   1.254   7.131 -1.8963  0.0156  1.1293
   96MOL   H15630746   3.850   1.154   7.341 -0.0001 -1.4115  0.6710
   96MOL   H15730747   3.853   1.134   7.575 -0.5828 -0.9494  0.4667
   96MOL   H15830748   4.086   1.507   7.606 -0.7126 -0.0948  0.1815
   96MOL   H15930749   4.079   1.512   7.356  1.1418 -0.2108 -0.3809
   96MOL   H16030750   3.770   1.456   7.237  0.0880  2.3238 -1.3719
   96MOL   H16130751   3.856   1.526   7.115  0.5732 -0.3345  0.3401
   96MOL   C16230752   3.731   1.369   7.036 -0.3894 -0.4008 -0.6683
   96MOL   C16330753   3.668   1.235   7.066  0.3473  0.3269 -0.5450
   96MOL   C16430754   3.656   1.136   6.965 -0.2993  0.7122 -0.2725
   96MOL   C16530755   3.589   1.016   6.991  0.0173  0.1937 -0.1226
   96MOL   C16630756   3.525   0.994   7.114  0.3144  0.4011 -0.0582
   96MOL  Cl16730757   3.445   0.848   7.155 -0.0197 -0.0800 -0.1004
   96MOL   C16830758   3.546   1.088   7.217  0.1276  0.1821 -0.0542
   96MOL   C16930759   3.612   1.209   7.197 -0.5207 -0.0200 -0.4981
   96MOL   C17030760   3.632   1.474   6.995  0.5707  0.4702 -0.0548
   96MOL   H17130761   3.802   1.349   6.956  1.3889  4.0494 -0.3406
   96MOL   H17230762   3.690   1.163   6.866 -0.6399  0.1809 -0.5400
   96MOL   H17330763   3.576   0.946   6.910  0.6027 -0.4727  0.3529
   96MOL   H17430764   3.510   1.067   7.316  0.4644  1.3624  0.3336
   96MOL   H17530765   3.613   1.286   7.273  1.8364  0.5453 -1.0587
   96MOL   H17630766   3.574   1.509   7.081 -0.1856  0.9864 -0.7647
   96MOL   H17730767   3.697   1.559   6.973 -0.6309  1.5660  0.5255
   96MOL   C17830768   3.542   1.457   6.864 -0.0903  0.0834 -0.3423
   96MOL   C17930769   3.427   1.356   6.867  0.0769 -0.0445  0.3544
   96MOL   C18030770   3.417   1.249   6.778  0.1216 -0.1665 -0.2898
   96MOL   C18130771   3.296   1.179   6.771  0.9501  0.4757  0.0412
   96MOL   C18230772   3.199   1.198   6.863  0.0224  0.3021 -0.2908
   96MOL  Cl18330773   3.051   1.104   6.868  0.2869  0.1735  0.0151
   96MOL   C18430774   3.215   1.301   6.960  0.5237 -0.3766  0.4290
   96MOL   C18530775   3.329   1.378   6.961  0.5419 -0.4997 -0.2507
   96MOL   C18630776   3.505   1.591   6.799  0.3890 -0.3173 -0.5546
   96MOL   H18730777   3.618   1.409   6.803  0.6440  0.9307 -0.1009
   96MOL   H18830778   3.503   1.234   6.714  0.0254 -0.0108 -0.4554
   96MOL   H18930779   3.283   1.103   6.695 -0.8315 -0.5418  1.3344
   96MOL   H19030780   3.135   1.322   7.030  0.3632  0.2253  0.0733
   96MOL   H19130781   3.335   1.455   7.036 -1.2326 -0.1948 -0.4004
   96MOL   H19230782   3.464   1.658   6.874 -0.5104 -0.3159 -1.0473
   96MOL   H19330783   3.592   1.652   6.773  0.7164 -0.9268 -0.8991
   96MOL   C19430784   3.406   1.591   6.681  0.1496 -0.5396 -0.3418
   96MOL   C19530785   3.365   1.735   6.653  0.2455 -0.2513  0.4220
   96MOL   C19630786   3.420   1.824   6.562 -0.5502  0.0937  0.3205
   96MOL   C19730787   3.365   1.952   6.539 -0.1275  1.1166  0.0413
   96MOL   C19830788   3.255   1.990   6.619 -0.6126  0.1189  0.5135
   96MOL  Cl19930789   3.191   2.152   6.602 -0.4096  0.0769  0.0139
   96MOL   C20030790   3.213   1.917   6.727 -0.0291  0.0195  0.1641
   96MOL   C20130791   3.263   1.783   6.737 -0.9390 -0.1562  0.4973
   96MOL   C20230792   3.475   1.536   6.559 -0.3224 -0.5576  0.2076
   96MOL   H20330793   3.319   1.530   6.703  0.2469 -0.4206  0.3888
   96MOL   H20430794   3.492   1.800   6.485  1.1757  0.5810  1.7456
   96MOL   H20530795   3.399   2.020   6.462  0.3003 -0.4448 -1.1775
   96MOL   H20630796   3.134   1.962   6.786  1.2299 -0.6403  2.3729
   96MOL   H20730797   3.212   1.727   6.814 -0.7194  0.8164  1.3631
   96MOL   H20830798   3.558   1.593   6.517  0.0616 -1.7903 -0.7465
   96MOL   H20930799   3.527   1.448   6.597 -0.8406 -1.3739 -0.9402
   96MOL   C21030800   3.391   1.488   6.437  0.1641 -0.3190 -0.0055
   96MOL   C21130801   3.492   1.452   6.328 -1.1270  0.1490  0.0960
   96MOL   C21230802   3.574   1.332   6.338 -0.2908  0.5814 -0.3556
   96MOL   C21330803   3.655   1.287   6.227 -1.3309 -0.9401 -0.2085
   96MOL   C21430804   3.665   1.371   6.111  0.4462  0.7833 -0.1508
   96MOL  Cl21530805   3.782   1.329   5.990  0.0212  0.3599 -0.2729
   96MOL   C21630806   3.585   1.489   6.104 -0.3392  0.0783 -0.6792
   96MOL   C21730807   3.491   1.520   6.205  0.3038  0.1863  0.4933
   96MOL   C21830808   3.294   1.372   6.463 -0.2108 -0.2331 -1.2257
   96MOL   H21930809   3.334   1.573   6.398 -1.2477 -1.1226  0.2502
   96MOL   H22030810   3.563   1.265   6.422 -1.3395 -0.1449 -1.0641
   96MOL   H22130811   3.708   1.193   6.235 -1.2688 -0.9765 -0.9882
   96MOL   H22230812   3.584   1.543   6.010  2.2687 -2.3466 -2.1762
   96MOL   H22330813   3.420   1.599   6.184 -0.8510 -1.0989 -0.5143
   96MOL   H22430814   3.363   1.299   6.506 -0.5099 -0.7109 -1.5513
   96MOL   H22530815   3.228   1.400   6.545  0.6421 -1.5643 -0.0557
   96MOL   C22630816   3.226   1.296   6.343  0.6661  0.0874 -0.3938
   96MOL   C22730817   3.152   1.169   6.394 -0.6793 -0.3682  0.8513
   96MOL   C22830818   3.038   1.189   6.476 -1.1267 -0.4197 -0.2784
   96MOL   C22930819   2.965   1.078   6.519  0.2851  0.0658 -0.3994
   96MOL   C23030820   3.004   0.949   6.480 -0.4264 -0.0695 -0.8537
   96MOL  Cl23130821   2.929   0.798   6.534 -0.1420 -0.1621  0.2421
   96MOL   C23230822   3.114   0.930   6.393  0.3444 -0.0366 -1.2817
   96MOL   C23330823   3.190   1.037   6.355 -0.3371  0.8812  0.1522
   96MOL   C23430824   3.143   1.390   6.254 -0.3427  0.4355 -0.2126
   96MOL   H23530825   3.307   1.252   6.284  1.1751  1.4224 -0.6961
   96MOL   H23630826   3.011   1.288   6.509 -0.2655 -0.8261  1.7747
   96MOL   H23730827   2.877   1.100   6.578  0.0557 -1.3223 -0.1893
   96MOL   H23830828   3.143   0.832   6.361  0.7963 -0.7640  1.2750
   96MOL   H23930829   3.279   1.019   6.298 -1.2273  0.8279 -1.2326
   96MOL   H24030830   3.053   1.410   6.311 -1.3883 -0.6586 -1.4593
   96MOL   H24130831   3.195   1.486   6.251  0.7317 -0.1263 -0.1934
   96MOL   C24230832   3.115   1.335   6.110  0.1039 -0.2168  0.2934
   96MOL   C24330833   2.999   1.418   6.038  0.1078 -0.0499  0.5964
   96MOL   C24430834   2.885   1.351   5.988 -0.4056  0.2231  0.2868
   96MOL   C24530835   2.790   1.432   5.919  0.1788  0.7586 -0.4389
   96MOL   C24630836   2.800   1.572   5.911 -0.4537  0.8923 -0.2205
   96MOL  Cl24730837   2.682   1.668   5.824  0.0571 -0.1186 -0.0758
   96MOL   C24830838   2.916   1.635   5.952  0.5485 -0.9510 -0.4029
   96MOL   C24930839   3.015   1.553   6.019  0.1152  0.0885  0.0127
   96MOL   C25030840   3.246   1.345   6.024 -0.3220 -0.3253 -0.9725
   96MOL   H25130841   3.070   1.237   6.122 -0.7561  0.0202 -0.8838
   96MOL   H25230842   2.863   1.250   6.019  1.9622 -0.1818  0.7615
   96MOL   H25330843   2.698   1.388   5.883 -0.4294  1.4301  0.3011
   96MOL   H25430844   2.935   1.737   5.924  1.7892 -1.0152  0.1578
   96MOL   H25530845   3.098   1.603   6.066  0.3064 -0.1919 -0.0298
   96MOL   H25630846   3.275   1.449   6.018 -0.5150 -0.1511  0.8120
   96MOL   H25730847   3.329   1.296   6.075 -0.0868 -0.6990 -1.7032
   96MOL   C25830848   3.223   1.295   5.876  0.6449 -0.2644  0.4847
   96MOL   C25930849   3.340   1.346   5.784  0.0093 -0.4253 -0.2858
   96MOL   C26030850   3.451   1.260   5.748  0.1474  0.0759  0.2025
   96MOL   C26130851   3.563   1.307   5.676 -0.4392 -0.8282  0.0018
   96MOL   C26230852   3.573   1.438   5.636 -0.4434 -0.0786 -0.3252
   96MOL  Cl26330853   3.711   1.507   5.559  0.2962 -0.0924 -0.3865
   96MOL   C26430854   3.467   1.526   5.671 -0.6861 -0.5648  0.2130
   96MOL   C26530855   3.353   1.478   5.748 -0.2988 -0.2367  1.3975
   96MOL   C26630856   3.191   1.138   5.866  0.8129 -0.4912  0.4140
   96MOL   H26730857   3.132   1.338   5.834 -0.0549  0.2038  2.4618
   96MOL   H26830858   3.447   1.155   5.774  0.5645 -0.7941 -3.0270
   96MOL   H26930859   3.642   1.241   5.643  0.8223  0.4111  0.4624
   96MOL   H27030860   3.477   1.631   5.648  1.5182 -0.9011 -0.5469
   96MOL   H27130861   3.287   1.554   5.788  0.7148  1.1782  0.3997
   96MOL   H27230862   3.278   1.077   5.891  0.1339 -0.9241  1.8157
   96MOL   H27330863   3.116   1.108   5.939  1.2802  0.1762  1.1623
   96MOL   C27430864   3.130   1.091   5.728  0.0935  0.1796  0.7018
   96MOL   C27530865   3.235   1.039   5.637 -0.4626 -0.0884 -0.5337
   96MOL   C27630866   3.299   0.921   5.678  0.0510  0.2473  0.9535
   96MOL   C27730867   3.398   0.865   5.600  0.5671  0.2570 -0.0899
   96MOL   C27830868   3.445   0.932   5.485  0.0847  0.2718  0.5669
   96MOL  Cl27930869   3.577   0.866   5.387 -0.3590  0.0338 -0.3676
   96MOL   C28030870   3.386   1.055   5.454  0.2541 -0.9278 -0.1164
   96MOL   C28130871   3.273   1.106   5.525 -0.2132 -0.2851 -0.6630
   96MOL   C28230872   3.021   0.990   5.752  0.6207 -0.2714 -0.3609
   96MOL   H28330873   3.092   1.178   5.675  0.8447  0.2415  0.2528
   96MOL   H28430874   3.264   0.867   5.765  1.1960 -0.6091  0.8990
   96MOL   H28530875   3.453   0.776   5.628  3.4437  1.5267 -1.3878
   96MOL   H28630876   3.422   1.107   5.366  2.6276  0.0674  1.3911
   96MOL   H28730877   3.223   1.196   5.492 -0.7360 -0.9510 -1.6958
   96MOL   H28830878   3.048   0.897   5.802  0.0029 -0.0171  0.4641
   96MOL   H28930879   2.951   1.038   5.821 -0.1590 -0.2975 -1.1200
   96MOL   C29030880   2.929   0.961   5.629 -0.6179 -0.1565 -0.1743
   96MOL   C29130881   2.907   0.808   5.602  0.1128  0.2844  0.5723
   96MOL   C29230882   2.848   0.720   5.696  0.7810 -0.7589 -0.1320
   96MOL   C29330883   2.818   0.583   5.665 -0.0828 -0.0468 -0.1170
   96MOL   C29430884   2.856   0.535   5.541  0.4096  0.1042  0.1929
   96MOL  Cl29530885   2.820   0.372   5.501  0.3101 -0.4173 -0.0984
   96MOL   C29630886   2.915   0.626   5.446  0.5182 -0.4236 -0.5089
   96MOL   C29730887   2.948   0.759   5.480  0.4994 -0.2329 -0.6839
   96MOL   C29830888   2.798   1.045   5.638 -0.3103 -0.1128  1.4173
   96MOL   H29930889   2.975   0.994   5.535 -1.9762 -0.1901 -0.8671
   96MOL   H30030890   2.802   0.756   5.787  2.3588 -1.2626  0.8832
   96MOL   H30130891   2.768   0.516   5.733  1.5876 -0.3357  0.8702
   96MOL   H30230892   2.960   0.587   5.356  1.8022  0.8114 -0.4139
   96MOL   H30330893   3.017   0.813   5.418 -0.4594 -0.5612 -2.0718
   96MOL   H30430894   2.735   1.016   5.553  1.6653 -0.6828  0.1060
   96MOL   H30530895   2.751   1.014   5.731 -0.1128 -1.4842  1.0788
   96MOL   C30630896   2.807   1.202   5.638  0.2383 -0.4357 -0.2294
   96MOL   C30730897   2.884   1.265   5.520  0.3445  0.3077  0.4855
   96MOL   C30830898   2.886   1.210   5.394  0.3578  0.7416  0.2033
   96MOL   C30930899   2.946   1.278   5.287 -0.0898 -0.2123  0.1197
   96MOL   C31030900   3.011   1.403   5.307  0.3803 -0.2065 -0.2735
   96MOL  Cl31130901   3.097   1.481   5.179  0.0597  0.1958 -0.1474
   96MOL   C31230902   3.013   1.459   5.437  0.1876  0.3342  0.1288
   96MOL   C31330903   2.947   1.390   5.536  0.3760  0.1076 -0.0014
   96MOL   C31430904   2.663   1.263   5.645 -0.2761  0.3596  0.1637
   96MOL   H31530905   2.856   1.237   5.729 -2.8690  0.7811  1.0320
   96MOL   H31630906   2.843   1.112   5.378  0.8695  0.8802 -2.3254
   96MOL   H31730907   2.952   1.235   5.188  1.2329 -0.1866  0.1716
   96MOL   H31830908   3.063   1.554   5.449  1.2245 -0.3797  1.6142
   96MOL   H31930909   2.940   1.447   5.628  0.7327  1.4826 -0.8070
   96MOL   H32030910   2.611   1.216   5.728 -0.3473  1.4766  0.7599
   96MOL   H32130911   2.663   1.372   5.655  0.2302  0.4237 -0.4416
   96MOL   H32230912   2.611   1.245   5.551  0.0970  1.2115 -0.2181
   97MOL     C130913   3.695   1.251   4.873 -0.4849  0.3943  0.3330
   97MOL     C230914   3.606   1.149   4.947  0.0442 -0.4329 -0.2552
   97MOL     C330915   3.494   1.209   5.009  1.0111  0.5452 -0.0126
   97MOL     C430916   3.401   1.123   5.076  0.2025  0.3456 -0.5357
   97MOL     C530917   3.422   0.986   5.091 -0.0732 -0.0899  0.3970
   97MOL    Cl630918   3.317   0.873   5.174  0.6516  0.1097 -0.4163
   97MOL     C730919   3.543   0.932   5.031 -0.3490  1.1187 -0.2740
   97MOL     C830920   3.637   1.010   4.959  0.1766 -0.1755 -0.4873
   97MOL     C930921   3.637   1.308   4.739 -0.4906 -0.2686  0.6198
   97MOL    H1030922   3.797   1.215   4.859 -0.0103  0.7173  2.8130
   97MOL    H1130923   3.472   1.314   5.002  0.7957  0.3596 -2.3260
   97MOL    H1230924   3.304   1.159   5.107  1.5610  1.3750  2.7990
   97MOL    H1330925   3.562   0.826   5.038 -1.6326  0.9789  1.4335
   97MOL    H1430926   3.722   0.965   4.910  1.0737  2.0820 -1.0636
   97MOL    H1530927   3.545   1.362   4.761 -0.7721 -0.0359 -1.0061
   97MOL    H1630928   3.711   1.381   4.705 -1.3821  0.0019 -0.7974
   97MOL    H1730929   3.700   1.335   4.942 -1.0351  0.4369  0.3220
   97MOL    C1830930   3.621   1.210   4.613 -0.0462  0.4443 -0.5684
   97MOL    C1930931   3.543   1.282   4.505 -0.3674  0.7819  0.0068
   97MOL    C2030932   3.461   1.206   4.418 -0.1257  0.2565 -0.4220
   97MOL    C2130933   3.406   1.259   4.304  0.0641 -1.0475  0.8129
   97MOL    C2230934   3.420   1.397   4.273  0.2361 -0.1687 -0.5345
   97MOL   Cl2330935   3.343   1.455   4.131 -0.0105  0.3364 -0.3370
   97MOL    C2430936   3.500   1.479   4.360  0.0700 -0.3142  0.3375
   97MOL    C2530937   3.567   1.423   4.476  0.6800 -0.0154  0.1806
   97MOL    C2630938   3.762   1.189   4.539 -0.1899  0.2915 -0.5398
   97MOL    H2730939   3.576   1.114   4.640  2.6960 -0.7033  0.1231
   97MOL    H2830940   3.453   1.099   4.427 -0.0335  0.2498 -0.4208
   97MOL    H2930941   3.349   1.203   4.231  0.4837  0.7636 -0.9792
   97MOL    H3030942   3.514   1.582   4.331  2.1812 -0.7896 -0.4709
   97MOL    H3130943   3.640   1.480   4.531  0.4430  1.5828 -1.0985
   97MOL    H3230944   3.760   1.199   4.430  0.4776  1.4693 -0.4593
   97MOL    H3330945   3.823   1.274   4.573 -1.5464  1.2226 -0.3924
   97MOL    C3430946   3.832   1.051   4.565  0.2392  0.3535  0.4923
   97MOL    C3530947   3.763   0.936   4.491 -0.4010  0.5628 -0.7810
   97MOL    C3630948   3.701   0.831   4.559  0.8209 -0.4646 -0.0739
   97MOL    C3730949   3.641   0.729   4.480  0.3767  0.0505 -0.2925
   97MOL    C3830950   3.648   0.730   4.340  0.1833  0.5901 -0.4865
   97MOL   Cl3930951   3.569   0.616   4.241  0.3187 -0.2342 -0.0101
   97MOL    C4030952   3.711   0.835   4.270 -0.5072 -0.0303 -0.3860
   97MOL    C4130953   3.763   0.939   4.352 -0.4871  0.0405  0.3435
   97MOL    C4230954   3.982   1.042   4.530 -0.2531  0.1337 -0.5509
   97MOL    H4330955   3.812   1.037   4.671  0.9436  0.6322  0.6625
   97MOL    H4430956   3.697   0.826   4.667  0.0138  3.9791  0.1995
   97MOL    H4530957   3.581   0.654   4.529  0.6278  0.7706  1.1589
   97MOL    H4630958   3.711   0.837   4.162 -0.7543  1.0150 -0.3704
   97MOL    H4730959   3.812   1.024   4.308 -1.4243  0.8707  0.8957
   97MOL    H4830960   4.010   0.938   4.547 -3.2771 -0.3441  2.0061
   97MOL    H4930961   4.006   1.062   4.425  1.5326  1.8721  0.1708
   97MOL    C5030962   4.081   1.121   4.626  0.8724 -0.0376  0.2830
   97MOL    C5130963   4.051   1.097   4.777 -0.4770  0.0306  0.1576
   97MOL    C5230964   4.090   1.197   4.871 -0.9547  0.4941 -0.6731
   97MOL    C5330965   4.077   1.176   5.009 -0.2693 -0.4964 -0.4232
   97MOL    C5430966   4.042   1.049   5.058  0.3343  0.2488  0.2894
   97MOL   Cl5530967   4.022   1.022   5.231 -0.1458 -0.4171 -0.1198
   97MOL    C5630968   4.009   0.946   4.967  0.8543  0.4225  0.3302
   97MOL    C5730969   4.015   0.967   4.828 -0.0942  0.5218  0.1167
   97MOL    C5830970   4.231   1.108   4.590  0.2131 -0.1973  0.0135
   97MOL    H5930971   4.059   1.228   4.614 -0.4035 -0.0592  2.1663
   97MOL    H6030972   4.139   1.289   4.846 -0.2192  0.4911  0.7175
   97MOL    H6130973   4.098   1.261   5.072 -0.0559  0.5885 -1.9334
   97MOL    H6230974   3.992   0.844   4.999 -0.9242  0.3588 -0.7675
   97MOL    H6330975   3.986   0.885   4.764 -1.9253  0.4447  1.0105
   97MOL    H6430976   4.295   1.122   4.677  1.9593 -1.2244 -1.0676
   97MOL    H6530977   4.237   1.003   4.562 -1.8949  0.4462 -3.2066
   97MOL    C6630978   4.283   1.201   4.479  0.1674 -1.0051  0.0900
   97MOL    C6730979   4.308   1.345   4.523  0.5133  0.4813 -0.3717
   97MOL    C6830980   4.391   1.372   4.631 -0.1963  0.2836 -0.2419
   97MOL    C6930981   4.402   1.504   4.677  0.8806  0.2705  0.3071
   97MOL    C7030982   4.324   1.602   4.614  0.2170 -0.6949  0.0413
   97MOL   Cl7130983   4.349   1.769   4.648  0.4069  0.1488  0.2075
   97MOL    C7230984   4.234   1.574   4.514 -0.0918 -0.4832  0.1640
   97MOL    C7330985   4.226   1.446   4.467 -0.5352 -0.3392 -0.0254
   97MOL    C7430986   4.406   1.151   4.399 -0.5782 -0.5023 -0.4100
   97MOL    H7530987   4.201   1.197   4.407  1.0394 -0.0469 -0.9844
   97MOL    H7630988   4.447   1.289   4.672 -0.8236  0.0443  0.1379
   97MOL    H7730989   4.479   1.527   4.750  2.0869 -0.8936 -0.5679
   97MOL    H7830990   4.176   1.654   4.472  1.7215  0.9057  0.2332
   97MOL    H7930991   4.166   1.420   4.381  0.8123 -3.2161 -0.1738
   97MOL    H8030992   4.430   1.230   4.328 -3.1852 -1.2832 -2.2642
   97MOL    H8130993   4.489   1.139   4.468  0.3828 -0.9359 -1.6282
   97MOL    C8230994   4.387   1.015   4.318 -0.2646  0.5500 -0.0475
   97MOL    C8330995   4.253   0.994   4.248 -0.3415  0.2895 -0.1801
   97MOL    C8430996   4.215   1.089   4.151  0.2101 -0.3230  0.4132
   97MOL    C8530997   4.092   1.077   4.082  0.2167  0.4671  0.6002
   97MOL    C8630998   4.016   0.960   4.093 -1.1392  0.3875  0.4324
   97MOL   Cl8730999   3.890   0.933   3.976 -0.5877 -0.2738 -0.3225
   97MOL    C8831000   4.049   0.865   4.191  0.1976  0.0389  0.0554
   97MOL    C8931001   4.162   0.883   4.272 -0.0987 -0.8323  0.7676
   97MOL    C9031002   4.507   0.986   4.220 -0.2908  0.3315 -0.8478
   97MOL    H9131003   4.389   0.936   4.393 -0.4622  1.2791  0.7262
   97MOL    H9231004   4.274   1.177   4.130 -0.6683  0.2546  0.3503
   97MOL    H9331005   4.080   1.145   3.999  1.3365  1.8106  1.5124
   97MOL    H9431006   3.999   0.770   4.206 -0.7978  0.2519 -1.8162
   97MOL    H9531007   4.185   0.803   4.341 -0.0492 -0.6307  0.9886
   97MOL    H9631008   4.490   0.884   4.183 -2.2590  0.6721 -0.9536
   97MOL    H9731009   4.491   1.044   4.130 -1.0609 -0.7879 -1.4420
   97MOL    C9831010   4.655   1.017   4.266  0.0007 -0.0896 -0.5177
   97MOL    C9931011   4.700   0.946   4.395  0.4178 -0.2381 -0.6339
   97MOL   C10031012   4.751   1.023   4.505 -0.3277  0.5993  0.7789
   97MOL   C10131013   4.779   0.952   4.622 -1.0735  0.4495 -0.0609
   97MOL   C10231014   4.774   0.816   4.632  0.3774 -0.6198 -0.6270
   97MOL  Cl10331015   4.806   0.749   4.785  0.5111  0.1602 -0.2164
   97MOL   C10431016   4.730   0.735   4.525 -1.2647  0.0364 -0.3596
   97MOL   C10531017   4.692   0.804   4.405 -0.0499  0.3452 -0.5932
   97MOL   C10631018   4.742   0.991   4.141  0.6515  0.2905 -0.7674
   97MOL   H10731019   4.653   1.123   4.293  0.6603 -0.1476 -0.2267
   97MOL   H10831020   4.770   1.129   4.512  2.5317  0.1519  0.5186
   97MOL   H10931021   4.812   1.012   4.705 -1.1805  1.3261 -0.6479
   97MOL   H11031022   4.732   0.627   4.529 -2.3984 -0.0749 -2.2751
   97MOL   H11131023   4.667   0.739   4.322 -1.7571 -0.2875  0.4058
   97MOL   H11231024   4.726   0.892   4.098  1.2361  0.7410 -2.0473
   97MOL   H11331025   4.703   1.061   4.066 -1.0809  0.9378  0.7123
   97MOL   C11431026   4.894   1.016   4.155  0.0615 -0.1098 -1.0571
   97MOL   C11531027   4.963   0.894   4.216 -0.0374  0.2346 -0.1701
   97MOL   C11631028   4.954   0.772   4.150 -0.7801  0.2095  0.4975
   97MOL   C11731029   5.002   0.659   4.216 -0.0662 -0.2112 -0.1533
   97MOL   C11831030   5.069   0.670   4.341 -0.8155  0.5580 -0.4741
   97MOL  Cl11931031   5.131   0.528   4.415  0.0772 -0.1109  0.0173
   97MOL   C12031032   5.083   0.795   4.398  0.5523 -0.7866  0.0182
   97MOL   C12131033   5.027   0.911   4.340 -0.0323  0.4458  0.0093
   97MOL   C12231034   4.968   1.054   4.024 -0.0517  0.4458 -0.1780
   97MOL   H12331035   4.908   1.102   4.220  2.1380 -1.3104  0.1558
   97MOL   H12431036   4.911   0.760   4.052 -0.4067  0.3323  0.3181
   97MOL   H12531037   4.985   0.562   4.170  1.4447 -0.0399 -1.1035
   97MOL   H12631038   5.144   0.806   4.487 -0.4699 -0.4359  0.6878
   97MOL   H12731039   5.032   1.009   4.385  2.2435 -0.8552  2.7431
   97MOL   H12831040   5.073   1.048   4.052 -0.0910 -2.5278 -0.5927
   97MOL   H12931041   4.948   0.983   3.944  0.8269  1.6957 -1.5211
   97MOL   C13031042   4.939   1.196   3.970  0.8035  0.1521 -0.0205
   97MOL   C13131043   5.003   1.297   4.064  0.1554 -0.4037 -0.1196
   97MOL   C13231044   5.146   1.293   4.097  0.2902  0.5111 -0.1963
   97MOL   C13331045   5.194   1.403   4.166  0.7438 -0.6653 -0.4924
   97MOL   C13431046   5.114   1.510   4.208  0.0970 -0.0728  0.6589
   97MOL  Cl13531047   5.182   1.642   4.300  0.1480  0.0108  0.0694
   97MOL   C13631048   4.972   1.511   4.179  0.2970 -0.0495  0.1931
   97MOL   C13731049   4.918   1.398   4.118  0.2865  0.3359 -0.2444
   97MOL   C13831050   5.009   1.217   3.836 -0.0391  0.4592  0.2262
   97MOL   H13931051   4.834   1.223   3.961  1.5332  3.2530  0.0345
   97MOL   H14031052   5.207   1.210   4.065 -0.1603  0.7985 -1.8248
   97MOL   H14131053   5.299   1.397   4.191  0.8891 -2.0163 -1.3234
   97MOL   H14231054   4.912   1.595   4.211  0.8867 -0.5894  2.8902
   97MOL   H14331055   4.813   1.396   4.092  1.0050 -2.0418 -3.3052
   97MOL   H14431056   5.033   1.323   3.838 -1.4073  0.8364 -1.7401
   97MOL   H14531057   5.101   1.158   3.833 -0.5267 -0.3150  0.1546
   97MOL   C14631058   4.927   1.182   3.710  0.4037 -0.0771  0.1200
   97MOL   C14731059   4.771   1.210   3.713  0.0235 -0.7364 -0.6930
   97MOL   C14831060   4.683   1.108   3.757  0.0289  0.4522 -0.4459
   97MOL   C14931061   4.551   1.146   3.783  0.0447  0.2548  0.0642
   97MOL   C15031062   4.496   1.275   3.760  0.9303 -0.6721  0.3415
   97MOL  Cl15131063   4.326   1.310   3.757 -0.6511 -0.0023 -0.1059
   97MOL   C15231064   4.589   1.374   3.712 -0.3846  0.0918 -0.4341
   97MOL   C15331065   4.722   1.341   3.684 -0.1847 -0.0170  0.2347
   97MOL   C15431066   4.996   1.239   3.587 -0.2693  0.0288 -0.0090
   97MOL   H15531067   4.933   1.073   3.705 -0.4030 -0.1765  1.1540
   97MOL   H15631068   4.715   1.006   3.766  3.1308  1.2473 -1.9398
   97MOL   H15731069   4.486   1.069   3.821 -0.4711  0.0500 -1.2036
   97MOL   H15831070   4.568   1.480   3.706  1.1077  0.4127 -0.0595
   97MOL   H15931071   4.783   1.422   3.646  1.4248 -1.4153 -0.2318
   97MOL   H16031072   4.926   1.227   3.505 -0.2126  2.3704 -0.4445
   97MOL   H16131073   4.998   1.347   3.600 -0.8059  0.2180 -1.5147
   97MOL   C16231074   5.143   1.206   3.549 -0.0509 -0.8298 -1.1210
   97MOL   C16331075   5.160   1.067   3.496  0.3328  0.2592 -0.6553
   97MOL   C16431076   5.143   1.042   3.358 -0.2883  0.1756  0.5836
   97MOL   C16531077   5.174   0.918   3.308  0.3027 -0.6129 -0.1289
   97MOL   C16631078   5.204   0.811   3.391 -0.3126  0.0934  0.1893
   97MOL  Cl16731079   5.229   0.653   3.316 -0.3196 -0.5597 -0.2244
   97MOL   C16831080   5.210   0.830   3.528  0.5761  0.2577 -0.0744
   97MOL   C16931081   5.198   0.962   3.584 -0.1912 -0.1145  0.3341
   97MOL   C17031082   5.193   1.314   3.453  0.1315 -0.4352 -0.0685
   97MOL   H17131083   5.205   1.219   3.637 -0.5812 -0.9734 -0.7293
   97MOL   H17231084   5.122   1.126   3.293  0.6202  1.1955  1.5814
   97MOL   H17331085   5.161   0.891   3.204 -0.0731 -2.4945  0.3964
   97MOL   H17431086   5.196   0.747   3.596 -0.9923  0.3481 -0.2694
   97MOL   H17531087   5.191   0.977   3.690 -2.3357  0.5955  0.1221
   97MOL   H17631088   5.292   1.285   3.418  0.5121 -0.1731  0.7909
   97MOL   H17731089   5.132   1.325   3.363 -2.7483  1.1873  2.0098
   97MOL   C17831090   5.224   1.453   3.508 -0.2870  0.6962  1.1537
   97MOL   C17931091   5.327   1.460   3.621  0.5438 -0.3990  0.0227
   97MOL   C18031092   5.284   1.487   3.756  0.2986 -0.0049 -0.3428
   97MOL   C18131093   5.381   1.490   3.861 -0.5588 -0.0471  0.1653
   97MOL   C18231094   5.518   1.466   3.833  0.4618  0.1388  0.3824
   97MOL  Cl18331095   5.635   1.467   3.951  0.2961 -0.1797  0.3178
   97MOL   C18431096   5.560   1.442   3.703  0.5754 -0.6115  0.5964
   97MOL   C18531097   5.466   1.438   3.595  0.2597 -0.7826  0.1816
   97MOL   C18631098   5.270   1.544   3.388 -0.6418 -0.3405 -0.2189
   97MOL   H18731099   5.131   1.495   3.546 -1.0297  0.5664 -0.4993
   97MOL   H18831100   5.179   1.499   3.778  0.4715 -1.0128  1.1741
   97MOL   H18931101   5.366   1.509   3.966 -1.6757 -0.7058  0.1300
   97MOL   H19031102   5.664   1.426   3.677  0.3550  0.5874 -1.1175
   97MOL   H19131103   5.509   1.407   3.501  0.7395 -1.3783  0.5954
   97MOL   H19231104   5.315   1.630   3.438 -0.8477  0.4920 -1.4199
   97MOL   H19331105   5.354   1.500   3.334 -0.2249 -0.7105  0.7269
   97MOL   C19431106   5.168   1.576   3.283  0.5028 -0.2559  0.4557
   97MOL   C19531107   5.039   1.644   3.334 -0.2610 -0.0955  0.9584
   97MOL   C19631108   4.921   1.572   3.338 -0.0086 -0.7682  0.6574
   97MOL   C19731109   4.799   1.630   3.379 -0.6358  0.5643  0.7506
   97MOL   C19831110   4.801   1.750   3.446 -0.1085 -0.1862  0.1223
   97MOL  Cl19931111   4.661   1.812   3.522 -0.2714  0.0960  0.1310
   97MOL   C20031112   4.917   1.825   3.453 -0.0453  0.0012 -0.5536
   97MOL   C20131113   5.035   1.778   3.386  0.0864  0.3551 -0.6577
   97MOL   C20231114   5.223   1.655   3.164  0.7205  0.1984 -0.1991
   97MOL   H20331115   5.141   1.482   3.234 -0.8671 -0.2708  1.2216
   97MOL   H20431116   4.912   1.467   3.311  1.5916 -0.4043 -1.4453
   97MOL   H20531117   4.703   1.581   3.374 -1.1144  1.6022 -0.2321
   97MOL   H20631118   4.924   1.922   3.500 -1.2052  0.1662 -0.7103
   97MOL   H20731119   5.124   1.839   3.393  1.2999 -1.5055  0.4594
   97MOL   H20831120   5.258   1.755   3.189 -1.6317  0.7787  0.8511
   97MOL   H20931121   5.316   1.605   3.136 -0.0585 -1.6759  0.4591
   97MOL   C21031122   5.119   1.670   3.056 -0.1478 -0.1222 -0.3633
   97MOL   C21131123   5.035   1.801   3.054 -0.0351  0.1471 -0.0934
   97MOL   C21231124   4.897   1.788   3.055  0.2385  0.3453  0.3926
   97MOL   C21331125   4.808   1.894   3.076  0.1944 -0.7404  0.1672
   97MOL   C21431126   4.860   2.023   3.094  0.2832  0.5079  0.7478
   97MOL  Cl21531127   4.752   2.156   3.091 -0.1832 -0.1364  0.0801
   97MOL   C21631128   4.997   2.042   3.108 -0.1224 -0.6986  0.1030
   97MOL   C21731129   5.084   1.932   3.080 -0.0331 -0.6659 -0.3461
   97MOL   C21831130   5.180   1.650   2.908  0.0815  0.0446  0.0531
   97MOL   H21931131   5.051   1.585   3.059 -0.4928  0.1959  1.2618
   97MOL   H22031132   4.851   1.690   3.053 -0.1889  0.5557 -0.1114
   97MOL   H22131133   4.702   1.878   3.085  0.0664 -0.3138 -0.5900
   97MOL   H22231134   5.030   2.142   3.134  0.4525 -0.9084  0.1923
   97MOL   H22331135   5.189   1.953   3.094 -0.3504 -0.4647  1.9413
   97MOL   H22431136   5.226   1.552   2.899 -1.6356 -0.7056 -0.5486
   97MOL   H22531137   5.093   1.643   2.843  0.4982 -1.2311 -0.3790
   97MOL   C22631138   5.278   1.755   2.844 -0.0642  0.0894 -0.7257
   97MOL   C22731139   5.410   1.775   2.927 -0.5187  0.6453 -0.0408
   97MOL   C22831140   5.495   1.661   2.946  0.1394  0.2019  0.3010
   97MOL   C22931141   5.615   1.681   3.018 -0.2072  0.6525  0.6133
   97MOL   C23031142   5.643   1.806   3.076 -0.2479 -0.0563 -0.1929
   97MOL  Cl23131143   5.764   1.825   3.194 -0.5691 -0.2625  0.0483
   97MOL   C23231144   5.563   1.919   3.049  0.2103  1.0344 -0.1100
   97MOL   C23331145   5.452   1.903   2.970  0.9892 -0.4840 -0.4190
   97MOL   C23431146   5.317   1.736   2.693  0.2344 -0.0992  0.5513
   97MOL   H23531147   5.240   1.857   2.843  2.4403  1.0395 -1.1360
   97MOL   H23631148   5.468   1.566   2.903  1.0070 -0.5345  1.3601
   97MOL   H23731149   5.691   1.608   3.042 -0.7159  0.5460  1.9385
   97MOL   H23831150   5.582   2.012   3.101  0.0465  1.1138 -0.1928
   97MOL   H23931151   5.386   1.986   2.951  0.9193 -0.1889  1.1165
   97MOL   H24031152   5.398   1.807   2.674  0.9265 -1.1338 -0.4360
   97MOL   H24131153   5.348   1.632   2.689  0.0027 -0.1708  0.6285
   97MOL   C24231154   5.213   1.759   2.588 -0.7442 -0.0130 -0.8686
   97MOL   C24331155   5.124   1.878   2.625 -0.6485 -0.7015  0.5786
   97MOL   C24431156   4.991   1.848   2.662 -0.5335  0.4343 -0.9277
   97MOL   C24531157   4.909   1.956   2.688 -0.3813 -0.1667 -0.1546
   97MOL   C24631158   4.962   2.085   2.709 -0.2954  0.0785  0.0688
   97MOL  Cl24731159   4.853   2.208   2.761 -0.1793  0.2241  0.0419
   97MOL   C24831160   5.101   2.111   2.677 -0.2714  0.4201 -0.7604
   97MOL   C24931161   5.178   2.004   2.628 -0.9171  0.1441 -1.2589
   97MOL   C25031162   5.276   1.759   2.448  0.7671 -0.7050 -0.7493
   97MOL   H25131163   5.147   1.672   2.587 -0.6466 -0.1269  0.9974
   97MOL   H25231164   4.944   1.751   2.672 -0.1194  0.1702 -1.5622
   97MOL   H25331165   4.810   1.925   2.719  0.7559 -1.4410  2.3546
   97MOL   H25431166   5.152   2.206   2.677  0.6417 -0.0511  0.6237
   97MOL   H25531167   5.278   2.038   2.604 -0.6688 -0.4546 -1.0824
   97MOL   H25631168   5.321   1.858   2.440  0.3140 -0.3741  0.7907
   97MOL   H25731169   5.364   1.695   2.446  0.1575 -1.7180  2.4579
   97MOL   C25831170   5.181   1.732   2.332 -1.2524  0.2628 -0.0714
   97MOL   C25931171   5.193   1.853   2.243 -0.0291  0.1466  0.2228
   97MOL   C26031172   5.084   1.943   2.238 -0.3754  0.7129  0.1033
   97MOL   C26131173   5.094   2.062   2.159 -0.1662  0.5614  0.5975
   97MOL   C26231174   5.221   2.091   2.092  0.4630  0.1336 -0.0098
   97MOL  Cl26331175   5.241   2.245   2.028  0.3475  0.0612  0.2205
   97MOL   C26431176   5.320   1.993   2.088  0.9960 -0.4047 -0.1287
   97MOL   C26531177   5.301   1.876   2.164 -0.1725 -0.2050 -0.3793
   97MOL   C26631178   5.217   1.598   2.275  0.0369  0.4873 -0.1590
   97MOL   H26731179   5.077   1.732   2.365 -1.8897 -3.0565 -1.8614
   97MOL   H26831180   5.003   1.908   2.300 -0.2464 -0.1143 -0.1808
   97MOL   H26931181   5.009   2.129   2.166 -0.4354  0.4757 -1.6490
   97MOL   H27031182   5.405   2.024   2.028 -0.6747  2.0163 -1.3151
   97MOL   H27131183   5.375   1.798   2.152  0.0740  0.1422 -1.1487
   97MOL   H27231184   5.214   1.610   2.167 -0.5667 -0.1287 -0.2141
   97MOL   H27331185   5.321   1.571   2.295 -0.2895 -0.2523  0.5967
   97MOL   C27431186   5.110   1.488   2.287 -0.3601 -0.1329 -0.8767
   97MOL   C27531187   5.160   1.365   2.206  1.0114 -0.1160  0.4090
   97MOL   C27631188   5.288   1.300   2.237 -0.0896 -0.7673 -0.5196
   97MOL   C27731189   5.332   1.188   2.168 -0.2097 -0.6666 -0.9423
   97MOL   C27831190   5.242   1.122   2.076  0.2816  1.3134 -0.5385
   97MOL  Cl27931191   5.290   0.969   2.004 -0.0987  0.0875 -0.1514
   97MOL   C28031192   5.115   1.177   2.053  0.2948 -0.3775 -0.2714
   97MOL   C28131193   5.074   1.292   2.124  0.2560  0.0823 -0.0643
   97MOL   C28231194   5.076   1.459   2.433  0.2547  0.0914 -1.0522
   97MOL   H28331195   5.015   1.522   2.246 -1.4227 -0.4203  1.3022
   97MOL   H28431196   5.350   1.339   2.317  0.8200  2.2106 -2.6005
   97MOL   H28531197   5.429   1.149   2.194  1.0589  1.3446 -2.5048
   97MOL   H28631198   5.052   1.123   1.983 -0.8847  0.8147 -0.1480
   97MOL   H28731199   4.975   1.334   2.112 -0.1328 -0.2175  1.8760
   97MOL   H28831200   5.167   1.477   2.492 -0.9226  1.7843  0.2873
   97MOL   H28931201   4.998   1.527   2.464  0.5731 -0.2010  0.4224
   97MOL   C29031202   5.034   1.318   2.476  0.0270  0.1614 -0.1016
   97MOL   C29131203   5.036   1.313   2.629  0.3587  0.1345  0.0362
   97MOL   C29231204   5.129   1.230   2.696  0.1152 -0.0075  0.6228
   97MOL   C29331205   5.123   1.213   2.837  0.1747 -0.3790 -0.3321
   97MOL   C29431206   5.024   1.285   2.909  0.1540 -0.1147  0.0569
   97MOL  Cl29531207   5.000   1.261   3.078 -0.4666 -0.0134  0.0255
   97MOL   C29631208   4.938   1.377   2.847  0.6321  0.2274  0.4905
   97MOL   C29731209   4.944   1.390   2.704  0.3187  0.0143 -0.0234
   97MOL   C29831210   4.895   1.278   2.419 -0.4063 -0.0036  0.1719
   97MOL   H29931211   5.109   1.246   2.443 -0.0132 -0.0906  0.3523
   97MOL   H30031212   5.200   1.169   2.641 -0.3780  0.2308 -0.2870
   97MOL   H30131213   5.195   1.145   2.880  0.4727  0.8485  1.1720
   97MOL   H30231214   4.859   1.429   2.899  2.9600  2.9800  1.4230
   97MOL   H30331215   4.877   1.456   2.650  0.3283 -1.4938 -1.9152
   97MOL   H30431216   4.816   1.315   2.485 -0.9364 -0.7388 -0.0345
   97MOL   H30531217   4.889   1.302   2.313 -0.9675  1.7042  0.5714
   97MOL   C30631218   4.867   1.124   2.427 -1.0305  0.2890 -0.0730
   97MOL   C30731219   4.718   1.085   2.401 -1.4203 -0.3692 -0.3200
   97MOL   C30831220   4.654   1.005   2.490 -0.0627 -0.9042 -0.3690
   97MOL   C30931221   4.527   0.963   2.461 -0.1548  0.4700  0.6507
   97MOL   C31031222   4.456   1.004   2.352 -0.4849 -0.6123  0.0977
   97MOL  Cl31131223   4.305   0.947   2.320 -0.1331 -0.1978 -0.0154
   97MOL   C31231224   4.512   1.100   2.268 -0.1032  0.0396  0.4343
   97MOL   C31331225   4.652   1.136   2.289 -0.3595 -0.8670 -0.1296
   97MOL   C31431226   4.945   1.038   2.330 -0.3984 -0.0053  0.1643
   97MOL   H31531227   4.888   1.094   2.530 -0.6034 -1.1288 -0.5685
   97MOL   H31631228   4.705   0.976   2.581 -0.9631 -0.0529  0.4154
   97MOL   H31731229   4.477   0.907   2.539  1.3563 -4.0270 -1.4032
   97MOL   H31831230   4.462   1.136   2.179 -0.2365  0.3166  0.6210
   97MOL   H31931231   4.706   1.206   2.227  0.8699  0.5514  2.4919
   97MOL   H32031232   4.946   0.940   2.377  0.9360  0.4075  1.0311
   97MOL   H32131233   4.922   1.027   2.224 -1.1242 -0.1737  0.3389
   97MOL   H32231234   5.048   1.073   2.328 -0.4535  0.2495  1.3564
   98MOL     C131235   6.518   6.087   1.632  0.1409 -0.6805 -0.1527
   98MOL     C231236   6.619   6.116   1.520 -0.0200  0.1715 -0.1441
   98MOL     C331237   6.676   6.007   1.455 -0.3328  0.3643 -0.5308
   98MOL     C431238   6.796   6.021   1.382  0.1211 -0.1375  0.9572
   98MOL     C531239   6.835   6.147   1.353  0.2803 -0.5325  0.2659
   98MOL    Cl631240   6.984   6.171   1.270 -0.0650 -0.0373 -0.5107
   98MOL     C731241   6.770   6.263   1.406  0.1355 -0.3072  0.2519
   98MOL     C831242   6.666   6.251   1.498  0.0712 -0.1799 -0.2127
   98MOL     C931243   6.376   6.065   1.576 -0.3665  0.0576 -0.4855
   98MOL    H1031244   6.522   6.176   1.695 -2.3722  0.4690 -1.4999
   98MOL    H1131245   6.639   5.908   1.477  0.6013  0.2671  0.6533
   98MOL    H1231246   6.841   5.942   1.324  0.4194  0.1765  0.7605
   98MOL    H1331247   6.808   6.363   1.389  1.8900 -1.0356 -0.3052
   98MOL    H1431248   6.619   6.330   1.554 -1.2304 -1.5462  0.6578
   98MOL    H1531249   6.344   6.163   1.542  1.8426  0.7684 -0.6202
   98MOL    H1631250   6.392   6.007   1.485 -0.2919  0.3427 -0.6545
   98MOL    H1731251   6.540   6.000   1.693  2.1961  0.1744  0.3479
   98MOL    C1831252   6.282   5.999   1.671 -0.6823 -0.4315 -0.0391
   98MOL    C1931253   6.276   6.073   1.804  0.2857  0.1837 -0.4493
   98MOL    C2031254   6.337   6.016   1.916 -0.1848  0.0588  0.1307
   98MOL    C2131255   6.334   6.077   2.044  0.6608  0.0714  0.7213
   98MOL    C2231256   6.261   6.201   2.056 -0.3526 -0.8012 -0.4009
   98MOL   Cl2331257   6.248   6.269   2.217 -0.1445 -0.3350  0.0504
   98MOL    C2431258   6.194   6.254   1.942  0.2301  0.4720  0.3214
   98MOL    C2531259   6.211   6.193   1.821  0.9321 -0.1927 -0.1770
   98MOL    C2631260   6.149   5.972   1.603  0.0280  0.1040  0.0527
   98MOL    H2731261   6.320   5.899   1.691  0.1981 -0.7133 -2.8080
   98MOL    H2831262   6.395   5.925   1.911  0.6488  0.5487  0.8230
   98MOL    H2931263   6.377   6.041   2.136  0.3762  0.4699  1.0154
   98MOL    H3031264   6.125   6.336   1.955 -0.8356  0.2997 -3.8159
   98MOL    H3131265   6.164   6.223   1.728  0.1507 -1.4837 -0.2116
   98MOL    H3231266   6.073   5.959   1.680  1.8102  0.3708  1.8894
   98MOL    H3331267   6.106   6.062   1.559  2.3800  1.4530  0.4398
   98MOL    C3431268   6.123   5.854   1.510  0.3733 -0.4946 -0.1822
   98MOL    C3531269   6.166   5.726   1.575  0.1635  0.3395  0.1658
   98MOL    C3631270   6.287   5.670   1.524  0.1413 -0.2177 -0.8553
   98MOL    C3731271   6.328   5.543   1.578  0.1474 -0.2993  0.0016
   98MOL    C3831272   6.260   5.487   1.685  0.6196  0.0372 -0.3658
   98MOL   Cl3931273   6.330   5.341   1.756 -0.3306 -0.3250 -0.2240
   98MOL    C4031274   6.145   5.541   1.739 -0.2617  0.1218  0.4732
   98MOL    C4131275   6.104   5.666   1.688 -0.5817  0.0069 -0.1042
   98MOL    C4231276   5.989   5.854   1.437  0.0591  0.3562  0.1399
   98MOL    H4331277   6.193   5.859   1.426  2.6356 -0.4478  1.6589
   98MOL    H4431278   6.335   5.709   1.436  3.5368  0.3289  1.1569
   98MOL    H4531279   6.416   5.497   1.536  0.1724  0.4804 -0.8155
   98MOL    H4631280   6.092   5.495   1.821 -2.3857  0.3600 -0.7295
   98MOL    H4731281   6.008   5.706   1.716 -1.1140 -0.3828 -1.3505
   98MOL    H4831282   5.909   5.843   1.510 -0.5974 -0.6507 -0.7213
   98MOL    H4931283   5.979   5.956   1.401 -0.5242  0.6255  1.0512
   98MOL    C5031284   5.957   5.750   1.324  0.0217  0.8031 -0.2967
   98MOL    C5131285   5.807   5.767   1.281  0.6166 -0.1533 -0.0023
   98MOL    C5231286   5.718   5.654   1.287  0.4473 -0.2063 -0.0028
   98MOL    C5331287   5.582   5.670   1.257 -0.4746 -0.1751  0.3977
   98MOL    C5431288   5.534   5.796   1.215 -0.3412  0.1307 -0.4233
   98MOL   Cl5531289   5.366   5.812   1.174 -0.2309 -0.0312 -0.2922
   98MOL    C5631290   5.625   5.905   1.195  0.1478  0.1629 -0.5393
   98MOL    C5731291   5.760   5.887   1.236 -0.4117 -0.0422 -0.5000
   98MOL    C5831292   6.037   5.742   1.199  0.1600 -0.2857  0.5560
   98MOL    H5931293   5.952   5.648   1.362 -1.7174  0.2347 -1.9310
   98MOL    H6031294   5.741   5.551   1.313 -1.0548 -0.0072  2.1502
   98MOL    H6131295   5.514   5.589   1.278  0.4685 -1.1875 -0.3627
   98MOL    H6231296   5.588   5.993   1.146 -2.9224 -0.0555  1.2654
   98MOL    H6331297   5.839   5.959   1.217 -2.3260  1.7876 -1.7923
   98MOL    H6431298   5.978   5.749   1.108  1.1472  0.0080 -0.0700
   98MOL    H6531299   6.107   5.826   1.191 -0.3773 -0.1212 -3.2595
   98MOL    C6631300   6.127   5.627   1.195  0.9796 -0.1895 -0.4410
   98MOL    C6731301   6.056   5.485   1.213  0.2226 -0.9802  0.8407
   98MOL    C6831302   6.079   5.418   1.332  0.2325 -0.5176  0.0092
   98MOL    C6931303   6.031   5.286   1.351 -1.2766 -1.1151 -0.2609
   98MOL    C7031304   5.947   5.229   1.252  0.1793  0.1619 -0.5331
   98MOL   Cl7131305   5.879   5.074   1.278 -0.3742 -0.0811 -0.1342
   98MOL    C7231306   5.920   5.301   1.132 -0.6032  0.2474 -0.2425
   98MOL    C7331307   5.968   5.428   1.118  0.0108  0.0266  0.8728
   98MOL    C7431308   6.218   5.638   1.075  0.3926  0.5002  0.4945
   98MOL    H7531309   6.182   5.642   1.288  3.1157 -2.0903 -1.3540
   98MOL    H7631310   6.133   5.456   1.419 -2.8848  2.2475  0.8359
   98MOL    H7731311   6.053   5.242   1.447 -1.2434  0.6980  0.5867
   98MOL    H7831312   5.852   5.256   1.061 -1.8363  1.4464  0.1711
   98MOL    H7931313   5.950   5.470   1.020  0.9499 -0.6236  0.4176
   98MOL    H8031314   6.222   5.545   1.018  0.2171 -0.4228  1.9549
   98MOL    H8131315   6.179   5.711   1.004  1.6376 -1.1302 -1.9309
   98MOL    C8231316   6.358   5.681   1.124 -1.0063 -0.1078  0.1252
   98MOL    C8331317   6.429   5.580   1.208  0.1898  0.4598 -0.1375
   98MOL    C8431318   6.538   5.622   1.289  0.7707  0.0651 -0.4901
   98MOL    C8531319   6.619   5.531   1.360  0.3207 -0.0100 -0.3669
   98MOL    C8631320   6.586   5.395   1.354  0.0953  0.0826  0.1942
   98MOL   Cl8731321   6.672   5.277   1.440 -0.1263  0.3089 -0.0545
   98MOL    C8831322   6.473   5.350   1.279 -0.8207  0.5250 -0.3475
   98MOL    C8931323   6.397   5.441   1.204  0.3286 -0.4717 -0.2765
   98MOL    C9031324   6.441   5.732   1.005 -0.4455  0.3671 -0.1887
   98MOL    H9131325   6.337   5.762   1.195 -0.8044  1.4260 -1.5313
   98MOL    H9231326   6.559   5.728   1.295  0.4664  0.0180  2.1282
   98MOL    H9331327   6.697   5.562   1.428  0.2817 -1.3359  0.2966
   98MOL    H9431328   6.454   5.244   1.283  1.1008  0.2281  1.5067
   98MOL    H9531329   6.315   5.406   1.144  0.1753  0.2285 -0.4790
   98MOL    H9631330   6.534   5.744   1.062 -0.0351 -0.3316 -0.7069
   98MOL    H9731331   6.459   5.658   0.927  2.8944 -0.3690  1.1360
   98MOL    C9831332   6.393   5.861   0.928  0.7914 -0.8982  0.0447
   98MOL    C9931333   6.367   5.978   1.019 -1.0151  0.1525 -0.0550
   98MOL   C10031334   6.461   6.015   1.120 -0.2699 -0.2848 -0.0997
   98MOL   C10131335   6.424   6.112   1.217  0.4456  0.0320  0.3966
   98MOL   C10231336   6.302   6.177   1.203 -0.0052 -0.5893  0.2485
   98MOL  Cl10331337   6.261   6.299   1.321  0.3137  0.6120 -0.0448
   98MOL   C10431338   6.209   6.144   1.103 -0.6228  0.1759 -0.3540
   98MOL   C10531339   6.245   6.045   1.012  0.2801  0.1872 -0.4839
   98MOL   C10631340   6.479   5.900   0.812  0.6695  0.0495 -0.2710
   98MOL   H10731341   6.295   5.843   0.884  0.2669  0.2248  0.7192
   98MOL   H10831342   6.560   5.975   1.135 -0.9093 -1.6696  0.5098
   98MOL   H10931343   6.491   6.158   1.288  1.0251 -0.0534 -0.0936
   98MOL   H11031344   6.118   6.199   1.090 -1.3205 -0.8527  0.1146
   98MOL   H11131345   6.182   6.016   0.929 -0.4015  1.4519 -0.4090
   98MOL   H11231346   6.566   5.962   0.835  0.8802  0.5508 -2.3779
   98MOL   H11331347   6.531   5.806   0.792  1.1755  0.6123 -1.6831
   98MOL   C11431348   6.405   5.940   0.687  0.0740 -0.0785  0.1725
   98MOL   C11531349   6.365   6.081   0.656  0.6381  0.2514 -0.0245
   98MOL   C11631350   6.262   6.117   0.567 -0.3848 -0.2389 -0.6648
   98MOL   C11731351   6.231   6.253   0.544  0.7284  0.4411  0.6180
   98MOL   C11831352   6.303   6.352   0.608 -0.0745  0.3992 -0.1518
   98MOL  Cl11931353   6.251   6.516   0.587  0.2571 -0.1345  0.2067
   98MOL   C12031354   6.418   6.323   0.691  0.7092 -0.0243 -0.1403
   98MOL   C12131355   6.440   6.185   0.718  1.1214  0.0154  0.5355
   98MOL   C12231356   6.471   5.891   0.557  0.3416 -0.5428 -0.5925
   98MOL   H12331357   6.305   5.897   0.693 -0.1352  0.2342 -0.8914
   98MOL   H12431358   6.199   6.048   0.513 -1.9270  0.3439  0.3779
   98MOL   H12531359   6.147   6.267   0.478  1.8127  0.0926 -0.8572
   98MOL   H12631360   6.478   6.393   0.746  1.3493 -1.1767  0.6688
   98MOL   H12731361   6.516   6.163   0.791  0.2900  1.0107  1.7283
   98MOL   H12831362   6.391   5.909   0.485  1.3674  2.6271 -1.0269
   98MOL   H12931363   6.558   5.949   0.528 -0.0956  0.2105 -0.4303
   98MOL   C13031364   6.498   5.742   0.538  0.6313 -0.1775  0.1983
   98MOL   C13131365   6.403   5.645   0.614 -0.6016  0.9241 -0.2049
   98MOL   C13231366   6.459   5.543   0.687  0.2107  0.3731  0.1743
   98MOL   C13331367   6.378   5.442   0.742  0.9246 -0.3620  0.1335
   98MOL   C13431368   6.238   5.446   0.729 -0.2252  0.2511  0.5838
   98MOL  Cl13531369   6.140   5.324   0.797  0.1807 -0.2891  0.2757
   98MOL   C13631370   6.182   5.551   0.660  0.4596  0.0023  0.2389
   98MOL   C13731371   6.262   5.649   0.596 -0.0173  0.0649 -0.2069
   98MOL   C13831372   6.494   5.706   0.385  0.0519  0.7368 -0.5615
   98MOL   H13931373   6.603   5.734   0.565  1.6722 -1.6509 -3.9423
   98MOL   H14031374   6.565   5.545   0.706 -0.0240 -0.3995  1.6005
   98MOL   H14131375   6.426   5.358   0.791  0.6736 -2.2153 -2.7063
   98MOL   H14231376   6.074   5.561   0.654  0.1695 -2.1562  1.3987
   98MOL   H14331377   6.217   5.734   0.546 -0.4524  0.4440  0.8172
   98MOL   H14431378   6.397   5.739   0.347  1.4124  3.2630 -1.9905
   98MOL   H14531379   6.568   5.772   0.340  2.0398 -1.6148 -0.8113
   98MOL   C14631380   6.501   5.552   0.340 -0.8953  0.5144 -0.1376
   98MOL   C14731381   6.438   5.519   0.203  0.0606  0.0660  0.6631
   98MOL   C14831382   6.369   5.397   0.182  0.3528  0.2706  0.4621
   98MOL   C14931383   6.313   5.372   0.058 -0.2426 -0.2906  0.1758
   98MOL   C15031384   6.331   5.460   8.394 -0.3943 -0.6451 -0.6965
   98MOL  Cl15131385   6.249   5.439   8.244  0.1235 -0.2898  0.4005
   98MOL   C15231386   6.418   5.573   8.411  0.1737 -0.4624 -0.2252
   98MOL   C15331387   6.460   5.612   0.094  0.3373  0.4901 -0.4160
   98MOL   C15431388   6.649   5.504   0.352  0.6573 -0.2484 -0.2715
   98MOL   H15531389   6.430   5.497   0.402  1.1768 -0.6280  1.2852
   98MOL   H15631390   6.369   5.332   0.269  2.1602  0.5260  0.6749
   98MOL   H15731391   6.254   5.282   0.050 -2.0643  0.6959  1.9238
   98MOL   H15831392   6.434   5.649   8.336 -0.3046  0.6793  0.8034
   98MOL   H15931393   6.521   5.700   0.110  2.5557 -0.8650 -1.2289
   98MOL   H16031394   6.677   5.501   0.457  0.4648  0.7677 -0.1873
   98MOL   H16131395   6.643   5.397   0.329 -0.3862 -0.5069  1.1365
   98MOL   C16231396   6.752   5.575   0.264  0.2468  0.0160  0.1874
   98MOL   C16331397   6.872   5.629   0.346 -0.2782 -0.6714  0.0608
   98MOL   C16431398   6.968   5.547   0.405  0.5333  0.3744 -0.5524
   98MOL   C16531399   7.082   5.599   0.467  0.4008 -0.1548 -0.0494
   98MOL   C16631400   7.103   5.739   0.464 -0.0526 -0.1974  0.0813
   98MOL  Cl16731401   7.262   5.798   0.518 -0.2818  0.2367 -0.2881
   98MOL   C16831402   7.005   5.827   0.418 -0.0948 -0.2517  0.3871
   98MOL   C16931403   6.887   5.776   0.365  0.2770  0.6882  0.2111
   98MOL   C17031404   6.800   5.479   0.151  0.1056  0.0024  0.7120
   98MOL   H17131405   6.708   5.665   0.222 -1.0676 -0.1996  1.0684
   98MOL   H17231406   6.955   5.440   0.402  1.0484  0.1295  3.3182
   98MOL   H17331407   7.157   5.528   0.499 -1.3690 -1.9612  0.1306
   98MOL   H17431408   7.017   5.934   0.420  0.8574 -0.3593  0.6386
   98MOL   H17531409   6.819   5.858   0.344  0.2744  0.5460 -0.3465
   98MOL   H17631410   6.844   5.397   0.209  0.2583 -0.3831  0.0476
   98MOL   H17731411   6.721   5.425   0.100  0.3765 -2.0051  2.3410
   98MOL   C17831412   6.902   5.545   0.059  0.4609 -1.1404  0.7079
   98MOL   C17931413   7.005   5.448   0.013  0.5892  0.0466  0.0609
   98MOL   C18031414   7.134   5.495   8.432 -0.1784 -0.4043  0.6225
   98MOL   C18131415   7.226   5.400   8.380 -0.3144 -0.2622  0.8417
   98MOL   C18231416   7.191   5.269   8.356  0.1509 -0.1046  0.2172
   98MOL  Cl18331417   7.311   5.153   8.300  0.1845  0.1192  0.0082
   98MOL   C18431418   7.057   5.222   8.377 -0.2992 -0.2428  0.0976
   98MOL   C18531419   6.961   5.317   8.423  0.2912  0.3661  0.0043
   98MOL   C18631420   6.841   5.632   8.385  0.6279 -0.1448 -0.3979
   98MOL   H18731421   6.962   5.610   0.122  2.2060 -2.4588  0.4432
   98MOL   H18831422   7.165   5.597   0.006  1.1265 -0.8699  1.1674
   98MOL   H18931423   7.328   5.433   8.370 -0.9277  1.4269  0.0282
   98MOL   H19031424   7.032   5.117   8.376 -3.8299  0.5044  1.5177
   98MOL   H19131425   6.861   5.279   8.437  1.1842 -2.5056 -0.9867
   98MOL   H19231426   6.796   5.565   8.311  3.1095  0.2139 -2.3061
   98MOL   H19331427   6.749   5.683   8.414  0.2701  0.6112 -2.7469
   98MOL   C19431428   6.926   5.746   8.329  0.5491  1.1441  0.5480
   98MOL   C19531429   6.866   5.806   8.208 -0.5063 -0.0583  0.6617
   98MOL   C19631430   6.886   5.747   8.079  0.9928  0.0120 -0.3353
   98MOL   C19731431   6.816   5.801   7.969 -0.3378  0.3076  0.8774
   98MOL   C19831432   6.732   5.909   7.975  0.6002  0.0178 -0.0071
   98MOL  Cl19931433   6.660   5.989   7.839  0.1680 -0.0938 -0.0038
   98MOL   C20031434   6.712   5.965   8.104  0.9787  0.0030  0.0820
   98MOL   C20131435   6.769   5.909   8.221 -0.4598  0.0511  0.2374
   98MOL   C20231436   6.982   5.838   8.426 -0.3321  0.5003  0.1160
   98MOL   H20331437   7.010   5.688   8.292 -1.3222 -0.4152 -1.4410
   98MOL   H20431438   6.955   5.666   8.060  3.2799  2.1348 -1.2960
   98MOL   H20531439   6.842   5.764   7.870  2.0689  2.2092  0.7419
   98MOL   H20631440   6.646   6.051   8.107 -0.1408 -0.7758 -1.4288
   98MOL   H20731441   6.756   5.946   8.321  0.0934  1.0286 -0.0491
   98MOL   H20831442   6.912   5.880   0.055  0.6331  0.6943  0.9601
   98MOL   H20931443   7.043   5.794   0.062 -0.7132  0.3057  0.3029
   98MOL   C21031444   7.062   5.963   8.372  0.0377  0.0497 -0.5094
   98MOL   C21131445   7.071   6.069   0.030  0.3278 -0.2608  0.0549
   98MOL   C21231446   7.028   6.201   0.002 -0.5930  0.1231 -0.2684
   98MOL   C21331447   7.034   6.306   0.096  0.4066 -0.2331 -1.1937
   98MOL   C21431448   7.084   6.287   0.225 -0.2605  0.4255 -0.1783
   98MOL  Cl21531449   7.092   6.414   0.347  0.3318  0.0504 -0.0054
   98MOL   C21631450   7.122   6.150   0.257 -0.0844 -1.0165 -0.7107
   98MOL   C21731451   7.125   6.049   0.158 -0.4109 -0.4588 -0.1659
   98MOL   C21831452   7.199   5.919   8.313 -0.0493  0.5105  0.4594
   98MOL   H21931453   7.004   6.015   8.296  0.2688  0.0609 -0.6804
   98MOL   H22031454   6.984   6.224   8.349  0.7984 -0.1112 -0.9758
   98MOL   H22131455   6.995   6.403   0.068  0.8493  0.3116  0.0695
   98MOL   H22231456   7.167   6.125   0.352  0.0226 -0.4900 -0.6210
   98MOL   H22331457   7.159   5.950   0.186 -0.8428 -0.8913 -1.1185
   98MOL   H22431458   7.256   5.867   8.390 -0.7787 -1.5378 -0.3390
   98MOL   H22531459   7.182   5.844   8.236  2.8830  1.3020 -1.0371
   98MOL   C22631460   7.284   6.033   8.256 -0.3028 -0.0382 -0.0884
   98MOL   C22731461   7.426   5.981   8.225  0.2717 -0.4340 -0.2146
   98MOL   C22831462   7.448   5.898   8.116  0.0161 -0.1122 -0.3066
   98MOL   C22931463   7.578   5.846   8.086  0.4782 -0.5971  0.3948
   98MOL   C23031464   7.686   5.876   8.170  0.1537 -0.4013  0.4097
   98MOL  Cl23131465   7.850   5.855   8.121 -0.4841 -0.3615  0.3756
   98MOL   C23231466   7.662   5.949   8.286 -0.3509 -0.3543 -0.2010
   98MOL   C23331467   7.533   6.002   8.319  0.1183  0.2485 -0.0618
   98MOL   C23431468   7.223   6.104   8.141  0.1167 -0.2486  1.0331
   98MOL   H23531469   7.296   6.102   8.339 -1.9546  1.0787 -0.7556
   98MOL   H23631470   7.365   5.873   8.052 -0.0659  0.1276 -0.2964
   98MOL   H23731471   7.595   5.786   7.998  0.0719 -0.6142  0.3298
   98MOL   H23831472   7.743   5.972   8.354 -1.6681 -0.0751  1.2906
   98MOL   H23931473   7.520   6.074   8.398 -2.4697  1.3960 -1.4807
   98MOL   H24031474   7.172   6.036   8.072 -1.7020 -0.1138  2.2048
   98MOL   H24131475   7.137   6.166   8.169  0.9478  0.7300  1.4431
   98MOL   C24231476   7.322   6.188   8.052 -0.4331  0.2471  0.5114
   98MOL   C24331477   7.263   6.245   7.922 -0.1605  0.5508  0.2472
   98MOL   C24431478   7.167   6.341   7.931  0.7189 -0.2982  0.4375
   98MOL   C24531479   7.097   6.376   7.812  0.2788 -0.1159  0.4550
   98MOL   C24631480   7.136   6.328   7.684  0.2890  0.0797 -0.2072
   98MOL  Cl24731481   7.062   6.380   7.545 -0.0520 -0.2786  0.1827
   98MOL   C24831482   7.244   6.241   7.675 -0.6646  0.5378  0.3260
   98MOL   C24931483   7.303   6.194   7.794 -0.0050  0.3953  0.0551
   98MOL   C25031484   7.399   6.294   8.135  0.2311 -0.4540  0.3669
   98MOL   H25131485   7.400   6.126   8.007  0.8586  0.1611  2.7809
   98MOL   H25231486   7.141   6.371   8.031 -1.7389 -1.4322  0.1633
   98MOL   H25331487   7.018   6.450   7.814  2.1333  1.9457 -0.4222
   98MOL   H25431488   7.277   6.218   7.575 -0.1289  1.5336  0.2643
   98MOL   H25531489   7.372   6.110   7.793 -0.5996 -0.0940  0.0910
   98MOL   H25631490   7.334   6.369   8.180 -0.6446 -1.1850  0.3220
   98MOL   H25731491   7.439   6.244   8.223  1.0373  0.2865  0.4309
   98MOL   C25831492   7.512   6.364   8.053  0.2007 -0.4495 -0.3887
   98MOL   C25931493   7.519   6.515   8.062  0.5150 -0.2585  0.1750
   98MOL   C26031494   7.464   6.590   7.955 -0.0261 -0.7262  0.2950
   98MOL   C26131495   7.461   6.733   7.958  0.1209 -0.1499  0.2381
   98MOL   C26231496   7.515   6.800   8.070 -0.0101  0.1268 -0.2637
   98MOL  Cl26331497   7.507   6.972   8.081 -0.1702 -0.3833  0.2070
   98MOL   C26431498   7.567   6.730   8.184 -0.3143 -0.6238  0.1314
   98MOL   C26531499   7.565   6.587   8.175  0.0887 -0.4748 -0.2139
   98MOL   C26631500   7.653   6.306   8.096  0.4238  0.2061  0.0809
   98MOL   H26731501   7.497   6.322   7.954 -3.6336 -0.0659 -0.0546
   98MOL   H26831502   7.440   6.533   7.866  0.0361  1.2077 -0.9923
   98MOL   H26931503   7.424   6.788   7.874 -1.4921  1.7472  2.1299
   98MOL   H27031504   7.599   6.778   8.275  0.6847 -0.3767 -0.3390
   98MOL   H27131505   7.591   6.528   8.261  0.1459  0.1261  0.1879
   98MOL   H27231506   7.691   6.347   8.190 -0.4796  2.8296 -0.6721
   98MOL   H27331507   7.635   6.201   8.120  0.1604  0.2351  0.0060
   98MOL   C27431508   7.762   6.318   7.983  0.7397  0.5995 -0.3282
   98MOL   C27531509   7.718   6.254   7.855  0.3531 -0.0835  0.6179
   98MOL   C27631510   7.742   6.116   7.833 -0.2336 -0.1832 -0.7059
   98MOL   C27731511   7.695   6.056   7.719  0.6709  0.1173 -0.4766
   98MOL   C27831512   7.640   6.131   7.615 -0.7930 -0.0127  0.5889
   98MOL  Cl27931513   7.591   6.044   7.471  0.3145  0.1946  0.1047
   98MOL   C28031514   7.622   6.266   7.630 -0.1743  0.1360 -0.6394
   98MOL   C28131515   7.646   6.331   7.755 -0.1090 -0.4164 -0.3212
   98MOL   C28231516   7.829   6.456   7.963  0.2869  0.5099 -0.5230
   98MOL   H28331517   7.840   6.260   8.032  1.6944  1.7057 -0.5138
   98MOL   H28431518   7.795   6.066   7.912  0.5431 -1.1873 -1.8517
   98MOL   H28531519   7.714   5.950   7.713 -0.0242 -0.0448  0.1914
   98MOL   H28631520   7.575   6.317   7.548  0.3854 -1.2140 -1.8259
   98MOL   H28731521   7.619   6.435   7.762  0.1933 -0.4087  0.7439
   98MOL   H28831522   7.751   6.526   7.935  1.2918  0.4637 -3.5556
   98MOL   H28931523   7.851   6.499   8.060 -0.7429  1.6943 -0.8049
   98MOL   C29031524   7.952   6.461   7.869 -0.1319  0.3527  0.3963
   98MOL   C29131525   8.038   6.333   7.866  0.7685 -0.1173 -0.2406
   98MOL   C29231526   8.120   6.302   7.975 -0.3901 -0.0625  0.2639
   98MOL   C29331527   8.195   6.184   7.977 -0.3069  0.3053  0.6218
   98MOL   C29431528   8.187   6.100   7.865  0.7188  0.5903 -1.0077
   98MOL  Cl29531529   8.280   5.960   7.862  0.3235 -0.1212 -0.0180
   98MOL   C29631530   8.111   6.135   7.750  0.5620 -0.2219  0.4110
   98MOL   C29731531   8.031   6.252   7.752  0.2820 -1.0533  0.1652
   98MOL   C29831532   7.913   6.531   7.730 -0.1834  0.2616  0.4312
   98MOL   H29931533   8.022   6.525   7.922  1.5611 -0.6125 -0.5845
   98MOL   H30031534   8.120   6.362   8.065  0.7802  1.5060 -0.7610
   98MOL   H30131535   8.227   6.141   8.070 -1.2891 -1.0358  0.3537
   98MOL   H30231536   8.104   6.072   7.662 -0.0095 -0.0460  0.3240
   98MOL   H30331537   7.960   6.282   7.677 -1.2488  0.6413  2.2103
   98MOL   H30431538   7.990   6.518   7.654  0.1398 -0.7057  0.9176
   98MOL   H30531539   7.834   6.473   7.680 -1.6319  2.9294 -0.5039
   98MOL   C30631540   7.874   6.680   7.737  0.4160  0.4684 -0.0779
   98MOL   C30731541   7.966   6.772   7.815  0.9111 -0.2910 -0.2804
   98MOL   C30831542   8.102   6.784   7.785  0.1830 -0.6871 -0.0065
   98MOL   C30931543   8.187   6.859   7.874 -0.3528 -0.2513  0.1624
   98MOL   C31031544   8.132   6.922   7.985 -0.1542 -0.3585 -0.6428
   98MOL  Cl31131545   8.235   6.998   8.097  0.1325  0.0554  0.3701
   98MOL   C31231546   7.992   6.924   8.003  0.1302 -0.2833  0.4376
   98MOL   C31331547   7.909   6.845   7.923 -0.1732 -0.6285 -0.1125
   98MOL   C31431548   7.844   6.731   7.591  0.5419 -0.1028 -0.0457
   98MOL   H31531549   7.786   6.687   7.801 -0.2166 -0.9124 -0.7836
   98MOL   H31631550   8.150   6.733   7.702 -0.6152  1.4428 -1.8325
   98MOL   H31731551   8.294   6.849   7.863 -0.5549 -2.9398  0.3203
   98MOL   H31831552   7.949   6.981   8.085 -0.0215 -0.3619  0.4126
   98MOL   H31931553   7.805   6.841   7.952  0.1865  1.6107  1.6087
   98MOL   H32031554   7.939   6.760   7.546  1.7635  0.1400  2.5553
   98MOL   H32131555   7.814   6.650   7.525 -0.5241 -0.8014  1.2595
   98MOL   H32231556   7.783   6.821   7.590  0.6833 -0.0111 -0.4928
   99MOL     C131557   7.191   3.391   1.549 -0.0694 -0.0874  0.2190
   99MOL     C231558   7.300   3.397   1.443 -0.6387 -0.3743 -0.5540
   99MOL     C331559   7.437   3.390   1.478  0.3137 -0.1202 -0.3879
   99MOL     C431560   7.539   3.396   1.382 -0.1049  0.0019 -0.0624
   99MOL     C531561   7.502   3.414   1.245  0.2354 -0.3024 -0.1231
   99MOL    Cl631562   7.627   3.423   1.122 -0.0721  0.0330 -0.0391
   99MOL     C731563   7.367   3.426   1.210  0.5405 -0.6917 -0.3093
   99MOL     C831564   7.265   3.415   1.309  0.1766 -0.2258  0.1950
   99MOL     C931565   7.106   3.519   1.570 -0.2406 -0.6946 -0.4861
   99MOL    H1031566   7.236   3.373   1.647  1.8279 -0.0073 -0.6213
   99MOL    H1131567   7.468   3.372   1.579  0.1814  1.6475 -0.0230
   99MOL    H1231568   7.639   3.372   1.415  0.1033 -0.5142 -1.0427
   99MOL    H1331569   7.340   3.448   1.108 -1.9615 -1.9181  0.0441
   99MOL    H1431570   7.159   3.427   1.289  0.3822  1.7575  0.1633
   99MOL    H1531571   7.178   3.592   1.608 -0.2196 -0.9101 -0.1105
   99MOL    H1631572   7.060   3.549   1.476 -2.9655 -1.9466  0.4008
   99MOL    H1731573   7.131   3.303   1.528 -1.2470  1.0700 -1.2965
   99MOL    C1831574   6.994   3.498   1.667  0.8216  0.4343  0.7314
   99MOL    C1931575   7.018   3.419   1.793  0.6741  0.1339 -0.1531
   99MOL    C2031576   6.969   3.286   1.801  0.3476 -0.6770 -0.6944
   99MOL    C2131577   7.001   3.209   1.914  0.5406  0.0196 -0.3422
   99MOL    C2231578   7.089   3.251   2.013  0.0147  0.3901 -0.1220
   99MOL   Cl2331579   7.121   3.152   2.149  0.2436 -0.1582 -0.4357
   99MOL    C2431580   7.137   3.384   2.003 -0.1283 -0.2757 -0.0476
   99MOL    C2531581   7.103   3.466   1.894  0.1603 -0.2442 -0.2412
   99MOL    C2631582   6.931   3.637   1.695  0.2975 -0.0932  0.4620
   99MOL    H2731583   6.919   3.435   1.619 -1.3273  2.5700  1.2108
   99MOL    H2831584   6.904   3.242   1.726  0.4236 -3.7746  0.9846
   99MOL    H2931585   6.956   3.111   1.917  0.4719 -0.1114 -3.7462
   99MOL    H3031586   7.194   3.414   2.089 -0.1760  0.3581 -0.2332
   99MOL    H3131587   7.143   3.567   1.898 -2.7183  0.9642 -0.4002
   99MOL    H3231588   6.996   3.712   1.741 -0.4217  0.9690 -0.2411
   99MOL    H3331589   6.906   3.677   1.596 -0.7481 -1.8443  0.0075
   99MOL    C3431590   6.790   3.647   1.770 -0.2470  0.6138  0.5346
   99MOL    C3531591   6.729   3.785   1.728  0.9771 -0.1410  0.0896
   99MOL    C3631592   6.644   3.802   1.615 -0.4975 -0.4726 -0.1566
   99MOL    C3731593   6.585   3.929   1.593  0.3264 -0.1089 -0.2210
   99MOL    C3831594   6.617   4.043   1.670  0.8343 -0.3512  0.0075
   99MOL   Cl3931595   6.557   4.201   1.631 -0.1164  0.1010 -0.0452
   99MOL    C4031596   6.702   4.025   1.779 -0.1048  0.5083  0.3144
   99MOL    C4131597   6.748   3.894   1.813 -0.6507 -0.5758 -0.0744
   99MOL    C4231598   6.683   3.535   1.761  0.3631 -0.2473 -0.8567
   99MOL    H4331599   6.810   3.642   1.877 -2.6095 -1.8045  0.9230
   99MOL    H4431600   6.623   3.719   1.551 -2.6394 -1.0341  1.2255
   99MOL    H4531601   6.520   3.929   1.506  1.6575  0.4299 -1.2515
   99MOL    H4631602   6.730   4.106   1.843 -0.5743  0.9016  0.0264
   99MOL    H4731603   6.805   3.886   1.904  1.0527  2.1444 -0.8515
   99MOL    H4831604   6.675   3.523   1.653  0.1017 -1.9939 -0.6650
   99MOL    H4931605   6.739   3.448   1.795 -1.8800 -0.3269  2.9394
   99MOL    C5031606   6.539   3.546   1.813 -0.5210  0.5426  0.8390
   99MOL    C5131607   6.477   3.417   1.768 -0.0790 -0.1978 -0.3498
   99MOL    C5231608   6.530   3.292   1.816 -0.0540 -0.1687 -0.0958
   99MOL    C5331609   6.471   3.172   1.773 -0.8609 -0.2231  0.0733
   99MOL    C5431610   6.364   3.176   1.677  0.1155  0.3984  0.2012
   99MOL   Cl5531611   6.318   3.034   1.603 -0.2359 -0.1030 -0.2779
   99MOL    C5631612   6.309   3.303   1.639 -0.8889  0.3636  0.2097
   99MOL    C5731613   6.370   3.425   1.675 -0.0813  0.8374 -0.3938
   99MOL    C5831614   6.520   3.582   1.960  0.1104 -0.7179  0.1179
   99MOL    H5931615   6.491   3.625   1.756  1.1163  1.5918  0.8628
   99MOL    H6031616   6.607   3.280   1.891  0.9942  1.2238 -0.9215
   99MOL    H6131617   6.512   3.074   1.795 -1.1277 -0.1216  1.0480
   99MOL    H6231618   6.234   3.313   1.562  0.8000  0.7890 -1.4398
   99MOL    H6331619   6.327   3.521   1.650 -0.2568  0.6851 -0.6800
   99MOL    H6431620   6.560   3.500   2.020  0.6647 -1.3663 -1.1198
   99MOL    H6531621   6.586   3.664   1.986 -2.5611  1.6322 -0.2873
   99MOL    C6631622   6.378   3.624   2.010  0.3138  0.2122  0.0977
   99MOL    C6731623   6.284   3.505   2.041  0.0478  0.6601 -0.2927
   99MOL    C6831624   6.282   3.459   2.172  0.4564 -0.0165  0.2762
   99MOL    C6931625   6.193   3.357   2.213  0.5070 -0.3850 -0.3868
   99MOL    C7031626   6.111   3.288   2.126  0.2090 -0.4680 -0.5976
   99MOL   Cl7131627   5.999   3.162   2.170  0.0682 -0.3166 -0.1045
   99MOL    C7231628   6.122   3.323   1.988 -0.4480  0.2702  0.0288
   99MOL    C7331629   6.200   3.437   1.953 -0.2417 -0.1847  1.1744
   99MOL    C7431630   6.385   3.723   2.129  0.2725 -0.6472 -0.0447
   99MOL    H7531631   6.317   3.673   1.934  0.2249  2.1504  1.4123
   99MOL    H7631632   6.329   3.502   2.258 -2.4744  0.1894  1.8386
   99MOL    H7731633   6.191   3.326   2.317  2.1008 -0.8451 -0.4850
   99MOL    H7831634   6.072   3.262   1.914  0.8541  0.5657 -1.1132
   99MOL    H7931635   6.203   3.472   1.851 -0.3179 -0.7513  0.9792
   99MOL    H8031636   6.286   3.728   2.175 -0.3502 -1.7845 -1.2396
   99MOL    H8131637   6.455   3.696   2.208 -0.9482  0.3172  1.4084
   99MOL    C8231638   6.411   3.866   2.088  0.6566 -0.1729 -0.2291
   99MOL    C8331639   6.295   3.925   2.006  0.7286 -0.2765 -0.4485
   99MOL    C8431640   6.156   3.916   2.041 -0.8072 -0.2973 -0.2977
   99MOL    C8531641   6.048   3.973   1.963  0.4251 -0.0992 -0.0653
   99MOL    C8631642   6.084   4.044   1.851 -0.2293 -0.4559  0.3571
   99MOL   Cl8731643   5.956   4.116   1.758 -0.2654 -0.3537 -0.2899
   99MOL    C8831644   6.215   4.052   1.813 -0.2021 -0.3502 -0.4386
   99MOL    C8931645   6.324   3.994   1.884  0.0616 -0.2559  0.3592
   99MOL    C9031646   6.426   3.959   2.214 -0.3975 -0.4954 -0.0980
   99MOL    H9131647   6.507   3.872   2.037 -0.5456 -2.6897 -2.8385
   99MOL    H9231648   6.126   3.869   2.134  2.0236 -1.0505  0.2916
   99MOL    H9331649   5.946   3.963   1.998  0.7625  1.6026  1.4719
   99MOL    H9431650   6.235   4.107   1.722 -0.7891 -1.0757 -1.0163
   99MOL    H9531651   6.423   4.002   1.842 -0.2353 -1.7484 -0.6720
   99MOL    H9631652   6.466   4.051   2.172  2.0433 -2.8247 -3.1325
   99MOL    H9731653   6.341   3.993   2.271  0.5074  1.2966  0.2197
   99MOL    C9831654   6.531   3.921   2.323 -0.4582  0.1533 -0.7405
   99MOL    C9931655   6.671   3.888   2.270  0.2215  0.0559 -0.3887
   99MOL   C10031656   6.741   3.984   2.205  0.6818 -0.1217 -0.1103
   99MOL   C10131657   6.859   3.954   2.138  0.3357  0.4904  0.2771
   99MOL   C10231658   6.912   3.825   2.148  0.0477  0.0876  0.6752
   99MOL  Cl10331659   7.049   3.786   2.058  0.1874  0.0614 -0.1221
   99MOL   C10431660   6.850   3.724   2.220 -0.1377 -0.2907 -0.0256
   99MOL   C10531661   6.724   3.752   2.283  0.1054  0.5577  0.6738
   99MOL   C10631662   6.545   4.018   2.442 -0.0205 -0.0405  0.2388
   99MOL   H10731663   6.503   3.824   2.364  1.9605  0.1908  1.0551
   99MOL   H10831664   6.689   4.078   2.188 -0.0958 -0.3335  0.9638
   99MOL   H10931665   6.913   4.025   2.077 -0.2187  0.6811  0.0028
   99MOL   H11031666   6.893   3.625   2.233 -0.6278 -0.7810 -1.8532
   99MOL   H11131667   6.666   3.675   2.333 -0.5325  0.7548  0.2410
   99MOL   H11231668   6.636   3.990   2.495 -0.6793 -0.0081  1.4104
   99MOL   H11331669   6.550   4.123   2.411  1.2324 -0.3346 -0.5864
   99MOL   C11431670   6.429   4.004   2.550 -0.7174 -0.3992 -0.0635
   99MOL   C11531671   6.428   3.863   2.605  0.3064  0.1290  0.4025
   99MOL   C11631672   6.314   3.786   2.577  0.5086  0.6275 -0.8184
   99MOL   C11731673   6.296   3.659   2.621  0.0042  0.1093 -0.4995
   99MOL   C11831674   6.407   3.595   2.678  0.3553 -0.6245  0.0837
   99MOL  Cl11931675   6.402   3.431   2.719  0.1181 -0.4833  0.2617
   99MOL   C12031676   6.523   3.669   2.708 -0.1728  0.3517  0.1448
   99MOL   C12131677   6.533   3.803   2.672 -0.4291 -0.0805  0.4312
   99MOL   C12231678   6.421   4.121   2.661  0.6679  0.3322 -0.3125
   99MOL   H12331679   6.333   4.011   2.497 -1.0703  1.4749  0.7791
   99MOL   H12431680   6.223   3.810   2.525 -0.1071  0.1720  0.0231
   99MOL   H12531681   6.214   3.590   2.606  0.3446 -0.5328  0.5449
   99MOL   H12631682   6.605   3.610   2.748 -1.2780 -0.2997  1.4904
   99MOL   H12731683   6.628   3.854   2.678  1.0969 -3.0193  2.7730
   99MOL   H12831684   6.404   4.090   2.764 -5.5721 -0.2901 -1.3137
   99MOL   H12931685   6.515   4.175   2.668  0.1258  1.0379  2.0285
   99MOL   C13031686   6.318   4.230   2.615 -0.4776 -0.0762  0.7195
   99MOL   C13131687   6.171   4.199   2.636  0.6399  0.4745 -0.0365
   99MOL   C13231688   6.134   4.124   2.748 -0.4901 -0.5728 -0.5660
   99MOL   C13331689   5.995   4.099   2.773 -0.3465 -0.2385  0.0873
   99MOL   C13431690   5.899   4.132   2.684 -0.6685  0.0530  1.3849
   99MOL  Cl13531691   5.742   4.076   2.709 -0.0316 -0.1722  0.1106
   99MOL   C13631692   5.939   4.210   2.576 -0.5062  0.0399 -0.1562
   99MOL   C13731693   6.075   4.234   2.549  0.4532 -0.8926  0.2585
   99MOL   C13831694   6.333   4.365   2.682 -0.3333 -0.6787 -0.2470
   99MOL   H13931695   6.342   4.253   2.511  0.3811 -1.2441  0.6623
   99MOL   H14031696   6.208   4.091   2.819  1.3947  0.6183 -1.9131
   99MOL   H14131697   5.960   4.057   2.866 -1.7019  0.1006 -0.2570
   99MOL   H14231698   5.873   4.253   2.502 -0.1624  0.3343 -0.2922
   99MOL   H14331699   6.102   4.293   2.463  0.6125 -2.7210 -0.9837
   99MOL   H14431700   6.233   4.406   2.696 -1.0346 -1.4393 -2.7273
   99MOL   H14531701   6.386   4.347   2.776  3.1329 -0.4965 -2.0532
   99MOL   C14631702   6.425   4.462   2.600  0.0764  0.8182 -0.2086
   99MOL   C14731703   6.389   4.492   2.455 -0.1774  0.6605 -0.1502
   99MOL   C14831704   6.458   4.449   2.340 -0.2754  0.3855  0.3674
   99MOL   C14931705   6.417   4.477   2.208  0.3625  0.6804  0.2272
   99MOL   C15031706   6.293   4.538   2.192  0.5277  0.1400  0.8204
   99MOL  Cl15131707   6.223   4.571   2.037 -0.2925 -0.0449 -0.4627
   99MOL   C15231708   6.214   4.577   2.300 -0.5740  0.8405  0.2645
   99MOL   C15331709   6.260   4.546   2.435 -0.5167  0.0961  0.2631
   99MOL   C15431710   6.432   4.603   2.674 -0.2360 -0.0449 -0.2740
   99MOL   H15531711   6.518   4.406   2.586 -1.4797 -2.1703  0.9925
   99MOL   H15631712   6.551   4.400   2.363 -0.8680 -0.9300 -0.0478
   99MOL   H15731713   6.480   4.447   2.126  0.1566  0.4839  0.1408
   99MOL   H15831714   6.123   4.628   2.274 -1.7841 -1.0564  0.7247
   99MOL   H15931715   6.199   4.576   2.519  1.1928 -1.9380  2.3200
   99MOL   H16031716   6.489   4.666   2.606 -0.5681  2.1195  1.3759
   99MOL   H16131717   6.347   4.671   2.679  0.0338  0.2984 -0.3763
   99MOL   C16231718   6.493   4.603   2.818 -0.2583 -0.7387  0.4981
   99MOL   C16331719   6.626   4.526   2.813  0.4303 -0.1097 -0.9245
   99MOL   C16431720   6.639   4.415   2.904  0.2447 -0.1576  0.2801
   99MOL   C16531721   6.755   4.339   2.903  0.3714 -0.4244 -0.1363
   99MOL   C16631722   6.856   4.366   2.812  0.5178  0.3220 -0.2374
   99MOL  Cl16731723   7.001   4.265   2.804  0.4767 -0.3213  0.3497
   99MOL   C16831724   6.836   4.466   2.716  0.9679  0.2923 -0.7042
   99MOL   C16931725   6.730   4.557   2.720  0.9988  0.3346  0.6717
   99MOL   C17031726   6.500   4.750   2.873  0.1370 -0.3192  0.4043
   99MOL   H17131727   6.420   4.552   2.880  0.2929 -0.9358  0.9850
   99MOL   H17231728   6.555   4.399   2.970  2.0141 -0.7081  2.4710
   99MOL   H17331729   6.772   4.256   2.970 -1.5595 -0.2866  0.5628
   99MOL   H17431730   6.909   4.484   2.639  0.4872 -3.2021 -2.0580
   99MOL   H17531731   6.725   4.637   2.648  0.8480  0.9105  1.3108
   99MOL   H17631732   6.553   4.807   2.797  0.4660 -3.2265 -1.6111
   99MOL   H17731733   6.397   4.785   2.872 -0.2033 -1.2901  0.7161
   99MOL   C17831734   6.571   4.783   3.013  0.2069 -0.6626  0.7253
   99MOL   C17931735   6.579   4.941   3.023  0.2061  0.0574 -0.1923
   99MOL   C18031736   6.517   5.023   2.924 -0.6440 -0.0976  0.3935
   99MOL   C18131737   6.529   5.164   2.929  0.6593 -0.0045 -0.1242
   99MOL   C18231738   6.616   5.223   3.025  0.3747 -0.1966 -0.1952
   99MOL  Cl18331739   6.610   5.400   3.040 -0.2018 -0.0004 -0.0370
   99MOL   C18431740   6.699   5.138   3.095 -0.3350 -0.7761  0.1111
   99MOL   C18531741   6.678   4.998   3.100  0.4351  0.2015 -0.9241
   99MOL   C18631742   6.504   4.726   3.135  0.7405  0.2039 -0.4858
   99MOL   H18731743   6.677   4.758   3.020  0.5187  0.1154 -0.9585
   99MOL   H18831744   6.455   4.990   2.841  1.6616  0.0904 -1.4499
   99MOL   H18931745   6.458   5.222   2.872  0.4155 -0.0793  0.1009
   99MOL   H19031746   6.773   5.192   3.153  1.0700 -2.0469 -0.4440
   99MOL   H19131747   6.748   4.940   3.159 -0.2127 -0.0417 -0.3930
   99MOL   H19231748   6.532   4.621   3.138  1.5645  0.3978 -1.3930
   99MOL   H19331749   6.561   4.765   3.219  0.7769 -0.5016 -0.1749
   99MOL   C19431750   6.353   4.757   3.165 -0.2570 -0.0135  0.7450
   99MOL   C19531751   6.256   4.671   3.081 -0.3515 -0.2825  0.3368
   99MOL   C19631752   6.158   4.734   3.002 -0.0115 -0.0092  0.7695
   99MOL   C19731753   6.055   4.654   2.939 -0.2743 -0.2077  0.0218
   99MOL   C19831754   6.045   4.513   2.956  0.0326  0.3063 -0.3286
   99MOL  Cl19931755   5.918   4.429   2.876  0.3283 -0.0923 -0.1170
   99MOL   C20031756   6.156   4.447   3.018 -0.2329  0.4084 -0.5244
   99MOL   C20131757   6.251   4.526   3.092 -0.1331 -0.4893 -0.1418
   99MOL   C20231758   6.321   4.736   3.315 -0.5572  0.0888  0.0632
   99MOL   H20331759   6.336   4.859   3.129 -1.0087 -0.3956 -0.0226
   99MOL   H20431760   6.147   4.841   2.996 -0.9649 -0.1463 -0.0369
   99MOL   H20531761   5.972   4.701   2.888  0.3164  0.1051 -0.6509
   99MOL   H20631762   6.162   4.339   3.025  0.7403  0.6038  1.9377
   99MOL   H20731763   6.318   4.473   3.157  2.3188  1.7070 -0.8176
   99MOL   H20831764   6.323   4.627   3.328 -0.3824  0.1953  0.9398
   99MOL   H20931765   6.400   4.783   3.373  0.2255 -0.3585 -0.6270
   99MOL   C21031766   6.181   4.796   3.355 -0.4842  0.5865  0.6954
   99MOL   C21131767   6.105   4.690   3.429  0.1021 -0.9063  0.2142
   99MOL   C21231768   5.969   4.672   3.391  1.0127 -0.4542 -0.1635
   99MOL   C21331769   5.900   4.556   3.439  0.7102  0.3074 -0.7667
   99MOL   C21431770   5.962   4.474   3.528 -0.3323 -0.2706 -0.8099
   99MOL  Cl21531771   5.883   4.337   3.589  0.1703  0.1875 -0.2886
   99MOL   C21631772   6.096   4.498   3.575  0.7421  0.0063 -0.0158
   99MOL   C21731773   6.159   4.613   3.535 -0.4204 -0.3663  0.0758
   99MOL   C21831774   6.200   4.910   3.457  0.8335  0.1177 -0.4148
   99MOL   H21931775   6.128   4.839   3.270 -0.6737  3.9697  2.4494
   99MOL   H22031776   5.925   4.733   3.314  1.5854 -1.9341 -1.6827
   99MOL   H22131777   5.797   4.533   3.415 -0.2934 -0.2151  3.5683
   99MOL   H22231778   6.140   4.425   3.642  2.1502  2.2609  1.5597
   99MOL   H22331779   6.257   4.635   3.575 -0.9776  0.7239  0.9007
   99MOL   H22431780   6.106   4.928   3.508  0.0916  2.8844 -2.6403
   99MOL   H22531781   6.270   4.884   3.536  0.9809  2.3621  0.2353
   99MOL   C22631782   6.242   5.046   3.402 -0.1227 -0.1171 -0.2366
   99MOL   C22731783   6.165   5.089   3.276 -0.1396 -0.2635  0.7232
   99MOL   C22831784   6.023   5.074   3.265  0.1068 -0.4360  0.4603
   99MOL   C22931785   5.956   5.112   3.151 -0.1437 -0.4515  0.4822
   99MOL   C23031786   6.025   5.150   3.039 -0.2800 -0.6093  0.2632
   99MOL  Cl23131787   5.942   5.197   2.900  0.2134  0.1947 -0.5611
   99MOL   C23231788   6.161   5.135   3.035  0.3739 -0.3823  0.3816
   99MOL   C23331789   6.235   5.108   3.152  0.5793 -0.3027 -0.3307
   99MOL   C23431790   6.230   5.156   3.509 -0.3323 -0.1766 -0.7358
   99MOL   H23531791   6.349   5.041   3.386 -0.0737  0.1778 -0.0126
   99MOL   H23631792   5.973   5.035   3.352  0.3076  0.4914  0.9954
   99MOL   H23731793   5.848   5.112   3.154 -0.1254  0.3967  1.8852
   99MOL   H23831794   6.220   5.143   2.945  0.6838 -1.5247  0.4815
   99MOL   H23931795   6.343   5.100   3.141  0.6927  1.2864 -0.3693
   99MOL   H24031796   6.128   5.191   3.522  0.9829  3.8366 -0.6401
   99MOL   H24131797   6.263   5.104   3.599 -1.5656 -2.4325 -1.5425
   99MOL   C24231798   6.330   5.277   3.488  0.2295 -0.6501 -1.2739
   99MOL   C24331799   6.276   5.377   3.392 -0.4906  0.1131  0.0008
   99MOL   C24431800   6.156   5.445   3.416  0.3133 -0.2072  0.2999
   99MOL   C24531801   6.110   5.549   3.328  0.4245  0.1414  0.3436
   99MOL   C24631802   6.185   5.576   3.209 -0.2849  0.4497 -0.7750
   99MOL  Cl24731803   6.125   5.690   3.095  0.2410  0.0795  0.4196
   99MOL   C24831804   6.303   5.509   3.180 -0.0662  0.8987 -0.3571
   99MOL   C24931805   6.353   5.413   3.276 -0.0172  0.4989 -1.3323
   99MOL   C25031806   6.371   5.340   3.620  0.3775  0.3893 -0.2009
   99MOL   H25131807   6.420   5.235   3.442 -0.1210 -1.7400 -0.9659
   99MOL   H25231808   6.102   5.418   3.506 -0.4856  0.1844 -0.0551
   99MOL   H25331809   6.027   5.616   3.345  0.0059 -0.6324  1.4503
   99MOL   H25431810   6.346   5.518   3.082 -0.0753 -0.6433 -0.5222
   99MOL   H25531811   6.455   5.380   3.264  0.1937  0.6305  0.0338
   99MOL   H25631812   6.415   5.434   3.587 -1.4168  1.1131 -0.5429
   99MOL   H25731813   6.285   5.375   3.677 -0.5963 -0.9188 -0.8549
   99MOL   C25831814   6.486   5.276   3.704  0.2398 -0.3706 -0.2112
   99MOL   C25931815   6.589   5.220   3.612 -0.2860 -0.6238  0.1738
   99MOL   C26031816   6.677   5.309   3.541 -0.3517  0.4587 -0.2466
   99MOL   C26131817   6.780   5.258   3.460  0.2727 -1.2467 -0.0060
   99MOL   C26231818   6.790   5.121   3.446  0.2831  0.5013 -0.1619
   99MOL  Cl26331819   6.923   5.051   3.361  0.1407  0.0747  0.2134
   99MOL   C26431820   6.706   5.028   3.521  0.2755  0.5283  0.4269
   99MOL   C26531821   6.604   5.079   3.600 -0.3734  0.5552 -0.0797
   99MOL   C26631822   6.541   5.373   3.802 -0.5573 -0.6208  0.4217
   99MOL   H26731823   6.451   5.184   3.752 -1.6659 -1.9789 -4.3715
   99MOL   H26831824   6.668   5.415   3.558 -1.2079 -0.0494  2.7780
   99MOL   H26931825   6.847   5.337   3.429 -1.0916 -0.4302 -0.9789
   99MOL   H27031826   6.722   4.921   3.510 -0.1410  0.6508 -1.5704
   99MOL   H27131827   6.537   5.007   3.646  0.0358  1.9364  2.7716
   99MOL   H27231828   6.564   5.466   3.750 -0.1312 -0.0386  1.6317
   99MOL   H27331829   6.459   5.401   3.867 -1.7429 -1.9480 -0.4589
   99MOL   C27431830   6.661   5.321   3.887  0.4091  0.1349  0.8292
   99MOL   C27531831   6.782   5.419   3.909 -0.2369  0.2716  1.1261
   99MOL   C27631832   6.775   5.529   3.997  0.3791 -0.5488  0.0259
   99MOL   C27731833   6.884   5.618   4.004  0.2952 -0.3735  0.3981
   99MOL   C27831834   7.001   5.599   3.926  0.0412  0.0391  0.0714
   99MOL  Cl27931835   7.126   5.714   3.935 -0.1903  0.1008 -0.0673
   99MOL   C28031836   7.010   5.487   3.840  0.3289 -0.0363 -0.1122
   99MOL   C28131837   6.901   5.399   3.833 -0.4117 -0.0259  0.0056
   99MOL   C28231838   6.602   5.266   4.021  0.6444 -0.3882 -0.6484
   99MOL   H28331839   6.704   5.239   3.830  0.5250  0.9134 -0.2138
   99MOL   H28431840   6.680   5.553   4.041  0.3970 -1.5459  0.6135
   99MOL   H28531841   6.872   5.695   4.078  0.3884 -0.9601  1.0233
   99MOL   H28631842   7.101   5.474   3.784  1.6817 -0.7675  2.1644
   99MOL   H28731843   6.903   5.318   3.761  1.3708 -1.0481  1.1573
   99MOL   H28831844   6.562   5.356   4.068  2.1634  0.1437 -0.3377
   99MOL   H28931845   6.513   5.206   4.001 -0.4281  1.3761 -1.2884
   99MOL   C29031846   6.687   5.199   4.131  0.3701 -0.2433 -0.0601
   99MOL   C29131847   6.631   5.217   4.271 -0.2218  0.1829  0.3674
   99MOL   C29231848   6.719   5.249   4.374  0.2869 -0.3189 -0.1624
   99MOL   C29331849   6.675   5.259   4.504  0.4814  0.2060 -0.1396
   99MOL   C29431850   6.542   5.232   4.538  1.4727 -0.2327  0.4342
   99MOL  Cl29531851   6.491   5.231   4.701 -0.1506  0.3490  0.0947
   99MOL   C29631852   6.449   5.197   4.442 -0.1746 -0.4733 -0.2423
   99MOL   C29731853   6.495   5.185   4.310 -0.5809 -0.0911  1.1165
   99MOL   C29831854   6.717   5.050   4.113  0.4010  0.0510  1.4345
   99MOL   H29931855   6.783   5.251   4.129  1.5027 -2.2716  0.4816
   99MOL   H30031856   6.826   5.261   4.363  0.0296  2.6792  0.1254
   99MOL   H30131857   6.750   5.260   4.581  1.5053 -0.0097 -1.1171
   99MOL   H30231858   6.344   5.193   4.466 -0.4780  2.9106 -0.7475
   99MOL   H30331859   6.428   5.150   4.233  1.1446 -1.1280  0.0289
   99MOL   H30431860   6.780   5.016   4.195  0.4296 -1.2147  0.8953
   99MOL   H30531861   6.626   4.991   4.122 -0.8297  1.4592 -1.1185
   99MOL   C30631862   6.777   4.998   3.979 -1.0037 -0.1554  0.1461
   99MOL   C30731863   6.909   5.053   3.938 -0.8400  0.4000 -0.0688
   99MOL   C30831864   6.947   5.039   3.804  0.2136  0.0495 -0.1493
   99MOL   C30931865   7.074   5.087   3.755 -0.0154  0.2858 -0.7461
   99MOL   C31031866   7.171   5.131   3.856 -0.1167  0.4167  0.1159
   99MOL  Cl31131867   7.323   5.178   3.808  0.2205 -0.2482  0.4427
   99MOL   C31231868   7.124   5.150   3.986  0.1673  0.6250  0.3256
   99MOL   C31331869   6.998   5.112   4.031 -0.2819 -0.1881  0.2509
   99MOL   C31431870   6.781   4.846   3.981  0.1838 -0.7243 -0.1590
   99MOL   H31531871   6.702   5.021   3.903  0.2818  1.1900 -0.7417
   99MOL   H31631872   6.879   4.997   3.731  0.7532 -3.0706  1.0590
   99MOL   H31731873   7.085   5.083   3.648  0.8238 -0.4312 -0.6369
   99MOL   H31831874   7.184   5.205   4.058 -0.1915  0.3602  0.8268
   99MOL   H31931875   6.985   5.144   4.133  2.0652  0.0308  0.4924
   99MOL   H32031876   6.846   4.818   3.899 -0.4176 -1.2650 -0.4609
   99MOL   H32131877   6.824   4.802   4.072  1.3899 -1.1955 -0.9475
   99MOL   H32231878   6.686   4.793   3.968 -0.7959  0.9674 -0.0697
  100MOL     C131879   8.425   4.220   7.757  0.2744  0.4791  0.0861
  100MOL     C231880   8.297   4.183   7.831 -0.9626  0.6324  0.6445
  100MOL     C331881   8.293   4.085   7.934  0.3524 -0.2502 -0.9536
  100MOL     C431882   8.178   4.050   8.004  0.3690  0.6989 -0.5197
  100MOL     C531883   8.059   4.118   7.982 -0.1357 -0.8305  0.1920
  100MOL    Cl631884   7.909   4.075   8.064  0.3572  0.3206  0.1904
  100MOL     C731885   8.061   4.216   7.875 -0.1775 -0.5145  0.3135
  100MOL     C831886   8.178   4.256   7.812 -1.1571 -0.3919 -0.6756
  100MOL     C931887   8.406   4.268   7.608 -0.1307 -0.0144 -0.3181
  100MOL    H1031888   0.049   4.135   7.772  0.0217  0.3107  0.2643
  100MOL    H1131889   8.384   4.029   7.952  1.5990  2.5731  1.9075
  100MOL    H1231890   8.182   3.972   8.078  0.7903  2.3066  1.2114
  100MOL    H1331891   7.972   4.274   7.856  1.1831  1.0323 -1.4998
  100MOL    H1431892   8.170   4.341   7.747  2.1405  0.2753 -0.2581
  100MOL    H1531893   8.352   4.196   7.547  2.1103 -0.7476 -1.4560
  100MOL    H1631894   8.336   4.351   7.601  2.0705  1.8187 -1.2744
  100MOL    H1731895   0.028   4.297   7.820  1.3352  0.2337 -0.3705
  100MOL    C1831896   0.100   4.313   7.547  0.2796  0.4662  0.3816
  100MOL    C1931897   0.083   4.329   7.390 -0.0234 -0.4534  0.2383
  100MOL    C2031898   0.198   4.303   7.310  0.0392  0.1923 -0.7313
  100MOL    C2131899   0.173   4.314   7.172  0.3748  0.7437 -0.5284
  100MOL    C2231900   0.050   4.347   7.117  0.0723  0.0249 -0.1796
  100MOL   Cl2331901   0.026   4.348   6.946 -0.1304  0.4089 -0.1568
  100MOL    C2431902   8.384   4.379   7.200  0.4921  0.7223  0.8676
  100MOL    C2531903   8.400   4.370   7.338 -0.0201 -0.4469 -0.1752
  100MOL    C2631904   0.165   4.441   7.610 -0.8127  0.9631  0.3555
  100MOL    H2731905   0.174   4.233   7.558  0.4490  0.4135 -1.0821
  100MOL    H2831906   0.295   4.271   7.344 -0.9417  0.2155  2.3027
  100MOL    H2931907   0.256   4.295   7.105 -0.0851 -4.1255  0.0509
  100MOL    H3031908   8.289   4.398   7.154  1.8814  1.7964 -1.6949
  100MOL    H3131909   8.321   4.409   7.400  1.5851  1.0910  0.9403
  100MOL    H3231910   0.195   4.431   7.714  1.9108 -0.5631 -0.5061
  100MOL    H3331911   0.266   4.445   7.569 -1.4659 -3.1193 -2.0097
  100MOL    C3431912   0.103   4.578   7.585  0.1380  0.1087 -0.4446
  100MOL    C3531913   8.427   4.597   7.676 -0.1821  0.5269  0.5562
  100MOL    C3631914   0.011   4.595   7.816  0.8677  0.6358  0.2606
  100MOL    C3731915   8.350   4.605   7.905  0.3401  0.2404 -0.3833
  100MOL    C3831916   8.222   4.632   7.854  0.2261  0.2149 -0.8666
  100MOL   Cl3931917   8.090   4.669   7.961  0.4655  0.6066  0.4017
  100MOL    C4031918   8.192   4.637   7.717  0.0426 -0.3427  0.6227
  100MOL    C4131919   8.297   4.621   7.624 -0.4147 -0.5406 -0.3294
  100MOL    C4231920   0.212   4.681   7.623 -0.4250 -0.1617 -0.5313
  100MOL    H4331921   0.065   4.591   7.484  0.8923 -0.3903 -0.7949
  100MOL    H4431922   0.110   4.582   7.857  1.5681  0.0603 -1.5752
  100MOL    H4531923   8.370   4.602   8.011 -0.4475  2.6809 -0.1320
  100MOL    H4631924   8.096   4.679   7.689  0.0100 -0.4826  0.5215
  100MOL    H4731925   8.287   4.617   7.517 -1.7247  0.0260 -0.2385
  100MOL    H4831926   0.274   4.650   7.707  0.2479  1.0085 -0.5780
  100MOL    H4931927   0.290   4.680   7.547 -1.0736 -2.1487 -1.1875
  100MOL    C5031928   0.174   4.832   7.654  0.4186  0.4722  0.0143
  100MOL    C5131929   0.296   4.902   7.704  0.1616  1.4536 -0.9514
  100MOL    C5231930   0.322   4.914   7.847  0.0220  0.0349 -0.1822
  100MOL    C5331931   0.446   4.970   7.893  0.1502  0.7667 -0.2666
  100MOL    C5431932   0.548   4.993   7.800 -0.5006  0.0218 -0.2245
  100MOL   Cl5531933   0.698   5.058   7.856 -0.1285  0.1132  0.2047
  100MOL    C5631934   0.527   4.968   7.666 -0.0165 -0.4353 -0.5573
  100MOL    C5731935   0.405   4.905   7.617  0.0191 -1.1418  0.3742
  100MOL    C5831936   0.119   4.889   7.518 -0.3134 -0.0415  0.0199
  100MOL    H5931937   0.095   4.839   7.729  0.0395  1.6088 -0.4720
  100MOL    H6031938   0.243   4.900   7.920  0.7383  0.8694  0.7748
  100MOL    H6131939   0.463   4.988   7.998 -0.7747 -0.7113  0.1577
  100MOL    H6231940   0.604   4.993   7.594  0.2435  1.5205  0.3604
  100MOL    H6331941   0.398   4.880   7.512 -2.0275 -0.5978  0.3531
  100MOL    H6431942   0.198   4.857   7.450 -1.0568  0.1924 -0.9471
  100MOL    H6531943   0.024   4.850   7.483  0.2077 -0.4065 -1.0060
  100MOL    C6631944   0.105   5.045   7.518 -0.2059 -0.2026  0.7670
  100MOL    C6731945   0.093   5.095   7.377 -0.3347 -0.0696  0.6045
  100MOL    C6831946   8.414   5.077   7.306 -0.3096 -0.1605  0.2349
  100MOL    C6931947   8.399   5.119   7.173  0.3882  0.5705 -0.1219
  100MOL    C7031948   0.063   5.182   7.106 -1.3352 -0.4282  0.6992
  100MOL   Cl7131949   0.041   5.229   6.946  0.4961  0.2581  0.3707
  100MOL    C7231950   0.181   5.212   7.183 -0.3195 -0.4579 -0.1217
  100MOL    C7331951   0.199   5.169   7.317  0.1866  0.2703  0.3695
  100MOL    C7431952   8.430   5.087   7.605 -0.2749  0.1984 -0.0955
  100MOL    H7531953   0.194   5.087   7.565  0.2952  1.0764 -1.2377
  100MOL    H7631954   8.335   5.023   7.357 -0.7458  2.3154  2.2969
  100MOL    H7731955   8.319   5.074   7.117  1.7883 -0.3422 -1.4291
  100MOL    H7831956   0.260   5.273   7.142 -0.3694  0.0929  0.5733
  100MOL    H7931957   0.295   5.181   7.364 -0.0249  1.9484  0.4059
  100MOL    H8031958   8.362   5.152   7.551 -1.3031  2.1026  3.3445
  100MOL    H8131959   8.355   5.013   7.629 -0.0929  0.3135  0.8415
  100MOL    C8231960   0.030   5.176   7.726  0.1044 -0.3755 -0.0481
  100MOL    C8331961   0.135   5.283   7.696  0.2162  0.5634 -0.2358
  100MOL    C8431962   0.249   5.307   7.772 -0.0146  0.2044 -0.0708
  100MOL    C8531963   0.347   5.395   7.715  0.5175 -0.0897 -0.4707
  100MOL    C8631964   0.314   5.488   7.612  0.7832  0.0703  0.4134
  100MOL   Cl8731965   0.428   5.599   7.551  0.2862 -0.2611  0.4625
  100MOL    C8831966   0.193   5.473   7.545  0.7867  0.4713 -0.1766
  100MOL    C8931967   0.105   5.372   7.587  0.6812 -0.0161  0.1582
  100MOL    C9031968   8.352   5.238   7.805  0.5149 -0.7062 -0.0727
  100MOL    H9131969   0.093   5.113   7.788  0.2014  0.9545  1.2392
  100MOL    H9231970   0.267   5.249   7.862  1.3080  1.9756  0.8421
  100MOL    H9331971   0.446   5.401   7.756 -0.1757  1.9273  0.9921
  100MOL    H9431972   0.167   5.542   7.467 -0.5943  2.1201  1.6775
  100MOL    H9531973   0.014   5.361   7.529  0.4264  1.8139  0.1979
  100MOL    H9631974   8.392   5.327   7.854  0.3032 -0.5574 -0.1696
  100MOL    H9731975   8.277   5.284   7.740  0.4479  0.3000  0.7191
  100MOL    C9831976   8.283   5.137   7.903  0.9706  0.2417  0.2385
  100MOL    C9931977   8.391   5.096   8.009  0.0880 -0.4524  0.9467
  100MOL   C10031978   8.421   4.961   8.014 -0.0661  0.0159  0.5100
  100MOL   C10131979   0.069   4.908   8.109  0.3780  0.0377  0.3795
  100MOL   C10231980   0.139   5.005   8.193 -0.2280  0.2924  0.4253
  100MOL  Cl10331981   0.240   4.942   8.317 -0.5038 -0.0635  0.0382
  100MOL   C10431982   0.111   5.143   8.178  0.4431  0.8129 -0.6880
  100MOL   C10531983   0.017   5.191   8.085 -0.5266 -0.2426 -0.0741
  100MOL   C10631984   8.165   5.217   7.970  0.5172 -0.0546  0.0737
  100MOL   H10731985   8.247   5.053   7.845  1.7117 -1.6331  2.3985
  100MOL   H10831986   8.365   4.901   7.944  0.0349  0.0099  0.4366
  100MOL   H10931987   0.074   4.800   8.113 -3.6790 -0.3400 -2.1678
  100MOL   H11031988   0.146   5.210   8.255 -0.8153 -1.5852  2.0715
  100MOL   H11131989   8.431   5.294   8.094 -1.5112 -0.5707  0.5596
  100MOL   H11231990   8.136   5.157   8.057 -2.2066  0.0086 -0.7311
  100MOL   H11331991   8.199   5.307   8.020  0.7793  0.9137 -1.8211
  100MOL   C11431992   8.047   5.252   7.874 -0.3157  0.7338 -0.4087
  100MOL   C11531993   8.016   5.134   7.786  0.8774  0.1388  0.7280
  100MOL   C11631994   7.963   5.012   7.834  0.0726 -0.0360 -0.4567
  100MOL   C11731995   7.941   4.910   7.742  0.7299  0.1598  0.2241
  100MOL   C11831996   7.957   4.936   7.603  0.2488 -0.4775 -0.4232
  100MOL  Cl11931997   7.932   4.803   7.492  0.0501  0.1529 -0.2852
  100MOL   C12031998   8.007   5.056   7.558 -0.0173 -0.0186  0.3315
  100MOL   C12131999   8.037   5.155   7.650  0.5205 -0.8099  0.3378
  100MOL   C12232000   7.917   5.277   7.948 -0.2780 -0.3351  0.2846
  100MOL   H12332001   8.078   5.335   7.811 -1.7132  0.6208 -1.2659
  100MOL   H12432002   7.933   4.996   7.936 -0.2905  1.3754 -0.3376
  100MOL   H12532003   7.909   4.812   7.774 -1.1867  1.2033  1.6135
  100MOL   H12632004   8.034   5.068   7.454 -0.4997 -2.0141 -0.0443
  100MOL   H12732005   8.080   5.249   7.620  0.7977 -0.6370  1.2723
  100MOL   H12832006   7.826   5.263   7.889  0.8801 -1.2397 -1.3254
  100MOL   H12932007   7.911   5.208   8.032  4.2819  0.5736  1.4934
  100MOL   C13032008   7.912   5.419   7.989  0.4366 -0.4215  0.1298
  100MOL   C13132009   7.919   5.513   7.875  0.1993 -0.3283 -0.2969
  100MOL   C13232010   7.849   5.499   7.757 -0.0980 -0.9907 -0.3340
  100MOL   C13332011   7.871   5.593   7.654 -0.0604 -0.3906  0.1225
  100MOL   C13432012   7.949   5.708   7.676 -0.2185  0.4163 -0.5356
  100MOL  Cl13532013   7.960   5.831   7.559 -0.2951 -0.0939  0.3804
  100MOL   C13632014   8.016   5.725   7.801  0.0687 -0.0194  0.2276
  100MOL   C13732015   8.000   5.628   7.898  0.1544 -0.0507  0.1046
  100MOL   C13832016   7.787   5.444   8.076 -0.3207 -0.3310 -0.3151
  100MOL   H13932017   8.006   5.432   8.043  1.3155  0.9665 -1.6856
  100MOL   H14032018   7.785   5.415   7.736 -0.5809 -1.4276  2.6862
  100MOL   H14132019   7.822   5.569   7.560 -0.6586  2.8375 -0.4466
  100MOL   H14232020   8.073   5.816   7.816  0.6780 -0.1928 -0.9383
  100MOL   H14332021   8.045   5.642   7.995 -1.1689 -1.6925  0.9970
  100MOL   H14432022   7.769   5.551   8.066  0.2143 -0.2672 -0.5789
  100MOL   H14532023   7.700   5.392   8.035 -0.5254 -0.2824  0.0505
  100MOL   C14632024   7.785   5.395   8.228 -0.5002 -0.0153 -0.1315
  100MOL   C14732025   7.925   5.391   8.284 -0.4306  0.3143  1.1004
  100MOL   C14832026   7.987   5.269   8.325 -0.2910 -0.3442  0.3252
  100MOL   C14932027   8.125   5.266   8.353 -0.7836 -0.0908  0.1946
  100MOL   C15032028   8.206   5.382   8.338  0.1173  0.8069 -0.4220
  100MOL  Cl15132029   8.372   5.380   8.353  0.0870 -0.0063 -0.3263
  100MOL   C15232030   8.143   5.505   8.318 -0.0654  0.4777 -0.3439
  100MOL   C15332031   8.005   5.509   8.289 -0.3702  0.5968  0.1561
  100MOL   C15432032   7.692   5.479   8.314  0.3741 -0.6332 -0.2049
  100MOL   H15532033   7.749   5.292   8.224 -0.4108 -0.0374 -0.3866
  100MOL   H15632034   7.934   5.175   8.321 -1.1324  0.1760 -1.0716
  100MOL   H15732035   8.165   5.170   8.382 -1.5490  0.0096  1.6579
  100MOL   H15832036   8.195   5.599   8.304 -1.1831  1.3326  1.1841
  100MOL   H15932037   7.959   5.603   8.261  0.3022  1.8277  2.9830
  100MOL   H16032038   7.709   5.586   8.300 -3.7739  0.2852  1.1831
  100MOL   H16132039   7.589   5.457   8.287  0.0966  1.2896 -0.7495
  100MOL   C16232040   7.699   5.457   0.024  0.7954  0.7263  0.4962
  100MOL   C16332041   7.636   5.581   0.095 -0.1168  0.2076  0.2255
  100MOL   C16432042   7.498   5.588   0.134 -0.5559  0.2185  0.4395
  100MOL   C16532043   7.434   5.705   0.186 -0.6959 -0.3314  0.4882
  100MOL   C16632044   7.511   5.822   0.201 -0.3002  0.4044 -0.7421
  100MOL  Cl16732045   7.443   5.981   0.226 -0.2299  0.1040 -0.0027
  100MOL   C16832046   7.651   5.819   0.172 -0.1085  0.1723  0.4161
  100MOL   C16932047   7.707   5.701   0.118  0.4726  0.2987 -0.2959
  100MOL   C17032048   7.638   5.320   0.067  0.3297 -0.8106 -0.3983
  100MOL   H17132049   7.804   5.458   0.053  1.3038 -2.7929 -0.8718
  100MOL   H17232050   7.440   5.499   0.114  1.7016 -0.5435 -3.1853
  100MOL   H17332051   7.329   5.727   0.193 -0.8041 -0.9198  0.6818
  100MOL   H17432052   7.718   5.903   0.179  0.8352 -0.5542  0.2806
  100MOL   H17532053   7.812   5.713   0.098  0.6726 -0.4941  0.2492
  100MOL   H17632054   7.530   5.314   0.080  0.5912 -0.7280  2.0887
  100MOL   H17732055   7.661   5.249   8.431  0.7082 -1.6182  0.4259
  100MOL   C17832056   7.688   5.263   0.202  0.0776  0.1653 -0.4960
  100MOL   C17932057   7.606   5.315   0.323  0.1787  0.1036 -0.5301
  100MOL   C18032058   7.671   5.377   0.430 -0.0504 -0.5969 -0.7131
  100MOL   C18132059   7.597   5.408   0.549 -0.5337  0.4761 -0.0750
  100MOL   C18232060   7.462   5.376   0.565 -0.2884  0.0857 -0.9095
  100MOL  Cl18332061   7.381   5.411   0.717  0.2358 -0.2946 -0.4517
  100MOL   C18432062   7.398   5.316   0.458  0.6157 -0.1944 -0.3300
  100MOL   C18532063   7.467   5.286   0.340  0.4630  0.3218  0.2086
  100MOL   C18632064   7.693   5.107   0.202  0.6477 -0.1599 -0.4610
  100MOL   H18732065   7.793   5.292   0.208  0.0912  0.7117 -2.7292
  100MOL   H18832066   7.777   5.396   0.427 -0.3189  0.6489 -4.8628
  100MOL   H18932067   7.650   5.464   0.625  1.7360 -2.5577  0.6796
  100MOL   H19032068   7.295   5.288   0.471  0.8215 -0.5802  0.5255
  100MOL   H19132069   7.413   5.245   0.256 -0.4684  1.4666  0.2378
  100MOL   H19232070   7.592   5.065   0.204  0.3359  0.5483 -1.1640
  100MOL   H19332071   7.733   5.088   0.103 -1.4934  0.4568 -1.4804
  100MOL   C19432072   7.799   5.036   0.289 -0.2590 -0.0137 -0.6489
  100MOL   C19532073   7.836   5.098   0.420  0.0365  1.0341  0.3210
  100MOL   C19632074   7.969   5.146   0.444  0.6804 -0.3805 -0.1615
  100MOL   C19732075   7.998   5.199   0.572 -0.2005 -0.2268 -0.0427
  100MOL   C19832076   7.898   5.203   0.671  0.1851 -0.2059 -0.2970
  100MOL  Cl19932077   7.927   5.268   0.825  0.4332  0.0066 -0.0020
  100MOL   C20032078   7.774   5.141   0.647 -0.2211  0.4323  0.0942
  100MOL   C20132079   7.740   5.092   0.520  0.1440  0.2709 -0.4775
  100MOL   C20232080   7.772   4.887   0.291  0.8621 -0.9698 -0.4107
  100MOL   H20332081   7.892   5.053   0.236 -0.5482  0.5008 -0.9979
  100MOL   H20432082   8.043   5.156   0.366 -0.9989  0.8189 -1.6678
  100MOL   H20532083   8.098   5.233   0.594  0.7995 -0.9512 -3.1091
  100MOL   H20632084   7.696   5.151   0.722  0.7783 -0.6514  1.3116
  100MOL   H20732085   7.640   5.060   0.496  0.5149  0.5767 -2.4615
  100MOL   H20832086   7.809   4.835   0.378 -0.1595  0.0836  0.6753
  100MOL   H20932087   7.663   4.883   0.295  0.8445  0.1695  0.4172
  100MOL   C21032088   7.810   4.802   0.166 -0.0355  0.0191 -0.5878
  100MOL   C21132089   7.953   4.831   0.120 -0.0280  0.0684 -0.1904
  100MOL   C21232090   7.984   4.841   8.428 -0.4146  0.2130  0.1587
  100MOL   C21332091   8.119   4.872   8.388  0.7847 -0.0952  0.0475
  100MOL   C21432092   8.213   4.903   0.040 -1.1903  0.0810 -0.1640
  100MOL  Cl21532093   8.367   4.955   8.436 -0.1349  0.2003  0.0807
  100MOL   C21632094   8.189   4.884   0.178 -0.6871  0.4832  0.9878
  100MOL   C21732095   8.056   4.847   0.218  0.3449  0.0220  0.1573
  100MOL   C21832096   7.784   4.650   0.200  0.3093 -0.6158  0.7565
  100MOL   H21932097   7.745   4.827   0.083 -2.2213 -0.9677  0.7829
  100MOL   H22032098   7.912   4.811   8.352  1.1359  1.1707 -1.7475
  100MOL   H22132099   8.146   4.884   8.284  0.3763 -2.4991 -0.3464
  100MOL   H22232100   8.273   4.886   0.246  1.4993  0.6282 -1.6093
  100MOL   H22332101   8.034   4.856   0.324 -0.6948 -2.5247  0.1900
  100MOL   H22432102   7.829   4.595   0.117  0.6208  0.1705  0.4014
  100MOL   H22532103   7.832   4.619   0.293  1.6285  0.1938  0.3599
  100MOL   C22632104   7.632   4.608   0.205  0.1072 -0.3593  0.2729
  100MOL   C22732105   7.559   4.638   0.075 -0.1214  0.1150  0.2255
  100MOL   C22832106   7.486   4.756   0.073 -0.3269  0.2336 -0.0564
  100MOL   C22932107   7.430   4.806   8.396 -0.1492  0.8907 -0.3858
  100MOL   C23032108   7.453   4.727   8.275 -0.2039 -0.0428 -0.5153
  100MOL  Cl23132109   7.379   4.778   8.132 -0.3056 -0.1887 -0.0828
  100MOL   C23232110   7.526   4.603   8.280 -0.0054  0.0389  0.5424
  100MOL   C23332111   7.590   4.564   8.401 -1.1001 -0.3723 -0.1367
  100MOL   C23432112   7.623   4.458   0.242  0.5204 -0.6394 -0.6172
  100MOL   H23532113   7.588   4.648   0.297  0.6261 -1.7027  1.1259
  100MOL   H23632114   7.470   4.806   0.167  0.6266  0.1196  0.1622
  100MOL   H23732115   7.362   4.890   8.406 -1.8205 -0.5990  1.1005
  100MOL   H23832116   7.541   4.552   8.185  0.7096  0.7615  0.2575
  100MOL   H23932117   7.648   4.473   8.394  0.5103  0.3721  2.6818
  100MOL   H24032118   7.689   4.406   0.173  1.8552  2.1643 -1.5155
  100MOL   H24132119   7.675   4.450   0.338 -2.1895  0.7405  1.0677
  100MOL   C24232120   7.481   4.398   0.254  0.2805 -0.0170  0.7643
  100MOL   C24332121   7.426   4.342   0.121  0.2949  0.0514  0.6482
  100MOL   C24432122   7.478   4.222   0.070 -0.2595  0.3382  0.4444
  100MOL   C24532123   7.428   4.168   8.393  0.3843 -0.0640  0.4886
  100MOL   C24632124   7.331   4.241   8.322 -0.0135 -0.3805  0.1347
  100MOL  Cl24732125   7.298   4.193   8.161 -0.0123 -0.4602  0.0819
  100MOL   C24832126   7.277   4.361   8.372 -0.0526 -0.1569  0.3717
  100MOL   C24932127   7.321   4.411   0.053  0.1536  1.3060 -0.4017
  100MOL   C25032128   7.463   4.295   0.369 -0.4906 -0.0482 -0.5358
  100MOL   H25132129   7.420   4.485   0.280  1.1766  0.8392  0.0227
  100MOL   H25232130   7.558   4.178   0.127  0.9394  0.4715 -1.0964
  100MOL   H25332131   7.470   4.084   8.341 -0.4704  1.2455 -2.4345
  100MOL   H25432132   7.199   4.407   8.314  1.2657 -0.3558 -1.5962
  100MOL   H25532133   7.287   4.503   0.096 -0.3000  1.1901 -0.5105
  100MOL   H25632134   7.380   4.229   0.342 -2.0537  2.3859 -1.8586
  100MOL   H25732135   7.548   4.227   0.373 -0.6201 -0.1143  3.0688
  100MOL   C25832136   7.439   4.360   0.505 -0.6954  0.5569 -0.1829
  100MOL   C25932137   7.291   4.415   0.512 -0.0149 -0.1582 -0.4913
  100MOL   C26032138   7.188   4.326   0.507  0.2449 -0.0594  0.0232
  100MOL   C26132139   7.057   4.372   0.508 -0.4458 -0.2606  0.4700
  100MOL   C26232140   7.029   4.506   0.512 -0.1025 -0.3697  0.2633
  100MOL  Cl26332141   6.863   4.562   0.496  0.1516  0.5870 -0.1047
  100MOL   C26432142   7.131   4.597   0.521  0.3760  0.3143  0.7890
  100MOL   C26532143   7.263   4.550   0.521  0.7750  0.4760 -1.0404
  100MOL   C26632144   7.474   4.265   0.618 -0.4538 -0.3518 -0.1332
  100MOL   H26732145   7.505   4.446   0.517  1.0173 -1.2221  4.0899
  100MOL   H26832146   7.202   4.219   0.506 -0.8957 -0.2170 -2.5266
  100MOL   H26932147   6.979   4.300   0.488  0.3398 -1.1832  0.6718
  100MOL   H27032148   7.110   4.703   0.524  1.7802  0.6706 -1.0850
  100MOL   H27132149   7.340   4.626   0.524  1.9865 -0.8013  1.9826
  100MOL   H27232150   7.444   4.303   0.716  0.0364 -1.1386  0.3283
  100MOL   H27332151   7.420   4.172   0.605 -0.0768 -0.7849  1.3302
  100MOL   C27432152   7.628   4.226   0.629 -0.0112 -0.3553  0.4369
  100MOL   C27532153   7.709   4.351   0.631 -0.6714  0.3543  0.0001
  100MOL   C27632154   7.674   4.472   0.699 -1.1115  0.3577 -0.4402
  100MOL   C27732155   7.757   4.586   0.693 -0.3761 -0.0130  0.2970
  100MOL   C27832156   7.877   4.580   0.618  0.3090  0.2877 -0.1158
  100MOL  Cl27932157   7.969   4.717   0.584 -0.0295 -0.5082  0.2950
  100MOL   C28032158   7.919   4.465   0.558  0.8439 -0.3128  0.2508
  100MOL   C28132159   7.831   4.350   0.559  0.2349  0.3266 -0.1943
  100MOL   C28232160   7.668   4.139   0.753  0.5841  0.1732  0.0698
  100MOL   H28332161   7.659   4.167   0.543 -1.8775  1.3337 -1.4618
  100MOL   H28432162   7.587   4.474   0.762 -0.8820  0.0742 -0.1158
  100MOL   H28532163   7.741   4.681   0.741  3.1494  1.6446 -1.6387
  100MOL   H28632164   8.012   4.465   0.504  0.1696 -0.7714 -0.9244
  100MOL   H28732165   7.850   4.260   0.502  0.3261  1.2017 -1.5594
  100MOL   H28832166   7.766   4.168   0.788 -0.0301 -0.8944  2.7475
  100MOL   H28932167   7.596   4.165   0.831  1.2256  4.1326 -0.5686
  100MOL   C29032168   7.679   3.986   0.716 -0.0124 -0.0532  0.1254
  100MOL   C29132169   7.809   3.960   0.638 -1.1245 -0.0296  0.1669
  100MOL   C29232170   7.938   3.967   0.696 -0.0933 -0.3193  0.7946
  100MOL   C29332171   8.056   3.949   0.622  0.8666  0.3015  0.0872
  100MOL   C29432172   8.049   3.913   0.488 -0.4452  0.2714 -0.4796
  100MOL  Cl29532173   8.197   3.873   0.408  0.3856  0.3418  0.0417
  100MOL   C29632174   7.926   3.907   0.426 -0.1424  0.0239  0.3871
  100MOL   C29732175   7.806   3.930   0.497  0.0470  0.5111  0.5389
  100MOL   C29832176   7.679   3.909   0.847 -0.2731  0.7316 -0.3873
  100MOL   H29932177   7.591   3.960   0.657  0.2458  0.2807 -0.4067
  100MOL   H30032178   7.952   3.995   0.800  1.7040  1.3206  0.1394
  100MOL   H30132179   8.153   3.964   0.667  0.9124  2.2246 -0.5948
  100MOL   H30232180   7.918   3.880   0.321  2.0930  3.1242 -0.6575
  100MOL   H30332181   7.713   3.914   0.446  0.7384 -1.2257 -0.2363
  100MOL   H30432182   7.678   3.808   0.805  2.2034  0.0810  1.0034
  100MOL   H30532183   7.766   3.937   0.906 -0.1794  0.9676 -0.6391
  100MOL   C30632184   7.549   3.905   0.932 -0.9861  0.6462  0.6525
  100MOL   C30732185   7.419   3.946   0.864 -0.0486 -0.0829 -0.2517
  100MOL   C30832186   7.372   3.879   0.749  0.2846 -0.2915  0.3339
  100MOL   C30932187   7.240   3.903   0.703  0.3862 -0.1270 -1.1516
  100MOL   C31032188   7.168   4.013   0.759  0.1914  0.9064  0.4956
  100MOL  Cl31132189   7.019   4.050   0.687  0.1272 -0.1909 -0.2002
  100MOL   C31232190   7.219   4.090   0.867 -0.2715  0.3543 -0.1404
  100MOL   C31332191   7.344   4.046   0.926 -0.9016  0.9167 -0.4635
  100MOL   C31432192   7.530   3.764   0.998  0.2076 -0.3633 -0.1268
  100MOL   H31532193   7.570   3.974   1.013  0.1757  1.8214 -0.6181
  100MOL   H31632194   7.438   3.804   0.708 -0.5997 -0.3011 -1.1107
  100MOL   H31732195   7.190   3.844   0.627  1.2398 -4.2029  1.3356
  100MOL   H31832196   7.168   4.166   0.923 -0.5243 -0.1859  0.3637
  100MOL   H31932197   7.384   4.104   1.008  0.3732  1.1396 -1.2377
  100MOL   H32032198   7.498   3.684   0.931 -2.1394  0.8839 -0.5460
  100MOL   H32132199   7.622   3.737   1.049  2.1174 -0.9886 -3.7410
  100MOL   H32232200   7.455   3.762   1.077  1.4707  0.2586  1.1103
  101MOL     C132201   6.568   7.630   3.125 -0.7427 -0.6946 -0.8030
  101MOL     C232202   6.537   7.679   2.977  0.3442 -0.1945  0.0156
  101MOL     C332203   6.421   7.760   2.962  0.2206  0.5801 -0.2170
  101MOL     C432204   6.379   7.805   2.838  0.1007 -0.0380 -0.4664
  101MOL     C532205   6.461   7.781   2.726 -0.8391  0.0741  0.1519
  101MOL    Cl632206   6.402   7.837   2.577  0.1672 -0.1426  0.2719
  101MOL     C732207   6.582   7.706   2.733  0.4366 -0.4988  0.2752
  101MOL     C832208   6.622   7.658   2.865 -0.3162 -0.5314  0.2659
  101MOL     C932209   6.597   7.482   3.143  0.1013  0.1555 -0.4294
  101MOL    H1032210   6.477   7.657   3.179 -0.4507 -1.1625 -0.0687
  101MOL    H1132211   6.356   7.778   3.047  0.6393  0.6327  0.0917
  101MOL    H1232212   6.285   7.858   2.829 -0.3229 -0.5898  0.6376
  101MOL    H1332213   6.636   7.690   2.641  1.7963 -1.4681  1.2182
  101MOL    H1432214   6.708   7.593   2.872 -0.2136 -0.5684 -1.0952
  101MOL    H1532215   6.660   7.445   3.062 -2.0348 -1.4944 -1.3824
  101MOL    H1632216   6.658   7.472   3.233 -1.1650 -2.3164  0.1644
  101MOL    H1732217   6.652   7.694   3.153 -0.4841 -2.6253  3.2081
  101MOL    C1832218   6.476   7.385   3.178  0.1935  0.4372  0.7276
  101MOL    C1932219   6.390   7.368   3.050 -0.3909  0.3434 -0.0304
  101MOL    C2032220   6.452   7.348   2.923  0.1325 -0.3654 -0.0892
  101MOL    C2132221   6.365   7.345   2.812  0.1532 -0.1077 -0.1054
  101MOL    C2232222   6.230   7.379   2.824 -0.4273  1.1059 -0.4428
  101MOL   Cl2332223   6.128   7.380   2.683 -0.3302 -0.1449 -0.5475
  101MOL    C2432224   6.174   7.401   2.949 -0.3705 -0.9317 -0.4649
  101MOL    C2532225   6.257   7.391   3.065  0.0203  1.0617  0.7399
  101MOL    C2632226   6.537   7.246   3.204  0.1430  0.4264  0.4454
  101MOL    H2732227   6.420   7.427   3.261  0.2917  1.2525  0.3912
  101MOL    H2832228   6.559   7.336   2.916  0.3389  0.6917  1.1434
  101MOL    H2932229   6.407   7.337   2.713 -1.1199  1.1111 -0.7597
  101MOL    H3032230   6.068   7.418   2.953 -0.5932 -2.0069 -1.6752
  101MOL    H3132231   6.211   7.418   3.159  1.8483 -0.3277  2.0577
  101MOL    H3232232   6.583   7.198   3.118 -1.1570 -0.4983  0.2477
  101MOL    H3332233   6.623   7.256   3.270  0.1848  3.3159  0.0265
  101MOL    C3432234   6.454   7.143   3.291 -0.4931 -0.3382 -0.3736
  101MOL    C3532235   6.342   7.083   3.209  0.2020  0.9950 -0.0173
  101MOL    C3632236   6.221   7.080   3.277 -0.4439  0.0757 -0.2937
  101MOL    C3732237   6.104   7.036   3.211  0.5756  1.0337  0.1105
  101MOL    C3832238   6.112   6.998   3.078 -0.3497  1.4729  0.0942
  101MOL   Cl3932239   5.974   6.963   2.979 -0.5306 -0.2462  0.0465
  101MOL    C4032240   6.238   6.986   3.016  0.0651  0.6336  0.5410
  101MOL    C4132241   6.356   7.029   3.083 -0.2019 -0.2496 -0.5656
  101MOL    C4232242   6.550   7.034   3.336 -0.3156 -0.2935  0.1233
  101MOL    H4332243   6.413   7.198   3.376 -1.1068 -0.0145 -0.8738
  101MOL    H4432244   6.222   7.107   3.382 -1.5071  2.6608 -0.9158
  101MOL    H4532245   6.014   7.059   3.266  0.6049 -2.6818  1.8722
  101MOL    H4632246   6.236   6.954   2.913 -1.0467  0.7695  0.5211
  101MOL    H4732247   6.455   7.047   3.045 -0.2008 -0.1033 -0.4926
  101MOL    H4832248   6.580   6.979   3.248 -0.2287  2.4274 -1.6017
  101MOL    H4932249   6.632   7.087   3.385 -2.1790  1.9579  0.9186
  101MOL    C5032250   6.501   6.926   3.438  0.0521  0.0894 -0.3240
  101MOL    C5132251   6.594   6.804   3.455 -0.4461 -0.2906  0.1446
  101MOL    C5232252   6.533   6.683   3.487  0.0500  0.5281 -0.1279
  101MOL    C5332253   6.601   6.565   3.510 -0.6049  0.6450 -0.3025
  101MOL    C5432254   6.740   6.560   3.501 -0.2183  0.0714  0.5147
  101MOL   Cl5532255   6.836   6.422   3.535 -0.0147 -0.2735  0.4380
  101MOL    C5632256   6.813   6.679   3.467 -0.2104  0.2137  0.2103
  101MOL    C5732257   6.738   6.801   3.450  0.6170 -0.1332 -0.3986
  101MOL    C5832258   6.450   6.982   3.573 -0.3759  0.3630  0.3562
  101MOL    H5932259   6.408   6.887   3.396  1.2911 -0.2861 -2.8637
  101MOL    H6032260   6.428   6.673   3.507  0.3048  0.6563  1.3120
  101MOL    H6132261   6.551   6.480   3.555  1.1699 -0.2378  0.0579
  101MOL    H6232262   6.919   6.676   3.448 -0.5550  0.4960 -1.8332
  101MOL    H6332263   6.786   6.895   3.426 -0.5078  0.5115 -0.1942
  101MOL    H6432264   6.360   7.042   3.559  0.1885  0.6299 -2.4625
  101MOL    H6532265   6.405   6.898   3.626 -1.4907  1.9197  1.9350
  101MOL    C6632266   6.553   7.057   3.661 -0.2893  0.0011 -0.3157
  101MOL    C6732267   6.581   7.201   3.620  0.7681  0.0650  0.3662
  101MOL    C6832268   6.706   7.243   3.574  0.4457  0.7744  0.6810
  101MOL    C6932269   6.729   7.382   3.550 -0.3723  0.0063 -0.0287
  101MOL    C7032270   6.624   7.473   3.563  0.0768  0.0459 -0.0908
  101MOL   Cl7132271   6.648   7.641   3.551 -0.1638  0.2818  0.2410
  101MOL    C7232272   6.502   7.433   3.602 -0.1147 -0.5415  0.4754
  101MOL    C7332273   6.482   7.300   3.639 -0.3287 -0.2382 -0.0798
  101MOL    C7432274   6.515   7.052   3.813  0.0382 -0.0509 -0.5044
  101MOL    H7532275   6.653   7.012   3.655  0.5083  1.4724  1.5029
  101MOL    H7632276   6.777   7.163   3.555 -0.1015  0.7853 -1.6578
  101MOL    H7732277   6.825   7.414   3.514 -0.3746 -1.7083 -1.6519
  101MOL    H7832278   6.421   7.504   3.611 -1.6385 -2.0329 -1.0444
  101MOL    H7932279   6.383   7.274   3.673 -1.6016  0.7228 -2.8986
  101MOL    H8032280   6.553   7.128   3.881 -1.0466  0.0913 -0.0364
  101MOL    H8132281   6.413   7.089   3.825  0.6040  1.7016 -1.0254
  101MOL    C8232282   6.528   6.914   3.886 -0.6287  0.9772  0.5726
  101MOL    C8332283   6.663   6.864   3.936  0.4199  0.0942  0.6266
  101MOL    C8432284   6.714   6.915   4.057 -0.8309  0.2987  0.1273
  101MOL    C8532285   6.836   6.868   4.116  0.4951  0.3763  0.4965
  101MOL    C8632286   6.907   6.770   4.053 -0.1217 -0.0213  1.0829
  101MOL   Cl8732287   7.043   6.710   4.131 -0.1595  0.1211  0.0202
  101MOL    C8832288   6.866   6.727   3.924  0.0512  0.4591 -0.2525
  101MOL    C8932289   6.749   6.775   3.866 -0.7993 -0.4261  0.1016
  101MOL    C9032290   6.424   6.898   3.995  0.1590  0.0488 -0.5092
  101MOL    H9132291   6.501   6.831   3.821 -0.5311  0.0229  1.7257
  101MOL    H9232292   6.657   6.983   4.119  0.0800  1.2715 -0.0761
  101MOL    H9332293   6.859   6.886   4.220 -2.7149  0.3440  1.2693
  101MOL    H9432294   6.920   6.643   3.885  0.1215  0.5197 -0.2853
  101MOL    H9532295   6.716   6.737   3.770 -2.9486  2.4057 -0.3705
  101MOL    H9632296   6.445   6.816   4.064 -0.1677  1.1626  0.9460
  101MOL    H9732297   6.426   6.982   4.063  2.2172 -1.0500  0.8494
  101MOL    C9832298   6.273   6.875   3.947 -0.5731  0.2573  0.3442
  101MOL    C9932299   6.253   6.736   3.878  0.3730  0.0644 -0.0137
  101MOL   C10032300   6.213   6.739   3.744  0.1438  0.3020  0.3801
  101MOL   C10132301   6.168   6.626   3.681 -1.0055 -0.0450 -0.4072
  101MOL   C10232302   6.171   6.506   3.749  0.0471  0.5180  0.6209
  101MOL  Cl10332303   6.123   6.357   3.677 -0.0180  0.2822 -0.0177
  101MOL   C10432304   6.223   6.497   3.881  0.7759  0.0114  0.1768
  101MOL   C10532305   6.270   6.614   3.947 -0.1336  0.0605  0.1642
  101MOL   C10632306   6.179   6.903   4.064  0.8792 -0.4592  0.4589
  101MOL   H10732307   6.260   6.951   3.870 -0.1267 -0.3763 -0.3627
  101MOL   H10832308   6.217   6.823   3.676 -0.3164 -0.4092 -0.5486
  101MOL   H10932309   6.140   6.624   3.576 -0.6919 -0.5106 -0.4852
  101MOL   H11032310   6.226   6.401   3.930 -0.8920  0.2345  0.7212
  101MOL   H11132311   6.310   6.621   4.048  2.5399  1.1079 -0.9155
  101MOL   H11232312   6.210   6.854   4.156 -4.5749  0.2000  2.8362
  101MOL   H11332313   6.178   7.010   4.088  0.2368  0.0654 -1.7789
  101MOL   C11432314   6.036   6.856   4.038 -0.0009 -0.0131  1.2036
  101MOL   C11532315   5.957   6.856   4.168  0.9100  0.6747  0.0449
  101MOL   C11632316   5.929   6.740   4.244 -0.3654  0.3745  0.2316
  101MOL   C11732317   5.851   6.749   4.362 -0.0272 -0.0422 -0.0649
  101MOL   C11832318   5.797   6.875   4.401 -0.3887 -0.2935  0.1407
  101MOL  Cl11932319   5.702   6.884   4.545 -0.3999 -0.0293  0.1594
  101MOL   C12032320   5.831   6.997   4.335  0.1649 -0.4946  0.4716
  101MOL   C12132321   5.905   6.983   4.215  0.1140 -0.2198 -0.2664
  101MOL   C12232322   5.968   6.934   3.916 -0.2697  0.4853 -0.1265
  101MOL   H12332323   6.039   6.753   4.002  0.0977  0.7140 -0.8915
  101MOL   H12432324   5.967   6.643   4.218  1.7362  1.6579 -1.6149
  101MOL   H12532325   5.830   6.657   4.414 -0.5077 -1.0918 -2.0703
  101MOL   H12632326   5.785   7.091   4.361 -1.0645  0.3158 -4.1541
  101MOL   H12732327   5.926   7.066   4.150  2.3934  0.0065  0.6882
  101MOL   H12832328   5.972   7.041   3.937  1.5405  0.3702  0.2156
  101MOL   H12932329   6.030   6.920   3.827 -1.6091  1.8213 -1.2827
  101MOL   C13032330   5.833   6.893   3.870  0.5385  0.2008  0.1625
  101MOL   C13132331   5.786   6.969   3.744  0.7207 -0.7641 -0.7311
  101MOL   C13232332   5.679   7.065   3.751 -0.6087 -0.6975  0.0525
  101MOL   C13332333   5.638   7.142   3.640  0.0690  0.1267  0.0737
  101MOL   C13432334   5.713   7.121   3.522 -0.2364 -0.0353  0.4702
  101MOL  Cl13532335   5.667   7.208   3.382  0.3956  0.2777  0.0909
  101MOL   C13632336   5.822   7.030   3.516 -0.4535  0.0279 -0.0544
  101MOL   C13732337   5.858   6.959   3.626 -0.8900  0.4315  0.0397
  101MOL   C13832338   5.810   6.734   3.858 -0.5030 -0.1957 -0.5014
  101MOL   H13932339   5.768   6.928   3.951  0.8298 -0.2806  0.6026
  101MOL   H14032340   5.631   7.080   3.846  0.2999  2.4636  0.0809
  101MOL   H14132341   5.569   7.226   3.639  0.0587  0.1177 -0.0470
  101MOL   H14232342   5.878   7.026   3.424  0.7553 -1.0597  0.7068
  101MOL   H14332343   5.949   6.901   3.624  0.1677  2.0897 -2.3375
  101MOL   H14432344   5.888   6.700   3.789 -0.7895 -1.5071 -0.1801
  101MOL   H14532345   5.830   6.690   3.955 -1.6809  0.7688  0.1930
  101MOL   C14632346   5.675   6.683   3.809 -0.2644  0.1240 -0.4361
  101MOL   C14732347   5.677   6.528   3.826 -0.2322  1.4209  0.3165
  101MOL   C14832348   5.700   6.460   3.704 -0.5733  0.3201 -0.5324
  101MOL   C14932349   5.678   6.319   3.702 -0.4620 -0.4058 -0.6933
  101MOL   C15032350   5.643   6.253   3.819  0.1187 -0.0743  0.4168
  101MOL  Cl15132351   5.612   6.082   3.816 -0.3861 -0.0413 -0.2855
  101MOL   C15232352   5.624   6.327   3.931  0.8162  0.3984  0.1452
  101MOL   C15332353   5.635   6.462   3.939  1.4197 -0.6714  0.0011
  101MOL   C15432354   5.556   6.748   3.885 -0.1416 -0.1417  0.5394
  101MOL   H15532355   5.666   6.712   3.704  0.2884  0.8315 -0.2928
  101MOL   H15632356   5.727   6.511   3.613  1.8729  0.0049 -0.0356
  101MOL   H15732357   5.682   6.266   3.608 -2.1570 -0.4209 -0.7766
  101MOL   H15832358   5.583   6.276   4.018  0.7110 -0.5152 -0.4238
  101MOL   H15932359   5.602   6.509   4.030 -1.1638  0.2818 -1.3534
  101MOL   H16032360   5.507   6.698   3.969 -0.3007  1.0187  1.1534
  101MOL   H16132361   5.583   6.843   3.932  1.6776 -0.0835 -0.5801
  101MOL   C16232362   5.435   6.780   3.791  0.4962 -0.0610  0.4632
  101MOL   C16332363   5.390   6.643   3.726 -0.1168  0.0121  0.1536
  101MOL   C16432364   5.389   6.641   3.581 -0.5399 -0.1341  0.3297
  101MOL   C16532365   5.366   6.527   3.510 -0.1134  0.2270  0.0571
  101MOL   C16632366   5.322   6.415   3.586 -0.2236  0.4980  0.8030
  101MOL  Cl16732367   5.269   6.276   3.501 -0.0907  0.0069  0.3088
  101MOL   C16832368   5.316   6.419   3.727 -0.0011 -0.0894 -0.1546
  101MOL   C16932369   5.352   6.535   3.798  0.2271 -0.5188 -0.7661
  101MOL   C17032370   5.324   6.854   3.864 -0.5417  0.0909  0.8965
  101MOL   H17132371   5.475   6.839   3.708 -0.9285 -0.1940 -0.3354
  101MOL   H17232372   5.427   6.725   3.524 -0.2740 -0.0200  0.6699
  101MOL   H17332373   5.365   6.523   3.402 -0.5449 -0.1105  0.0741
  101MOL   H17432374   5.270   6.332   3.771  2.1432 -2.3677 -2.2699
  101MOL   H17532375   5.344   6.551   3.904  1.1319  0.2734 -0.8133
  101MOL   H17632376   5.261   6.782   3.916  1.3428 -1.8732  0.5239
  101MOL   H17732377   5.368   6.928   3.930 -0.7531  1.2046 -0.2062
  101MOL   C17832378   5.223   6.912   3.755  0.2261 -0.0731 -0.3494
  101MOL   C17932379   5.089   6.932   3.817 -0.5262  0.0251  0.2961
  101MOL   C18032380   5.057   7.046   3.900  0.4677 -0.3626 -0.3450
  101MOL   C18132381   4.926   7.068   3.946  0.4330  0.4332  0.7031
  101MOL   C18232382   4.826   6.974   3.921  0.0203  0.8943 -0.8419
  101MOL  Cl18332383   4.658   7.012   3.966 -0.0396  0.0025 -0.5199
  101MOL   C18432384   4.859   6.861   3.838  0.2846  1.0366 -0.1450
  101MOL   C18532385   4.992   6.833   3.790  0.2426 -0.4422  0.1350
  101MOL   C18632386   5.278   7.043   3.701 -0.1670 -0.8255  0.4892
  101MOL   H18732387   5.220   6.847   3.668 -0.3387  0.9999 -1.1404
  101MOL   H18832388   5.130   7.114   3.938 -1.3080 -0.3369  3.1662
  101MOL   H18932389   4.902   7.159   3.998 -3.0504 -0.7236  1.2520
  101MOL   H19032390   4.778   6.799   3.804  0.4481  0.9308 -0.3427
  101MOL   H19132391   5.009   6.752   3.721 -1.5397  1.1045 -2.1954
  101MOL   H19232392   5.286   7.115   3.783  2.1442 -0.5541  0.0556
  101MOL   H19332393   5.375   7.025   3.656 -0.2602 -0.1629  0.0194
  101MOL   C19432394   5.182   7.101   3.592  0.0715 -0.2744 -0.1650
  101MOL   C19532395   5.149   7.251   3.608 -0.3133  0.2910  0.6507
  101MOL   C19632396   5.252   7.349   3.579  0.3054 -0.1333 -0.1644
  101MOL   C19732397   5.219   7.487   3.575  0.0634 -0.0264  0.0648
  101MOL   C19832398   5.085   7.527   3.609  0.2905 -0.2481 -0.6997
  101MOL  Cl19932399   5.048   7.699   3.595  0.2730  0.0128 -0.4000
  101MOL   C20032400   4.989   7.437   3.658  0.1105  0.3527  0.1327
  101MOL   C20132401   5.017   7.299   3.645  0.1294  0.0037 -0.2977
  101MOL   C20232402   5.245   7.070   3.459 -0.4094  0.6925 -0.5939
  101MOL   H20332403   5.087   7.048   3.587  0.8026 -1.6050  0.0275
  101MOL   H20432404   5.354   7.317   3.569  1.3672  2.9636  0.1374
  101MOL   H20532405   5.292   7.563   3.553  0.6635 -0.3839  0.7988
  101MOL   H20632406   4.893   7.477   3.686 -0.1098 -0.2887  0.2992
  101MOL   H20732407   4.944   7.225   3.673 -0.8193  0.4602 -1.5423
  101MOL   H20832408   5.327   7.138   3.440  1.3887 -0.1783  3.4765
  101MOL   H20932409   5.298   6.974   3.454  1.2647  1.3709  3.0124
  101MOL   C21032410   5.153   7.080   3.340  0.4508  0.4246  0.9600
  101MOL   C21132411   5.116   7.225   3.299  0.4216 -0.2904 -0.6187
  101MOL   C21232412   5.212   7.317   3.250  0.1959  0.4764 -0.4780
  101MOL   C21332413   5.177   7.445   3.219 -0.1345 -0.2212  1.1286
  101MOL   C21432414   5.053   7.496   3.256 -0.3487 -0.2080  0.1910
  101MOL  Cl21532415   5.019   7.663   3.238 -0.0381 -0.2252  0.0778
  101MOL   C21632416   4.956   7.410   3.305  0.2216  0.1590  0.7736
  101MOL   C21732417   4.982   7.275   3.317 -0.0273  0.0468 -0.4175
  101MOL   C21832418   5.200   7.004   3.220 -0.7263 -0.3737 -0.2041
  101MOL   H21932419   5.056   7.040   3.369 -0.1017  1.3748  0.4413
  101MOL   H22032420   5.310   7.277   3.230 -0.0829 -0.1154 -0.6664
  101MOL   H22132421   5.249   7.512   3.175 -2.9273  1.7784 -0.5837
  101MOL   H22232422   4.861   7.452   3.334 -0.1673  1.0153 -1.5862
  101MOL   H22332423   4.902   7.215   3.357  2.7032 -3.6337 -0.2037
  101MOL   H22432424   5.122   7.040   3.152  0.5372 -0.3759 -1.6679
  101MOL   H22532425   5.293   7.046   3.182 -0.5882  1.5368  2.0921
  101MOL   C22632426   5.194   6.855   3.232 -1.1998  0.3088 -0.5098
  101MOL   C22732427   5.071   6.800   3.294 -0.4861 -0.4654  0.0151
  101MOL   C22832428   5.081   6.732   3.414 -0.2545  0.4694 -0.8401
  101MOL   C22932429   4.976   6.659   3.475 -0.1528  0.2729 -0.1134
  101MOL   C23032430   4.852   6.668   3.412  0.1994 -0.1180 -0.8304
  101MOL  Cl23132431   4.713   6.580   3.456  0.3131 -0.3463  0.5747
  101MOL   C23232432   4.831   6.754   3.305  0.0425  0.0226  0.1481
  101MOL   C23332433   4.945   6.807   3.235  0.2854  0.4416 -0.2831
  101MOL   C23432434   5.216   6.768   3.103  0.4543 -0.0611  1.1117
  101MOL   H23532435   5.275   6.828   3.300  0.2999 -0.4575 -2.5474
  101MOL   H23632436   5.173   6.719   3.469 -1.7244 -1.4533  1.3176
  101MOL   H23732437   4.997   6.599   3.562  3.0361 -0.9229 -1.6147
  101MOL   H23832438   4.737   6.752   3.251 -0.8098 -2.3123  1.6171
  101MOL   H23932439   4.936   6.863   3.143 -1.8239  0.6255  0.0211
  101MOL   H24032440   5.200   6.661   3.116  1.0989 -0.2707  0.1347
  101MOL   H24132441   5.146   6.808   3.030  0.2363 -1.3856  0.5833
  101MOL   C24232442   5.351   6.790   3.043 -0.4636  0.0730 -0.8791
  101MOL   C24332443   5.476   6.761   3.130  0.1116 -0.0832  0.4155
  101MOL   C24432444   5.570   6.860   3.142  0.0029 -0.1866  0.2077
  101MOL   C24532445   5.690   6.842   3.220  0.2258  0.0075 -0.5375
  101MOL   C24632446   5.706   6.718   3.285  0.2583 -0.5005 -0.1924
  101MOL  Cl24732447   5.853   6.688   3.367  0.3020 -0.0649 -0.0754
  101MOL   C24832448   5.610   6.615   3.274 -0.1290 -0.2505  0.8798
  101MOL   C24932449   5.489   6.634   3.198  0.4790 -0.0343  0.1964
  101MOL   C25032450   5.354   6.723   2.905 -0.6875 -0.3434  0.2487
  101MOL   H25132451   5.351   6.897   3.026  0.1095  0.3702  0.9520
  101MOL   H25232452   5.553   6.954   3.092 -1.9144 -1.3079 -1.3006
  101MOL   H25332453   5.767   6.917   3.216  0.7594 -0.5084 -0.0865
  101MOL   H25432454   5.630   6.528   3.335 -0.4732 -0.6390  0.4381
  101MOL   H25532455   5.415   6.555   3.189 -0.2019  0.7024 -0.7919
  101MOL   H25632456   5.453   6.681   2.888 -0.4876  0.1302  0.2278
  101MOL   H25732457   5.284   6.639   2.905  0.1001 -1.0128 -0.6715
  101MOL   C25832458   5.341   6.821   2.785 -0.3333  0.0465  0.1125
  101MOL   C25932459   5.467   6.920   2.784 -0.3603 -0.2665  1.1586
  101MOL   C26032460   5.455   7.056   2.820 -1.0114  0.8139 -0.7449
  101MOL   C26132461   5.566   7.139   2.821  0.4213  0.0574  0.2440
  101MOL   C26232462   5.691   7.094   2.767 -0.5133 -0.0198 -0.5410
  101MOL  Cl26332463   5.827   7.200   2.754  0.3071  0.6359 -0.2284
  101MOL   C26432464   5.697   6.958   2.726  0.4377  0.7064  0.1495
  101MOL   C26532465   5.589   6.876   2.730  0.0539  0.0946 -0.5793
  101MOL   C26632466   5.295   6.767   2.655 -0.0903 -0.4055  0.4088
  101MOL   H26732467   5.261   6.892   2.807 -1.2512 -1.5518  2.0680
  101MOL   H26832468   5.360   7.096   2.854 -0.2844  1.7001  0.2456
  101MOL   H26932469   5.547   7.238   2.859 -1.4719 -0.7163  1.3782
  101MOL   H27032470   5.794   6.927   2.688  0.2853 -0.7672  0.9250
  101MOL   H27132471   5.606   6.774   2.699  1.9776 -0.9430  3.5030
  101MOL   H27232472   5.376   6.711   2.609 -0.9859 -3.1366  1.9780
  101MOL   H27332473   5.214   6.698   2.679  0.1536 -0.8522 -0.0569
  101MOL   C27432474   5.246   6.866   2.546  0.2844  0.4443  0.5005
  101MOL   C27532475   5.276   6.801   2.406 -0.2517 -0.3248 -0.2055
  101MOL   C27632476   5.367   6.864   2.320 -0.0501 -0.4580 -0.1393
  101MOL   C27732477   5.401   6.799   2.197 -0.0435 -0.2477  0.0295
  101MOL   C27832478   5.332   6.676   2.162  0.0564 -0.5540  0.1922
  101MOL  Cl27932479   5.358   6.608   2.009 -0.2073  0.0302 -0.6589
  101MOL   C28032480   5.241   6.616   2.248  0.1977 -0.4138  0.3040
  101MOL   C28132481   5.211   6.678   2.372 -0.0051  0.1084  0.1539
  101MOL   C28232482   5.093   6.903   2.536 -0.1963 -0.2386  0.3599
  101MOL   H28332483   5.310   6.954   2.549 -1.6932  1.9074  1.0348
  101MOL   H28432484   5.411   6.957   2.351 -0.4836 -0.1830 -0.3411
  101MOL   H28532485   5.474   6.845   2.131  0.1950 -2.8149 -1.5851
  101MOL   H28632486   5.201   6.521   2.215  0.6706 -0.7731  0.7437
  101MOL   H28732487   5.140   6.635   2.441 -1.6551  0.4619 -1.2928
  101MOL   H28832488   5.079   6.965   2.447 -0.0515 -0.2110  0.3567
  101MOL   H28932489   5.046   6.807   2.516 -0.4751  0.0822 -0.5698
  101MOL   C29032490   5.028   6.966   2.658 -0.9829 -0.1830 -0.2982
  101MOL   C29132491   5.099   7.091   2.712  0.2116 -0.7354  0.5503
  101MOL   C29232492   5.173   7.183   2.627 -0.2876 -0.0939  0.1670
  101MOL   C29332493   5.233   7.295   2.688  1.1288  0.4340 -0.4065
  101MOL   C29432494   5.220   7.319   2.830 -0.2967  0.3990  0.4591
  101MOL  Cl29532495   5.287   7.467   2.884 -0.2455 -0.2465  0.3844
  101MOL   C29632496   5.141   7.227   2.909 -0.5295 -0.1264 -0.0002
  101MOL   C29732497   5.085   7.111   2.854 -0.8929 -0.5809 -0.8664
  101MOL   C29832498   4.875   6.978   2.650 -0.0701 -0.8351  0.2884
  101MOL   H29932499   5.030   6.895   2.741  0.3805 -1.6764 -1.5824
  101MOL   H30032500   5.187   7.173   2.521  0.4015 -2.1997  0.4326
  101MOL   H30132501   5.285   7.363   2.622  1.8979 -1.6305 -1.9679
  101MOL   H30232502   5.122   7.240   3.015  1.8499 -0.3731  0.4879
  101MOL   H30332503   5.028   7.038   2.909  0.3540 -1.5901 -0.9070
  101MOL   H30432504   4.844   6.992   2.753 -1.2796  2.3821 -0.4504
  101MOL   H30532505   4.842   7.062   2.588  0.6752 -0.7032  0.0550
  101MOL   C30632506   4.799   6.852   2.609  0.2557  0.1492 -0.5599
  101MOL   C30732507   4.670   6.831   2.688 -0.1408  0.2906 -0.6841
  101MOL   C30832508   4.628   6.699   2.720  0.2451 -0.0131  0.3305
  101MOL   C30932509   4.499   6.681   2.773  0.3246 -0.2894 -0.1843
  101MOL   C31032510   4.415   6.785   2.808  1.0188  0.8463  0.6055
  101MOL  Cl31132511   4.256   6.759   2.870 -0.1914 -0.2831 -0.1347
  101MOL   C31232512   4.463   6.916   2.791 -0.2387  0.5924  0.0529
  101MOL   C31332513   4.587   6.937   2.721 -0.2462  0.3707  0.1129
  101MOL   C31432514   4.754   6.860   2.464  0.1049  0.4505 -0.1351
  101MOL   H31532515   4.867   6.772   2.635 -2.2727 -2.4271 -1.6022
  101MOL   H31632516   4.694   6.615   2.702 -0.8201 -0.8354  0.2103
  101MOL   H31732517   4.463   6.583   2.802 -1.4709  0.6333  0.8434
  101MOL   H31832518   4.395   6.994   2.821 -0.1677  0.1789  1.2917
  101MOL   H31932519   4.613   7.037   2.692 -0.5482  0.4138 -0.0116
  101MOL   H32032520   4.831   6.916   2.410  0.4095  0.5461  0.3929
  101MOL   H32132521   4.763   6.767   2.408 -0.5775  0.3957 -0.1635
  101MOL   H32232522   4.669   6.925   2.439 -0.4632  0.6385  2.2158
  102MOL     C132523   1.245   5.222   3.682 -0.3018  0.2884 -0.0565
  102MOL     C232524   1.187   5.082   3.706 -0.5512  0.0828  0.2836
  102MOL     C332525   1.124   5.062   3.835  0.1330 -0.3829 -0.3870
  102MOL     C432526   1.055   4.948   3.865 -0.2906 -0.1633 -0.6688
  102MOL     C532527   1.035   4.855   3.754  0.2410 -0.1944 -0.1512
  102MOL    Cl632528   0.926   4.724   3.770  0.1557  0.1570  0.0821
  102MOL     C732529   1.099   4.877   3.629  0.3360 -0.2276 -0.0630
  102MOL     C832530   1.179   4.990   3.609  0.0769  0.5978 -0.0320
  102MOL     C932531   1.396   5.226   3.713 -0.2407 -0.7451  0.0056
  102MOL    H1032532   1.179   5.292   3.734 -0.1129  1.0611 -0.8432
  102MOL    H1132533   1.127   5.142   3.908 -2.1190 -1.3986  0.8585
  102MOL    H1232534   1.005   4.942   3.960 -1.0024  1.6590 -0.9174
  102MOL    H1332535   1.081   4.813   3.544 -0.7469  0.7342 -0.5710
  102MOL    H1432536   1.222   4.996   3.510 -2.2435  0.1507 -1.0936
  102MOL    H1532537   1.416   5.186   3.812  0.3990  1.1795  0.6742
  102MOL    H1632538   1.438   5.160   3.638 -2.2410  0.3823 -2.1804
  102MOL    H1732539   1.221   5.246   3.578  2.0124  0.4155 -0.5729
  102MOL    C1832540   1.472   5.363   3.692 -0.6340  0.5220  0.2495
  102MOL    C1932541   1.432   5.454   3.808  0.0223  0.2800 -0.1252
  102MOL    C2032542   1.447   5.412   3.942  0.3538 -0.0759  0.2217
  102MOL    C2132543   1.391   5.487   4.038  0.1276  0.1209 -0.1297
  102MOL    C2232544   1.301   5.590   4.013  0.3520 -0.0922 -0.2102
  102MOL   Cl2332545   1.234   5.668   4.149 -0.4896 -0.1120 -0.2874
  102MOL    C2432546   1.280   5.630   3.880  0.6616 -0.1478 -0.5218
  102MOL    C2532547   1.346   5.563   3.782  0.4555  0.1145  0.7490
  102MOL    C2632548   1.614   5.357   3.669  0.4171  0.1729  0.7864
  102MOL    H2732549   1.433   5.386   3.593  0.4241  1.9435  0.1439
  102MOL    H2832550   1.502   5.319   3.952 -0.2050 -0.7825 -2.7370
  102MOL    H2932551   1.401   5.456   4.141  0.5722  2.0711  0.4309
  102MOL    H3032552   1.217   5.716   3.860 -2.9133 -2.6951 -0.8546
  102MOL    H3132553   1.329   5.604   3.683 -0.0384  0.8595  1.1434
  102MOL    H3232554   1.661   5.348   3.766  1.5815  1.2070  0.3292
  102MOL    H3332555   1.632   5.270   3.606  0.2605 -0.0057  0.9868
  102MOL    C3432556   1.673   5.481   3.595 -0.5464  0.2965 -0.3012
  102MOL    C3532557   1.821   5.499   3.631 -0.3233 -0.3656  0.4974
  102MOL    C3632558   1.862   5.626   3.672 -0.3456 -0.2968 -0.3312
  102MOL    C3732559   2.000   5.661   3.686  0.6299 -0.1669 -0.0924
  102MOL    C3832560   2.092   5.552   3.700  0.2342  0.0738 -0.6225
  102MOL   Cl3932561   2.263   5.575   3.719  0.0229  0.2193  0.1233
  102MOL    C4032562   2.042   5.415   3.680 -0.4711 -0.3060  0.3755
  102MOL    C4132563   1.913   5.390   3.636  0.4602  0.1478 -0.7612
  102MOL    C4232564   1.655   5.469   3.445  0.2288  0.1431 -0.0354
  102MOL    H4332565   1.617   5.565   3.635 -2.9104 -0.5432 -1.8050
  102MOL    H4432566   1.792   5.708   3.671  1.5608  1.3551 -0.2514
  102MOL    H4532567   2.039   5.760   3.701  2.0090 -1.0245  2.2145
  102MOL    H4632568   2.112   5.334   3.689  0.2944  0.3908  0.7689
  102MOL    H4732569   1.889   5.286   3.616  0.3998 -0.0676  0.4036
  102MOL    H4832570   1.714   5.385   3.408 -1.5927 -0.5843 -1.3197
  102MOL    H4932571   1.549   5.449   3.432  0.2920  1.0594 -2.1485
  102MOL    C5032572   1.689   5.608   3.373 -0.3915 -0.7009 -0.3435
  102MOL    C5132573   1.775   5.585   3.251  0.8382  0.2807 -0.8072
  102MOL    C5232574   1.750   5.477   3.158  0.2733  0.0510 -0.0031
  102MOL    C5332575   1.829   5.476   3.043 -0.1884 -0.3896 -0.6267
  102MOL    C5432576   1.928   5.569   3.017  0.2444 -0.2074 -0.2480
  102MOL   Cl5532577   2.012   5.566   2.861 -0.3137  0.2418 -0.0022
  102MOL    C5632578   1.955   5.670   3.112  0.6577 -0.2816  0.3753
  102MOL    C5732579   1.875   5.687   3.223  0.3861 -0.8022  0.3829
  102MOL    C5832580   1.554   5.681   3.337  0.5853  0.1800  0.1831
  102MOL    H5932581   1.748   5.677   3.433  0.0034 -0.5300 -0.9261
  102MOL    H6032582   1.671   5.405   3.178  0.0143 -0.4188 -2.5361
  102MOL    H6132583   1.815   5.398   2.969 -0.8132  2.4269 -3.5828
  102MOL    H6232584   2.014   5.751   3.072 -1.4536  0.9537 -0.3198
  102MOL    H6332585   1.897   5.770   3.289  2.0552 -0.7702 -0.1859
  102MOL    H6432586   1.583   5.749   3.257 -0.5643 -0.3662 -0.7062
  102MOL    H6532587   1.488   5.603   3.298 -1.8328  1.3309  1.8829
  102MOL    C6632588   1.481   5.777   3.438  0.4997 -0.0045 -0.3143
  102MOL    C6732589   1.574   5.878   3.509 -0.4241 -0.2712 -0.7749
  102MOL    C6832590   1.569   5.895   3.650 -0.2985 -0.3031 -0.2157
  102MOL    C6932591   1.674   5.948   3.724 -0.6954 -0.4225 -0.3582
  102MOL    C7032592   1.780   6.009   3.659 -0.0306  0.6133 -0.2660
  102MOL   Cl7132593   1.895   6.101   3.752 -0.6376 -0.0971 -0.5204
  102MOL    C7232594   1.788   5.988   3.516 -0.2158  0.6564  0.2128
  102MOL    C7332595   1.682   5.929   3.438 -0.2871 -0.3099  0.9340
  102MOL    C7432596   1.372   5.860   3.368  0.2933 -0.5723  0.5714
  102MOL    H7532597   1.425   5.715   3.508  1.4956  1.6075  1.9706
  102MOL    H7632598   1.492   5.847   3.708  0.0070 -0.7096 -0.1421
  102MOL    H7732599   1.685   5.937   3.831  1.1315 -1.2834 -0.6244
  102MOL    H7832600   1.873   6.034   3.468 -0.2869  1.1575  0.5573
  102MOL    H7932601   1.683   5.930   3.330  2.3197 -1.0221  0.9051
  102MOL    H8032602   1.323   5.934   3.432 -3.1652 -1.5354 -0.8817
  102MOL    H8132603   1.416   5.913   3.284 -1.8108  0.2691 -0.0279
  102MOL    C8232604   1.251   5.788   3.312  0.7367  0.0501  0.4089
  102MOL    C8332605   1.184   5.708   3.422 -0.8139 -0.5068 -0.6082
  102MOL    C8432606   1.130   5.769   3.543  0.4714  0.4549  0.1169
  102MOL    C8532607   1.060   5.693   3.639 -0.9475 -0.6644 -0.4318
  102MOL    C8632608   1.043   5.554   3.626 -1.1721 -0.2912  0.8094
  102MOL   Cl8732609   0.958   5.456   3.740  0.0040  0.3377 -0.1398
  102MOL    C8832610   1.100   5.497   3.511  0.0846 -0.1250 -0.4930
  102MOL    C8932611   1.165   5.573   3.408  0.3816  0.0009 -0.3256
  102MOL    C9032612   1.147   5.883   3.253 -0.0733  1.0184 -0.7381
  102MOL    H9132613   1.285   5.721   3.232  1.0296 -0.8135  1.2469
  102MOL    H9232614   1.139   5.873   3.571  0.3048  0.6610 -0.6058
  102MOL    H9332615   1.029   5.744   3.729 -0.1586 -0.8585 -0.0404
  102MOL    H9432616   1.082   5.392   3.495  1.0948 -0.1094 -1.8864
  102MOL    H9532617   1.200   5.522   3.319 -0.9902 -0.3595 -0.6808
  102MOL    H9632618   1.051   5.834   3.268  0.8974 -0.3092  1.3109
  102MOL    H9732619   1.140   5.961   3.329  0.8550  0.2907  0.1102
  102MOL    C9832620   1.152   5.913   3.106  0.6195 -0.4365  0.3875
  102MOL    C9932621   1.166   5.783   3.022  0.0130  0.1507 -0.8292
  102MOL   C10032622   1.253   5.783   2.915 -0.0083  0.2357 -0.1994
  102MOL   C10132623   1.272   5.663   2.842  0.5264  0.2911  0.0227
  102MOL   C10232624   1.207   5.542   2.875  0.6982 -0.2220 -0.0946
  102MOL  Cl10332625   1.233   5.402   2.783  0.4740 -0.2540 -0.5231
  102MOL   C10432626   1.115   5.550   2.984  0.8787  0.6978 -0.0472
  102MOL   C10532627   1.090   5.668   3.056 -1.0250 -0.7150  0.1814
  102MOL   C10632628   1.019   5.993   3.057  0.1252  0.2875 -0.2133
  102MOL   H10732629   1.240   5.975   3.089 -0.7283  1.6839  0.9682
  102MOL   H10832630   1.309   5.866   2.875 -0.5905 -0.2004 -1.9274
  102MOL   H10932631   1.339   5.671   2.757  0.2638 -1.9988 -0.4262
  102MOL   H11032632   1.090   5.450   3.016  0.5904 -0.2092 -3.0105
  102MOL   H11132633   1.027   5.668   3.143 -0.3997 -2.1812  0.6477
  102MOL   H11232634   1.012   5.985   2.949 -2.7441 -0.7567  0.0067
  102MOL   H11332635   0.931   5.933   3.077 -0.9493  2.7378  2.8762
  102MOL   C11432636   0.992   6.137   3.116 -0.3147  0.8057  0.4634
  102MOL   C11532637   1.126   6.218   3.085 -0.0258 -0.1225  0.5752
  102MOL   C11632638   1.216   6.242   3.193 -0.2706  0.1162  0.9319
  102MOL   C11732639   1.344   6.297   3.169  0.6841 -0.2580  0.7042
  102MOL   C11832640   1.383   6.333   3.036 -0.8002 -0.0443  0.2902
  102MOL  Cl11932641   1.538   6.406   2.997 -0.1407  0.3745 -0.0814
  102MOL   C12032642   1.295   6.311   2.929 -0.0752 -0.2552  0.8348
  102MOL   C12132643   1.164   6.260   2.954  0.1371  0.3496 -0.3974
  102MOL   C12232644   0.873   6.199   3.049  0.2396  0.7952  0.4387
  102MOL   H12332645   0.979   6.131   3.224  0.6543  0.7742  0.5838
  102MOL   H12432646   1.206   6.209   3.295 -1.6081  0.1615  0.8266
  102MOL   H12532647   1.412   6.319   3.250  1.7167  1.3800 -0.5560
  102MOL   H12632648   1.316   6.330   2.824  2.3950  2.5002  1.7655
  102MOL   H12732649   1.093   6.238   2.876 -0.8477  2.7156 -0.2128
  102MOL   H12832650   0.884   6.304   3.025  3.5712  0.5047  0.4197
  102MOL   H12932651   0.863   6.159   2.948  2.5349  2.3370 -0.4338
  102MOL   C13032652   0.733   6.180   3.118 -0.0134 -0.2835 -0.2677
  102MOL   C13132653   0.716   6.219   3.264  0.0015 -0.0332 -0.0116
  102MOL   C13232654   0.617   6.157   3.348  0.3210 -0.2151 -0.1252
  102MOL   C13332655   0.596   6.194   3.481 -0.0658  0.3198 -0.2315
  102MOL   C13432656   0.663   6.304   3.531 -0.4144 -0.3985 -0.4601
  102MOL  Cl13532657   0.653   6.356   3.696  0.0139  0.3934  0.2307
  102MOL   C13632658   0.748   6.379   3.447 -0.3589 -0.5390  0.1463
  102MOL   C13732659   0.775   6.334   3.314  0.1749 -0.3335 -0.7528
  102MOL   C13832660   0.615   6.242   3.037 -0.1676 -0.2206  0.1526
  102MOL   H13932661   0.715   6.073   3.124 -0.5900 -0.1101  1.6390
  102MOL   H14032662   0.567   6.067   3.315  1.8380 -0.6336 -1.3592
  102MOL   H14132663   0.545   6.124   3.545  0.5619 -0.8571 -0.9944
  102MOL   H14232664   0.810   6.459   3.484  0.3837 -1.1795  0.3028
  102MOL   H14332665   0.860   6.378   3.264  0.9294  0.3526  1.0941
  102MOL   H14432666   0.539   6.289   3.099 -0.6262 -0.2738 -0.3689
  102MOL   H14532667   0.653   6.326   2.980 -1.1214  0.4547  0.5047
  102MOL   C14632668   0.546   6.139   2.943 -0.0916 -0.3478  0.3213
  102MOL   C14732669   0.487   6.021   3.021  0.0795 -0.5075  0.7347
  102MOL   C14832670   0.398   6.044   3.130  0.5620  0.2126  0.0049
  102MOL   C14932671   0.327   5.936   3.180 -0.1325 -0.2716  0.3902
  102MOL   C15032672   0.358   5.802   3.139 -1.0983 -0.1813  0.1908
  102MOL  Cl15132673   0.284   5.677   3.213 -0.0664  0.0630  0.0490
  102MOL   C15232674   0.453   5.779   3.042  0.3722 -0.0888 -0.4808
  102MOL   C15332675   0.518   5.890   2.980 -0.2328 -0.3089  0.5215
  102MOL   C15432676   0.440   6.209   2.857 -0.2673  0.2243  0.2175
  102MOL   H15532677   0.619   6.089   2.879 -0.3971 -0.4503  0.0548
  102MOL   H15632678   0.388   6.144   3.172  1.1991  1.1090 -1.9331
  102MOL   H15732679   0.250   5.955   3.254 -0.4143  2.3171 -0.5257
  102MOL   H15832680   0.463   5.674   3.019 -0.0175 -0.6392  1.7629
  102MOL   H15932681   0.599   5.873   2.910 -0.2816  1.5824 -0.0073
  102MOL   H16032682   0.401   6.122   2.805 -0.6601 -0.0611  0.9686
  102MOL   H16132683   0.365   6.243   2.929  1.9686 -1.4595  3.4628
  102MOL   C16232684   0.481   6.324   2.761  0.6980  0.2193 -0.3556
  102MOL   C16332685   0.623   6.317   2.709  0.3120 -1.1453 -0.5647
  102MOL   C16432686   0.662   6.215   2.629  0.2895  0.0010  0.0713
  102MOL   C16532687   0.802   6.204   2.590  0.1375  0.0402 -0.3599
  102MOL   C16632688   0.901   6.301   2.628 -0.3361  0.0191 -0.1646
  102MOL  Cl16732689   1.062   6.285   2.588 -0.4806 -0.0842 -0.1123
  102MOL   C16832690   0.857   6.405   2.706 -0.1518  0.5020 -0.1118
  102MOL   C16932691   0.722   6.411   2.753 -0.2485 -0.2681  0.0955
  102MOL   C17032692   0.385   6.334   2.638 -0.6946  0.2095 -0.3633
  102MOL   H17132693   0.481   6.414   2.823  0.5750 -0.2355  0.3087
  102MOL   H17232694   0.584   6.150   2.594  0.3230  0.1365 -0.2505
  102MOL   H17332695   0.826   6.119   2.527 -0.0457 -0.7459  0.6157
  102MOL   H17432696   0.933   6.472   2.743 -0.7172  0.4976  1.0868
  102MOL   H17532697   0.687   6.483   2.826 -0.9908 -1.2659  0.7499
  102MOL   H17632698   0.432   6.407   2.571 -0.5664 -0.5150 -1.0707
  102MOL   H17732699   0.390   6.233   2.599  1.2888 -0.2640  1.0447
  102MOL   C17832700   0.242   6.380   2.670  0.5219  0.5608 -1.1305
  102MOL   C17932701   0.246   6.512   2.738 -0.5534  0.1778 -0.5611
  102MOL   C18032702   0.161   6.530   2.850  0.8384 -0.0329 -0.1028
  102MOL   C18132703   0.160   6.655   2.915 -0.2205 -0.8357  0.0050
  102MOL   C18232704   0.246   6.757   2.860 -0.1867  0.7765 -0.2438
  102MOL  Cl18332705   0.248   6.911   2.948 -0.2351 -0.0322 -0.3871
  102MOL   C18432706   0.321   6.744   2.741  0.0587 -0.2466  0.1346
  102MOL   C18532707   0.299   6.625   2.670  0.4105 -0.2307  0.2124
  102MOL   C18632708   0.153   6.374   2.551  0.0344 -0.1755  0.0780
  102MOL   H18732709   0.210   6.311   2.748 -0.3674  2.7285  0.4830
  102MOL   H18832710   0.107   6.448   2.895  0.4581  1.3769  2.1176
  102MOL   H18932711   0.099   6.672   3.003 -0.1438 -0.5227 -0.0041
  102MOL   H19032712   0.378   6.830   2.708  0.4730 -0.2991  0.7052
  102MOL   H19132713   0.345   6.618   2.572 -0.6252 -0.8441 -0.2461
  102MOL   H19232714   0.060   6.427   2.574 -0.6808 -1.7278  0.8690
  102MOL   H19332715   0.194   6.420   2.462  0.4236  0.4053  0.5520
  102MOL   C19432716   0.104   6.227   2.507  0.5392 -0.7657 -0.4100
  102MOL   C19532717   0.075   6.139   2.627 -0.4258 -0.1053  0.3263
  102MOL   C19632718   0.174   6.051   2.671 -0.0161 -1.5912  0.2398
  102MOL   C19732719   0.151   5.977   2.785 -0.6356  0.4283 -0.6279
  102MOL   C19832720   0.040   5.997   2.863  0.0045  0.0624 -0.2447
  102MOL  Cl19932721   0.034   5.932   3.020 -0.3054 -0.3231 -0.2541
  102MOL   C20032722   8.383   6.077   2.810 -0.7900 -0.0020 -0.9949
  102MOL   C20132723   8.393   6.148   2.692  0.6451  0.2758  0.1976
  102MOL   C20232724   0.005   6.220   2.393 -0.1224 -0.3043 -0.3944
  102MOL   H20332725   0.197   6.189   2.464  0.2730 -1.5046 -0.3375
  102MOL   H20432726   0.267   6.041   2.617 -0.8348 -0.0469 -1.5584
  102MOL   H20532727   0.240   5.927   2.823 -0.2745  1.3549 -0.2268
  102MOL   H20632728   8.287   6.080   2.860 -1.1901 -0.2236 -1.7309
  102MOL   H20732729   8.305   6.199   2.657  0.8424  0.5073  0.0373
  102MOL   H20832730   8.356   6.268   2.427  0.9736  0.4332  1.6276
  102MOL   H20932731   0.049   6.290   2.322  1.7614 -0.7218  0.3249
  102MOL   C21032732   8.420   6.085   2.336 -0.5382  0.4479 -0.8186
  102MOL   C21132733   8.310   6.008   2.398  0.0745 -0.1382  0.2230
  102MOL   C21232734   8.330   5.866   2.429  0.3378 -0.5746 -0.5245
  102MOL   C21332735   8.228   5.791   2.485  0.1099  0.1890  0.9827
  102MOL   C21432736   8.108   5.855   2.528  0.8586 -0.1051 -0.1152
  102MOL  Cl21532737   7.988   5.773   2.634 -0.0310  0.1029 -0.3448
  102MOL   C21632738   8.081   5.989   2.495  0.0940  0.5494  0.4551
  102MOL   C21732739   8.180   6.066   2.425  0.5321 -0.2738 -0.5202
  102MOL   C21832740   8.420   6.073   2.181 -0.0204 -0.0810 -0.1742
  102MOL   H21932741   0.057   6.024   2.379  0.5943  2.2903 -0.2883
  102MOL   H22032742   8.423   5.815   2.408  1.0108  0.7993 -0.9706
  102MOL   H22132743   8.236   5.685   2.505 -0.2930 -0.2454 -1.0340
  102MOL   H22232744   7.991   6.033   2.537  1.5226  0.8480  3.3500
  102MOL   H22332745   8.147   6.168   2.414 -0.8026 -0.8070 -1.7341
  102MOL   H22432746   8.390   5.972   2.154 -0.9988 -0.2163  1.4084
  102MOL   H22532747   8.341   6.122   2.123 -0.7904 -0.4533  0.5458
  102MOL   C22632748   0.115   6.089   2.113 -0.3384  0.6517 -0.7193
  102MOL   C22732749   0.222   6.003   2.193  0.2290 -0.0948  0.2932
  102MOL   C22832750   0.204   5.862   2.226  0.1253 -0.2938  0.1656
  102MOL   C22932751   0.300   5.790   2.292  0.6486 -0.6919  0.5904
  102MOL   C23032752   0.414   5.861   2.346  0.3077 -0.0052  0.5725
  102MOL  Cl23132753   0.537   5.797   2.447 -0.3841  0.1191 -0.1750
  102MOL   C23232754   0.431   5.999   2.313 -0.2233  0.5240  0.5081
  102MOL   C23332755   0.335   6.068   2.240  0.0178 -0.0581  0.7024
  102MOL   C23432756   0.119   6.051   1.962 -0.3472  0.8136  0.0514
  102MOL   H23532757   0.146   6.192   2.130 -3.0879  1.4241 -0.0158
  102MOL   H23632758   0.121   5.816   2.175 -0.5851  1.5378 -0.3755
  102MOL   H23732759   0.294   5.684   2.309  1.0585 -0.4933  2.0756
  102MOL   H23832760   0.518   6.048   2.352 -0.7213  1.0549  0.9544
  102MOL   H23932761   0.340   6.174   2.223  1.7825 -0.0742  1.0312
  102MOL   H24032762   0.217   6.029   1.921 -0.6421 -3.3228  1.3408
  102MOL   H24132763   0.064   5.959   1.943  0.1239  1.0960 -2.9449
  102MOL   C24232764   0.060   6.158   1.868 -0.2947  0.1687  0.2694
  102MOL   C24332765   0.120   6.299   1.888 -0.3070  0.4608  0.7234
  102MOL   C24432766   0.254   6.344   1.864  0.5107 -0.0083  0.4734
  102MOL   C24532767   0.298   6.470   1.903  0.1479  0.9582 -0.2061
  102MOL   C24632768   0.215   6.545   1.983  1.0490 -0.4511  0.3895
  102MOL  Cl24732769   0.274   6.693   2.033  0.3032  0.3207  0.5356
  102MOL   C24832770   0.081   6.514   2.007  0.0167  0.3718  0.3159
  102MOL   C24932771   0.032   6.386   1.960  0.7512  0.3675  0.0696
  102MOL   C25032772   0.050   6.124   1.721 -0.6852 -0.3761 -0.0606
  102MOL   H25132773   8.404   6.160   1.913 -0.6263 -1.0566 -0.3986
  102MOL   H25232774   0.318   6.275   1.811  3.1617  0.3199  3.1792
  102MOL   H25332775   0.395   6.511   1.880  0.8557 -0.0582  0.8847
  102MOL   H25432776   0.021   6.578   2.070 -0.3190  1.1414 -0.7747
  102MOL   H25532777   8.369   6.372   1.974  1.0547 -2.2926 -0.1508
  102MOL   H25632778   0.152   6.110   1.685 -0.6692 -0.8814  0.1704
  102MOL   H25732779   0.018   6.020   1.715 -0.1005 -0.5146 -0.8621
  102MOL   C25832780   8.414   6.222   1.635 -0.8482 -0.1536 -0.4370
  102MOL   C25932781   0.025   6.233   1.487 -0.3976 -0.2566  0.1848
  102MOL   C26032782   0.061   6.123   1.410  0.4463  0.0118  1.0474
  102MOL   C26132783   0.064   6.131   1.273  0.4284  0.8672  0.2149
  102MOL   C26232784   0.043   6.256   1.205  0.4836 -0.2276 -0.2825
  102MOL  Cl26332785   0.049   6.272   1.033 -0.1726  0.1747  0.0242
  102MOL   C26432786   0.027   6.374   1.283 -0.3187  0.3330 -0.4370
  102MOL   C26532787   0.015   6.360   1.429  0.1655 -0.4458 -0.3961
  102MOL   C26632788   8.268   6.168   1.638 -0.9150 -0.0848  0.3488
  102MOL   H26732789   8.417   6.323   1.675  0.0095 -1.2264  2.3809
  102MOL   H26832790   0.069   6.023   1.449 -0.6251 -0.6417 -0.3206
  102MOL   H26932791   0.083   6.036   1.225  2.1793  1.3891 -0.1651
  102MOL   H27032792   0.021   6.469   1.232  0.1845  0.9500  0.6314
  102MOL   H27132793   0.002   6.448   1.490  0.6262 -0.5540 -0.1406
  102MOL   H27232794   8.270   6.063   1.611 -0.2682 -0.0658  0.3166
  102MOL   H27332795   8.228   6.176   1.739 -1.2270  0.2627  0.1991
  102MOL   C27432796   8.167   6.237   1.534  0.0563 -0.0652  0.2082
  102MOL   C27532797   8.032   6.164   1.524  0.5835  0.3119 -0.4287
  102MOL   C27632798   8.000   6.112   1.398 -0.4226  0.3027  0.3989
  102MOL   C27732799   7.886   6.031   1.383 -0.4015 -0.5488  0.0321
  102MOL   C27832800   7.802   6.009   1.491  0.4114 -0.2301  0.2888
  102MOL  Cl27932801   7.675   5.888   1.484 -0.0112 -0.2593  0.0875
  102MOL   C28032802   7.827   6.072   1.611 -0.0439 -0.4096  0.3541
  102MOL   C28132803   7.954   6.133   1.637 -0.1679 -0.6808 -0.4097
  102MOL   C28232804   8.137   6.379   1.577 -0.0268  0.1860  0.1937
  102MOL   H28332805   8.209   6.230   1.434  3.1802  0.7750  1.4000
  102MOL   H28432806   8.066   6.129   1.315 -0.6315  2.2911  0.6047
  102MOL   H28532807   7.873   5.978   1.291 -3.0331  0.0880 -0.0021
  102MOL   H28632808   7.755   6.055   1.690 -1.3167  1.1186 -0.4319
  102MOL   H28732809   7.979   6.159   1.739 -0.2972 -1.8073 -0.0907
  102MOL   H28832810   8.058   6.376   1.653 -1.3342 -0.2387 -1.1584
  102MOL   H28932811   8.224   6.426   1.622  0.2701 -0.8687  0.7387
  102MOL   C29032812   8.071   6.478   1.473 -0.8156 -1.1646  0.9719
  102MOL   C29132813   8.013   6.604   1.538  0.2989  0.4516  0.4291
  102MOL   C29232814   8.082   6.676   1.638  0.0542 -0.0852  0.3794
  102MOL   C29332815   8.015   6.771   1.715  0.4174  0.3049 -0.4544
  102MOL   C29432816   7.884   6.813   1.682 -0.6046  0.2380  0.0633
  102MOL  Cl29532817   7.812   6.934   1.785  0.2435  0.2036 -0.4208
  102MOL   C29632818   7.827   6.756   1.564 -0.5410 -0.2013  0.3757
  102MOL   C29732819   7.889   6.652   1.491 -0.3653 -0.2703 -0.3866
  102MOL   C29832820   8.155   6.507   1.345 -0.1792 -0.1752  0.6952
  102MOL   H29932821   7.984   6.423   1.438 -3.1914  2.1633  1.3523
  102MOL   H30032822   8.185   6.657   1.665  0.3208  1.1920  0.2729
  102MOL   H30132823   8.062   6.810   1.804 -2.0458 -1.1226  1.5475
  102MOL   H30232824   7.732   6.797   1.533  0.3398  1.3098 -0.4007
  102MOL   H30332825   7.829   6.606   1.415 -1.0846  1.6845 -1.0298
  102MOL   H30432826   8.250   6.545   1.383  0.7065 -1.8309  0.2089
  102MOL   H30532827   8.189   6.410   1.309  1.3540  0.1248  1.3078
  102MOL   C30632828   8.104   6.602   1.232  0.3475 -0.3966 -0.3555
  102MOL   C30732829   8.215   6.639   1.138 -0.3547  0.8345  0.0424
  102MOL   C30832830   8.287   6.543   1.061 -0.2476 -0.1044 -0.4179
  102MOL   C30932831   8.395   6.586   0.980  0.0821 -0.6851 -0.0934
  102MOL   C31032832   8.437   6.720   0.977  0.6914 -0.4884  0.0329
  102MOL  Cl31132833   0.135   6.764   0.886 -0.2902 -0.2929  0.2010
  102MOL   C31232834   8.371   6.814   1.055 -0.3506 -0.4531  0.0372
  102MOL   C31332835   8.259   6.776   1.137  0.6148  0.1653 -0.3415
  102MOL   C31432836   7.980   6.544   1.158  0.7644  0.5474 -0.1392
  102MOL   H31532837   8.067   6.689   1.286 -0.6053 -0.8449 -0.2686
  102MOL   H31632838   8.255   6.440   1.067  0.1813 -0.0826  4.6778
  102MOL   H31732839   0.017   6.519   0.926 -0.1255  0.1500 -1.3939
  102MOL   H31832840   8.398   6.919   1.050  1.1772 -0.7888  0.7151
  102MOL   H31932841   8.210   6.854   1.192  0.0448 -0.3727 -0.0733
  102MOL   H32032842   7.930   6.604   1.083 -1.3252  1.2097  1.7038
  102MOL   H32132843   8.005   6.447   1.116 -0.0785  0.8485 -1.3693
  102MOL   H32232844   7.898   6.530   1.229  0.8587  2.3218  0.3514
  103MOL     C132845   4.085   2.273   5.645 -0.2066 -0.3233  0.1907
  103MOL     C232846   4.076   2.367   5.761  0.4723 -0.3873 -0.2066
  103MOL     C332847   3.999   2.490   5.756 -0.1415 -0.3191 -0.3734
  103MOL     C432848   4.002   2.579   5.870 -0.2358  0.1976  0.2377
  103MOL     C532849   4.062   2.550   5.995 -0.2294  0.0859  0.1390
  103MOL    Cl632850   4.076   2.654   6.135 -0.0246  0.0480  0.0271
  103MOL     C732851   4.137   2.429   6.001 -0.5927 -0.1466  0.0016
  103MOL     C832852   4.146   2.343   5.885  0.0107 -0.3635 -0.4137
  103MOL     C932853   4.223   2.214   5.606 -0.1207 -0.5600  0.2359
  103MOL    H1032854   4.046   2.322   5.556 -2.9099 -1.5157  0.6625
  103MOL    H1132855   3.943   2.524   5.670 -0.4954  0.1238  0.0298
  103MOL    H1232856   3.943   2.669   5.873 -3.5074 -1.8072 -0.8819
  103MOL    H1332857   4.189   2.401   6.091 -2.3751 -0.9326  0.8122
  103MOL    H1432858   4.195   2.246   5.886  0.4526 -0.1241  1.8355
  103MOL    H1532859   4.292   2.299   5.616 -1.6456  0.6837  0.3741
  103MOL    H1632860   4.251   2.136   5.677  0.0359 -1.2543 -0.5815
  103MOL    H1732861   4.011   2.195   5.665  1.6375 -2.6504 -1.7415
  103MOL    C1832862   4.235   2.148   5.466  0.4059 -0.2625 -0.4481
  103MOL    C1932863   4.381   2.133   5.433 -1.0025  0.0986  0.6897
  103MOL    C2032864   4.462   2.061   5.518 -0.1630  0.4251 -0.0863
  103MOL    C2132865   4.595   2.018   5.480 -0.1903  0.5391 -0.2717
  103MOL    C2232866   4.648   2.055   5.355  0.2474 -0.3045 -1.1175
  103MOL   Cl2332867   4.809   2.013   5.320  0.2959  0.2747 -0.1519
  103MOL    C2432868   4.563   2.131   5.269 -0.0975 -0.0659 -0.8680
  103MOL    C2532869   4.433   2.164   5.305  0.2424  0.1820 -0.1066
  103MOL    C2632870   4.155   2.018   5.431  0.3348 -0.6578 -0.3391
  103MOL    H2732871   4.214   2.224   5.391 -1.7957 -0.4224 -0.0252
  103MOL    H2832872   4.415   2.022   5.607  0.5863  0.0271  0.1428
  103MOL    H2932873   4.658   1.965   5.550  0.5436 -0.1429 -1.4311
  103MOL    H3032874   4.602   2.151   5.171 -1.2349  3.8772 -0.5960
  103MOL    H3132875   4.378   2.222   5.232 -0.1847  1.5766  1.2960
  103MOL    H3232876   4.199   1.927   5.471 -0.9905 -1.3288 -0.3772
  103MOL    H3332877   4.057   2.025   5.478  1.0877 -1.7135  1.4143
  103MOL    C3432878   4.126   2.009   5.275  0.3688 -0.5010  0.1028
  103MOL    C3532879   4.153   1.872   5.214 -0.0794  1.2850 -0.6716
  103MOL    C3632880   4.119   1.752   5.285 -0.1534  0.2263 -0.0470
  103MOL    C3732881   4.155   1.625   5.237  0.3470 -0.2672  0.3652
  103MOL    C3832882   4.232   1.617   5.119 -0.1404 -0.5464 -0.2999
  103MOL   Cl3932883   4.273   1.452   5.071  0.0248  0.0021  0.1971
  103MOL    C4032884   4.258   1.732   5.040  0.4172 -0.0675  0.7013
  103MOL    C4132885   4.227   1.862   5.092  0.6334 -0.4478 -0.1446
  103MOL    C4232886   3.980   2.046   5.236  0.0877 -0.8133 -0.1145
  103MOL    H4332887   4.201   2.071   5.225 -0.4271  2.3998  2.4046
  103MOL    H4432888   4.054   1.748   5.372 -1.0443  1.9267 -0.6109
  103MOL    H4532889   4.128   1.542   5.301 -1.1867  0.9258  1.3027
  103MOL    H4632890   4.314   1.739   4.948  1.2855 -0.4015  1.1881
  103MOL    H4732891   4.245   1.955   5.039 -0.6853  0.7205  1.4127
  103MOL    H4832892   3.948   2.019   5.135  1.8162 -2.1962 -0.3330
  103MOL    H4932893   3.913   1.986   5.297  0.9335  0.1535  1.8100
  103MOL    C5032894   3.942   2.204   5.245 -0.2918 -0.3761 -0.2228
  103MOL    C5132895   4.030   2.281   5.147 -1.0127 -0.2897 -1.0062
  103MOL    C5232896   4.039   2.256   5.006 -0.2601 -0.1687 -0.1466
  103MOL    C5332897   4.119   2.338   4.924  0.6390  0.0617 -0.2589
  103MOL    C5432898   4.207   2.426   4.980  0.4090 -0.5085 -0.7262
  103MOL   Cl5532899   4.311   2.508   4.878 -0.0344 -0.0587  0.3441
  103MOL    C5632900   4.203   2.461   5.116 -0.5622  0.3177 -0.1699
  103MOL    C5732901   4.108   2.389   5.200  0.4193  0.4222 -0.4325
  103MOL    C5832902   3.789   2.223   5.213  0.2487 -0.1111 -0.1302
  103MOL    H5932903   3.964   2.244   5.344 -2.7817  0.7159 -0.0618
  103MOL    H6032904   3.995   2.175   4.950  0.2227  0.3222 -1.2681
  103MOL    H6132905   4.124   2.320   4.818 -1.5098  0.2584 -0.4032
  103MOL    H6232906   4.270   2.535   5.156  0.6155  0.1681 -1.8279
  103MOL    H6332907   4.102   2.408   5.306 -1.7322 -2.1055 -0.0570
  103MOL    H6432908   3.762   2.207   5.109  2.9628  0.7385 -1.0215
  103MOL    H6532909   3.731   2.140   5.252 -1.8464  0.8066 -1.2313
  103MOL    C6632910   3.731   2.362   5.268 -0.3825 -0.8299  0.1041
  103MOL    C6732911   3.789   2.482   5.191 -0.8998 -0.5585 -0.0059
  103MOL    C6832912   3.737   2.500   5.055 -0.8068  0.4145  0.4475
  103MOL    C6932913   3.771   2.614   4.978 -0.4277 -0.4000  0.5949
  103MOL    C7032914   3.857   2.716   5.033 -0.0435 -0.0475  0.7737
  103MOL   Cl7132915   3.896   2.856   4.935 -0.2590 -0.5352  0.2621
  103MOL    C7232916   3.905   2.707   5.165 -0.0070  0.0641 -0.4207
  103MOL    C7332917   3.865   2.590   5.246 -0.0751 -0.6537  0.5055
  103MOL    C7432918   3.584   2.374   5.297  0.7830 -0.0655 -0.5396
  103MOL    H7532919   3.773   2.378   5.367  0.4567 -1.8248 -0.0876
  103MOL    H7632920   3.677   2.421   5.014 -1.0291 -0.5895  2.6562
  103MOL    H7732921   3.734   2.614   4.877  1.0970 -0.4564  0.0270
  103MOL    H7832922   3.959   2.785   5.216 -0.6675 -0.7276  1.5667
  103MOL    H7932923   3.889   2.582   5.351 -4.5896 -0.9094  1.5916
  103MOL    H8032924   3.551   2.469   5.339 -0.6621 -1.1854  0.9058
  103MOL    H8132925   3.543   2.363   5.196  0.4299  0.1940 -0.4247
  103MOL    C8232926   3.519   2.264   5.387 -0.3494 -0.4657 -0.4742
  103MOL    C8332927   3.563   2.302   5.533 -0.7854  0.0877  0.4321
  103MOL    C8432928   3.664   2.228   5.596  0.1563  0.0073 -0.1179
  103MOL    C8532929   3.702   2.253   5.731  0.2288  1.2703  0.3065
  103MOL    C8632930   3.642   2.360   5.803  0.5262 -0.0273  0.0509
  103MOL   Cl8732931   3.692   2.399   5.961 -0.3548  0.1052 -0.2443
  103MOL    C8832932   3.544   2.434   5.734  1.2085 -0.4198  0.2509
  103MOL    C8932933   3.510   2.410   5.603 -0.0325 -0.3748 -0.2075
  103MOL    C9032934   3.372   2.249   5.361  0.3081  0.5458 -0.0488
  103MOL    H9132935   3.560   2.166   5.364  1.8601  0.1266  0.7509
  103MOL    H9232936   3.711   2.151   5.537  0.1767 -0.5215  0.5712
  103MOL    H9332937   3.771   2.183   5.776  2.5606  2.1730 -1.7493
  103MOL    H9432938   3.507   2.517   5.792  0.4398  0.0355 -0.8588
  103MOL    H9532939   3.447   2.477   5.548 -1.4780 -1.5104  0.0390
  103MOL    H9632940   3.330   2.349   5.371 -0.3202  0.2024  0.7570
  103MOL    H9732941   3.354   2.240   5.254  0.4023 -0.4166  0.0159
  103MOL    C9832942   3.300   2.142   5.450 -0.6551 -0.3038 -0.3772
  103MOL    C9932943   3.174   2.195   5.524  0.5059 -0.6901 -0.0649
  103MOL   C10032944   3.073   2.268   5.454 -0.7139  0.4719  0.1440
  103MOL   C10132945   2.973   2.334   5.533  0.0133  0.8485 -0.3279
  103MOL   C10232946   2.968   2.313   5.670  0.5140 -0.0873  0.1475
  103MOL  Cl10332947   2.847   2.380   5.768 -0.0243 -0.4177  0.5567
  103MOL   C10432948   3.066   2.234   5.736  0.1449 -0.7433 -0.1091
  103MOL   C10532949   3.165   2.173   5.659 -0.7983  0.2139  0.0668
  103MOL   C10632950   3.260   2.002   5.395  0.1830  0.4278  0.0262
  103MOL   H10732951   3.367   2.122   5.534 -0.9030  2.7281  0.5955
  103MOL   H10832952   3.078   2.268   5.346 -4.7299 -0.7049 -0.1272
  103MOL   H10932953   2.911   2.403   5.478  0.7830  0.9547 -1.0730
  103MOL   H11032954   3.064   2.209   5.841  3.3861  0.4780  0.2973
  103MOL   H11132955   3.240   2.109   5.704 -0.5613  0.2432 -0.2841
  103MOL   H11232956   3.197   1.951   5.469  1.8744 -0.8041  0.6697
  103MOL   H11332957   3.191   2.022   5.313 -0.1357  0.3534  0.2768
  103MOL   C11432958   3.388   1.922   5.349  0.6846 -0.0534 -0.0413
  103MOL   C11532959   3.491   1.905   5.464  0.2668 -0.0758  0.4788
  103MOL   C11632960   3.448   1.887   5.604  0.2598 -0.6965 -0.0695
  103MOL   C11732961   3.548   1.868   5.699  0.0026  0.0472  0.1154
  103MOL   C11832962   3.685   1.863   5.662  0.9153  0.1822 -0.1025
  103MOL  Cl11932963   3.796   1.838   5.795  0.1027 -0.1327 -0.0584
  103MOL   C12032964   3.727   1.885   5.528  0.0535 -0.0602 -0.1720
  103MOL   C12132965   3.624   1.909   5.429 -0.1443 -0.0437 -0.3353
  103MOL   C12232966   3.352   1.787   5.285 -0.6992  0.0543 -0.0881
  103MOL   H12332967   3.415   1.986   5.265  0.2512  0.1011 -0.0630
  103MOL   H12432968   3.344   1.900   5.630  0.8210 -1.1068  2.4794
  103MOL   H12532969   3.525   1.852   5.804  1.5760  1.1807  0.6323
  103MOL   H12632970   3.831   1.868   5.501 -0.2495 -4.4160  1.0865
  103MOL   H12732971   3.660   1.918   5.328  0.3084 -0.4247 -0.2085
  103MOL   H12832972   3.335   1.710   5.359 -0.1786  0.0415  0.0183
  103MOL   H12932973   3.253   1.796   5.240 -0.6684  1.9019  0.1615
  103MOL   C13032974   3.447   1.750   5.165  0.0220 -0.1361  0.2144
  103MOL   C13132975   3.552   1.642   5.192 -0.2053  0.1001  0.0563
  103MOL   C13232976   3.518   1.509   5.218 -0.3116  0.1126  0.8026
  103MOL   C13332977   3.617   1.409   5.247  0.2996  0.2672  0.2261
  103MOL   C13432978   3.753   1.443   5.249  0.3821  0.3496  0.9313
  103MOL  Cl13532979   3.874   1.323   5.278  0.4315 -0.0493 -0.1402
  103MOL   C13632980   3.788   1.577   5.214 -0.4216  0.0204  0.5831
  103MOL   C13732981   3.691   1.671   5.181 -0.3730 -1.0641  0.6364
  103MOL   C13832982   3.383   1.717   5.033 -0.2513  0.2515 -0.7883
  103MOL   H13932983   3.516   1.834   5.154  1.0758 -0.7640  1.8579
  103MOL   H14032984   3.413   1.485   5.214  0.0296 -1.1913 -0.5506
  103MOL   H14132985   3.589   1.306   5.265 -0.3440  0.4445  0.2689
  103MOL   H14232986   3.894   1.601   5.212 -0.3405 -0.3674  0.1817
  103MOL   H14332987   3.726   1.766   5.142 -0.1305 -0.7923  1.5141
  103MOL   H14432988   3.455   1.663   4.971 -0.3768  1.0239 -1.6142
  103MOL   H14532989   3.307   1.642   5.057  0.4619 -0.5754 -1.0593
  103MOL   C14632990   3.327   1.842   4.958  0.3583 -0.4739 -0.2594
  103MOL   C14732991   3.438   1.934   4.912  0.4470 -0.0611  0.0565
  103MOL   C14832992   3.555   1.889   4.840  0.8345  0.2438 -0.6442
  103MOL   C14932993   3.651   1.987   4.793  0.1696  1.2470  0.3332
  103MOL   C15032994   3.647   2.124   4.822  0.5742  0.0630  0.0137
  103MOL  Cl15132995   3.773   2.235   4.777 -0.1963 -0.7405  0.0056
  103MOL   C15232996   3.530   2.165   4.886 -0.0690  0.4295 -0.5242
  103MOL   C15332997   3.426   2.073   4.929 -0.2764 -0.9918  0.1937
  103MOL   C15432998   3.227   1.803   4.841  0.5302 -0.1678  0.2197
  103MOL   H15532999   3.271   1.897   5.033  0.6589 -4.6787  3.3019
  103MOL   H15633000   3.559   1.784   4.816 -0.8037  0.0695 -0.2216
  103MOL   H15733001   3.735   1.938   4.746 -1.1731 -1.9485  1.1707
  103MOL   H15833002   3.518   2.272   4.899 -2.3222  0.1898 -0.5088
  103MOL   H15933003   3.331   2.112   4.960 -0.5451 -1.3995 -0.1102
  103MOL   H16033004   3.214   1.871   4.757  0.3963 -0.2344  0.1858
  103MOL   H16133005   3.259   1.720   4.779  0.7670  1.3566 -1.7666
  103MOL   C16233006   3.085   1.786   4.892 -0.7793 -0.2327 -0.2753
  103MOL   C16333007   3.033   1.913   4.972  0.1534 -0.0327 -0.5991
  103MOL   C16433008   2.965   1.904   5.097 -0.2077 -0.5443  0.9497
  103MOL   C16533009   2.903   2.023   5.152  0.5332  0.1896 -0.4251
  103MOL   C16633010   2.919   2.152   5.091 -0.0009 -0.6971 -0.2422
  103MOL  Cl16733011   2.867   2.300   5.171  0.3191 -0.3012  0.2764
  103MOL   C16833012   2.987   2.157   4.967  0.8421 -0.0663 -0.0957
  103MOL   C16933013   3.042   2.041   4.916  0.0166  0.8356  0.4835
  103MOL   C17033014   2.987   1.749   4.776  0.0018  0.4701  0.5363
  103MOL   H17133015   3.089   1.698   4.957  1.1644  1.2668  1.7347
  103MOL   H17233016   2.947   1.811   5.149  0.6945  0.9942  4.1930
  103MOL   H17333017   2.855   2.015   5.248  1.7561 -2.4883 -0.0064
  103MOL   H17433018   3.010   2.248   4.914  1.1828 -0.5967 -0.8699
  103MOL   H17533019   3.095   2.045   4.822 -0.8712 -0.4438 -0.0968
  103MOL   H17633020   2.890   1.731   4.824 -0.0212 -0.0159  0.3107
  103MOL   H17733021   2.971   1.827   4.703  1.8593  1.4935  1.1990
  103MOL   C17833022   3.007   1.625   4.681  0.1963  0.1581 -0.4443
  103MOL   C17933023   3.039   1.494   4.760  0.0110  1.0098 -0.7664
  103MOL   C18033024   2.934   1.432   4.837 -0.1484 -0.0680 -0.3388
  103MOL   C18133025   2.954   1.309   4.886 -0.8064 -0.7203  0.0807
  103MOL   C18233026   3.078   1.244   4.877  0.5598  0.0301 -0.4581
  103MOL  Cl18333027   3.099   1.091   4.950  0.1693 -0.1856 -0.5514
  103MOL   C18433028   3.187   1.308   4.814 -0.2316 -0.4822 -0.3324
  103MOL   C18533029   3.161   1.431   4.748 -0.7685  0.4710  0.3148
  103MOL   C18633030   2.899   1.600   4.575  0.0301 -0.0540 -0.1064
  103MOL   H18733031   3.095   1.636   4.618 -1.1442 -1.6203 -2.7073
  103MOL   H18833032   2.841   1.481   4.858  1.9455  3.0956  2.1034
  103MOL   H18933033   2.866   1.266   4.932 -0.0197 -2.0458  0.3896
  103MOL   H19033034   3.282   1.258   4.806 -0.4470 -1.1835  1.3713
  103MOL   H19133035   3.236   1.480   4.689  0.1375 -1.0149  0.1997
  103MOL   H19233036   2.930   1.510   4.522  1.4122 -0.8076  1.8903
  103MOL   H19333037   2.810   1.575   4.633 -1.3513  1.3177 -1.5993
  103MOL   C19433038   2.845   1.719   4.491 -0.4538 -0.4097 -0.5239
  103MOL   C19533039   2.951   1.777   4.397  0.0908 -0.2627 -0.0918
  103MOL   C19633040   2.970   1.918   4.380  0.3101  1.4224 -0.7730
  103MOL   C19733041   3.067   1.974   4.301 -0.3956  0.0064  0.2210
  103MOL   C19833042   3.161   1.895   4.244  0.0467  0.7433 -0.1087
  103MOL  Cl19933043   3.278   1.972   4.147 -0.6184  0.4337  0.0958
  103MOL   C20033044   3.153   1.757   4.251 -0.0032  0.6711  0.3868
  103MOL   C20133045   3.046   1.697   4.324  0.4913 -0.3490 -0.0044
  103MOL   C20233046   2.726   1.669   4.406  0.6925 -0.2868  0.9464
  103MOL   H20333047   2.806   1.807   4.543  1.5230 -0.8019  1.6960
  103MOL   H20433048   2.909   1.986   4.439  1.9843  1.8351  0.5312
  103MOL   H20533049   3.065   2.081   4.285 -0.1508 -0.0350 -0.0886
  103MOL   H20633050   3.223   1.695   4.198 -0.0446  3.1921 -2.7993
  103MOL   H20733051   3.031   1.591   4.324  0.6427 -0.3997  2.2372
  103MOL   H20833052   2.709   1.745   4.330  0.8422 -1.7052 -0.5341
  103MOL   H20933053   2.761   1.575   4.364  3.3454  1.3093 -0.5142
  103MOL   C21033054   2.594   1.640   4.473  0.5187  0.5301 -0.2479
  103MOL   C21133055   2.542   1.774   4.527  0.3862  0.3122  0.0012
  103MOL   C21233056   2.527   1.889   4.447 -0.9241  0.3356  0.2001
  103MOL   C21333057   2.494   2.012   4.508  1.1984 -0.3795 -0.1787
  103MOL   C21433058   2.476   2.020   4.652 -1.1386 -0.9322 -0.5846
  103MOL  Cl21533059   2.432   2.171   4.715 -0.5062  0.1118 -0.2900
  103MOL   C21633060   2.495   1.904   4.728 -0.5879 -0.7389 -0.0645
  103MOL   C21733061   2.535   1.787   4.669  0.2604 -1.1958  0.2595
  103MOL   C21833062   2.493   1.574   4.381  0.0646 -0.3224  0.2253
  103MOL   H21933063   2.609   1.583   4.565  0.6801  0.3968 -0.3568
  103MOL   H22033064   2.540   1.892   4.340 -3.5445  4.2034 -0.1057
  103MOL   H22133065   2.483   2.096   4.442 -1.3177 -0.2521  0.3617
  103MOL   H22233066   2.491   1.914   4.835  2.6166  3.4593 -0.1936
  103MOL   H22333067   2.555   1.704   4.736  0.3004 -1.8649 -0.5696
  103MOL   H22433068   2.394   1.579   4.427  0.3588 -0.1616  0.8475
  103MOL   H22533069   2.479   1.631   4.289 -2.1986  0.4430  1.0041
  103MOL   C22633070   2.519   1.426   4.349  0.5461  0.0169 -0.4424
  103MOL   C22733071   2.519   1.336   4.473  0.2873  0.3474 -0.8294
  103MOL   C22833072   2.411   1.264   4.523 -0.0355 -0.0525  0.6753
  103MOL   C22933073   2.432   1.171   4.621  0.0843 -0.7162  0.4478
  103MOL   C23033074   2.558   1.154   4.682  0.5457  0.1391 -0.5105
  103MOL  Cl23133075   2.579   1.037   4.803  0.6881 -0.2308  0.0212
  103MOL   C23233076   2.666   1.240   4.650 -0.0542  0.2525 -0.6320
  103MOL   C23333077   2.645   1.329   4.536  0.7392 -0.0820 -0.2551
  103MOL   C23433078   2.421   1.385   4.231  0.4595 -0.0498  0.2222
  103MOL   H23533079   2.616   1.428   4.301  0.6178 -0.2624 -0.3090
  103MOL   H23633080   2.313   1.287   4.483  1.3033  1.0402 -2.1368
  103MOL   H23733081   2.346   1.119   4.659 -0.9968  1.6474  1.3122
  103MOL   H23833082   2.767   1.212   4.674  0.1548  0.9447 -0.7012
  103MOL   H23933083   2.724   1.392   4.498  1.5112 -0.1771  1.1985
  103MOL   H24033084   2.421   1.278   4.209 -1.1852 -0.0977  0.3589
  103MOL   H24133085   2.316   1.409   4.251  0.2915  0.6105 -1.4297
  103MOL   C24233086   2.448   1.445   4.082  0.3441  0.5162  0.2301
  103MOL   C24333087   2.587   1.399   4.031 -0.8342  0.1456 -0.3812
  103MOL   C24433088   2.606   1.273   3.971  0.2874  0.2604 -0.3834
  103MOL   C24533089   2.735   1.228   3.936 -0.4518 -0.2558  0.0148
  103MOL   C24633090   2.843   1.313   3.966  0.0608 -0.6020 -0.1036
  103MOL  Cl24733091   3.002   1.276   3.907  0.2411 -0.0086  0.1322
  103MOL   C24833092   2.825   1.435   4.024 -0.3742 -0.0296 -0.0219
  103MOL   C24933093   2.700   1.481   4.063  0.9383  0.5971 -1.6215
  103MOL   C25033094   2.338   1.389   3.982 -0.3716  0.2893  0.0003
  103MOL   H25133095   2.441   1.554   4.073  0.8027  0.5097 -0.1973
  103MOL   H25233096   2.520   1.210   3.952  1.3382 -0.9140 -1.3560
  103MOL   H25333097   2.757   1.136   3.885 -1.4032  0.2164 -1.2820
  103MOL   H25433098   2.910   1.500   4.035  1.0664 -2.2570  2.7702
  103MOL   H25533099   2.692   1.583   4.097  1.6789 -1.4081  5.1884
  103MOL   H25633100   2.385   1.425   3.890 -0.7392  0.5990 -0.0700
  103MOL   H25733101   2.332   1.281   3.990  1.0420  0.2010  0.0058
  103MOL   C25833102   2.195   1.442   3.983  0.3682  0.4271 -0.6786
  103MOL   C25933103   2.191   1.592   3.949 -0.0647 -0.1195  0.5659
  103MOL   C26033104   2.228   1.632   3.820 -0.2801 -0.1946 -0.1530
  103MOL   C26133105   2.234   1.767   3.786  0.6374 -0.2594 -0.6103
  103MOL   C26233106   2.181   1.864   3.869  0.3961 -0.0123 -0.8870
  103MOL  Cl26333107   2.185   2.028   3.823 -0.1132 -0.4468 -0.0277
  103MOL   C26433108   2.131   1.831   3.994 -0.4949  0.7285 -0.1805
  103MOL   C26533109   2.138   1.693   4.031  0.3974 -0.0049  0.7639
  103MOL   C26633110   2.100   1.358   3.892 -0.4226  0.6062 -0.1080
  103MOL   H26733111   2.151   1.447   4.083  0.5070  2.1306 -0.6949
  103MOL   H26833112   2.267   1.551   3.759  2.4044 -0.4429  1.8450
  103MOL   H26933113   2.271   1.797   3.689  2.2569  1.4483  0.4948
  103MOL   H27033114   2.081   1.902   4.058  0.3575  3.0152 -2.0206
  103MOL   H27133115   2.104   1.662   4.129 -0.0284  0.7360  0.8508
  103MOL   H27233116   2.095   1.409   3.796 -1.2169  2.2162  0.7570
  103MOL   H27333117   2.145   1.264   3.861 -0.7223  0.1029  0.9392
  103MOL   C27433118   1.950   1.350   3.931  0.4907  0.4870  0.1105
  103MOL   C27533119   1.880   1.306   3.801  0.0296 -0.1819  0.1142
  103MOL   C27633120   1.924   1.199   3.721  0.1973  0.2567  0.0516
  103MOL   C27733121   1.858   1.164   3.599  0.4336 -0.4550 -0.7837
  103MOL   C27833122   1.746   1.243   3.558  0.2677  0.2453 -1.0722
  103MOL  Cl27933123   1.686   1.224   3.400  0.1629  0.2507 -0.2771
  103MOL   C28033124   1.698   1.343   3.641 -0.6850 -0.2565 -0.7196
  103MOL   C28133125   1.757   1.366   3.765  0.2581 -0.5626 -0.5091
  103MOL   C28233126   1.925   1.244   4.035 -0.1966  0.2179  1.0010
  103MOL   H28333127   1.920   1.449   3.964 -1.8757  0.5579 -2.1188
  103MOL   H28433128   2.005   1.138   3.757 -0.4225 -1.8183 -2.0104
  103MOL   H28533129   1.903   1.084   3.542  0.0902  1.1149 -3.3596
  103MOL   H28633130   1.616   1.406   3.608 -0.1080 -0.7605 -3.2802
  103MOL   H28733131   1.709   1.445   3.820 -1.3840 -3.3044  2.1545
  103MOL   H28833132   1.818   1.229   4.029 -0.0804  0.3594 -2.0925
  103MOL   H28933133   1.962   1.146   4.008 -0.0277  0.8867 -1.2623
  103MOL   C29033134   1.972   1.276   4.185 -0.5325 -0.2493  0.0448
  103MOL   C29133135   1.945   1.410   4.249  0.5259  0.0940 -0.2023
  103MOL   C29233136   2.042   1.463   4.337  0.3456  1.0475  0.6240
  103MOL   C29333137   2.018   1.586   4.400  0.0816 -0.3722  0.5947
  103MOL   C29433138   1.903   1.656   4.383 -0.0396 -0.0815 -0.2401
  103MOL  Cl29533139   1.875   1.803   4.473 -0.1731 -0.1285 -0.2664
  103MOL   C29633140   1.808   1.603   4.292 -0.2675  0.2292 -0.3271
  103MOL   C29733141   1.828   1.482   4.229 -0.3482 -0.3126  0.1391
  103MOL   C29833142   1.938   1.162   4.284 -0.1731  0.8913 -0.5549
  103MOL   H29933143   2.080   1.274   4.194 -0.5548  0.4631  0.4747
  103MOL   H30033144   2.131   1.403   4.350 -0.5487 -0.7035 -1.0125
  103MOL   H30133145   2.087   1.626   4.474 -1.0680  0.8227  1.0550
  103MOL   H30233146   1.732   1.670   4.254 -0.8961 -1.8228 -2.7722
  103MOL   H30333147   1.750   1.452   4.160  0.7072  1.7028 -1.9960
  103MOL   H30433148   1.991   1.182   4.377 -1.0679  0.1083  0.1318
  103MOL   H30533149   1.834   1.178   4.311 -0.9606 -3.1443 -0.7962
  103MOL   C30633150   1.951   1.011   4.234 -0.4978  0.5936  0.0101
  103MOL   C30733151   2.092   0.984   4.179 -0.4010  0.1179 -0.4153
  103MOL   C30833152   2.114   0.917   4.053 -0.4987 -0.6047 -0.4369
  103MOL   C30933153   2.245   0.886   4.015 -0.0272  0.0347  0.2079
  103MOL   C31033154   2.350   0.926   4.095  0.0655 -0.8135  0.3306
  103MOL  Cl31133155   2.508   0.889   4.028 -0.1942  0.0253  0.8321
  103MOL   C31233156   2.333   0.992   4.216  0.4505 -0.3811 -0.3389
  103MOL   C31333157   2.207   1.017   4.263  0.5028  0.5547  0.1147
  103MOL   C31433158   1.918   0.919   4.350 -0.6168  0.2010  0.2409
  103MOL   H31533159   1.880   0.991   4.154 -1.5040  0.6062  0.8790
  103MOL   H31633160   2.027   0.897   3.991 -0.7463 -2.3549  0.4452
  103MOL   H31733161   2.260   0.846   3.916  2.0890 -0.4107  0.7031
  103MOL   H31833162   2.423   1.017   4.270  0.9358  2.7874 -2.4880
  103MOL   H31933163   2.191   1.039   4.367 -0.0931  0.5408  0.0306
  103MOL   H32033164   1.949   0.819   4.321  0.7563  0.4407  0.8550
  103MOL   H32133165   1.974   0.938   4.442  0.9871  0.2104 -0.7203
  103MOL   H32233166   1.813   0.926   4.379 -0.6264  1.4869 -0.0869
  104MOL     C133167   0.201   3.393   5.163 -0.4576  0.0249 -0.9283
  104MOL     C233168   0.090   3.323   5.242 -1.0143 -0.3136  0.3160
  104MOL     C333169   0.015   3.387   5.340 -0.5887 -1.3028 -0.4756
  104MOL     C433170   8.374   3.323   5.424 -0.3204  0.0489  0.2156
  104MOL     C533171   8.354   3.185   5.407  0.4678  0.1650  0.5758
  104MOL    Cl633172   8.248   3.090   5.500  0.1588  0.0091  0.0391
  104MOL     C733173   8.429   3.116   5.306 -0.6577 -0.8744 -0.1947
  104MOL     C833174   0.076   3.184   5.224 -0.4238  0.8891 -0.9724
  104MOL     C933175   0.232   3.536   5.207  0.1810 -0.5993  0.1461
  104MOL    H1033176   0.191   3.395   5.055  0.3779  0.5120 -1.0011
  104MOL    H1133177   0.021   3.492   5.363  3.4420 -1.3080 -1.1247
  104MOL    H1233178   8.305   3.367   5.495 -1.4001 -0.2811 -0.6202
  104MOL    H1333179   8.407   3.011   5.297 -0.5459 -0.7934 -1.4007
  104MOL    H1433180   0.123   3.120   5.151  1.1629  0.1944  0.6219
  104MOL    H1533181   0.156   3.610   5.180  1.0763  0.6693  1.0259
  104MOL    H1633182   0.231   3.541   5.316 -0.1610  1.6307  0.0652
  104MOL    H1733183   0.296   3.343   5.183  0.0073  1.4929  0.7974
  104MOL    C1833184   0.367   3.590   5.154  0.5683  0.1475 -0.9441
  104MOL    C1933185   0.363   3.646   5.013 -0.1640 -0.3915 -0.0133
  104MOL    C2033186   0.279   3.749   4.978  0.2934  0.7104 -0.8322
  104MOL    C2133187   0.266   3.795   4.846  0.0649 -0.7405 -0.6569
  104MOL    C2233188   0.359   3.753   4.749 -0.7129  0.8546 -0.5095
  104MOL   Cl2333189   0.360   3.826   4.592  0.5020  0.3837 -0.2289
  104MOL    C2433190   0.448   3.646   4.779 -0.4237 -0.3663  0.6888
  104MOL    C2533191   0.448   3.601   4.915 -0.1787 -0.5046  0.2437
  104MOL    C2633192   0.418   3.707   5.242  0.3686  0.3672  0.6495
  104MOL    H2733193   0.443   3.512   5.146  0.2762 -0.1279 -1.0205
  104MOL    H2833194   0.219   3.798   5.054 -0.1946  1.5330 -1.7344
  104MOL    H2933195   0.185   3.859   4.816  0.1770 -1.1824 -1.9427
  104MOL    H3033196   0.516   3.607   4.705 -1.4897 -1.1048  0.0844
  104MOL    H3133197   0.515   3.519   4.933  0.3497 -0.7124 -2.5075
  104MOL    H3233198   0.353   3.791   5.217 -1.2054 -0.7366  0.9247
  104MOL    H3333199   0.383   3.691   5.344  0.7776  0.1999  0.7635
  104MOL    C3433200   0.563   3.736   5.247 -0.1520 -0.7728  0.3031
  104MOL    C3533201   0.611   3.884   5.263  0.2174 -0.2936  0.7072
  104MOL    C3633202   0.531   3.978   5.328 -0.1737 -0.4615 -0.7158
  104MOL    C3733203   0.570   4.107   5.347 -0.0443  0.7120  0.3490
  104MOL    C3833204   0.699   4.149   5.305 -0.4330  0.3907 -1.0492
  104MOL   Cl3933205   0.736   4.310   5.325 -0.1352 -0.0263  0.2693
  104MOL    C4033206   0.782   4.061   5.236 -0.2127  0.1566 -0.3108
  104MOL    C4133207   0.740   3.929   5.216 -0.1888  0.3948  0.3486
  104MOL    C4233208   0.635   3.644   5.345 -0.7750  0.0196  0.1049
  104MOL    H4333209   0.607   3.707   5.152 -0.4031 -0.3130  0.0465
  104MOL    H4433210   0.438   3.956   5.378  0.6645  0.7509  1.4574
  104MOL    H4533211   0.503   4.173   5.399 -0.6737 -0.8353  1.5362
  104MOL    H4633212   0.879   4.078   5.194 -0.7876 -0.1859 -1.7850
  104MOL    H4733213   0.812   3.866   5.166  1.0503  1.5379  0.6637
  104MOL    H4833214   0.621   3.541   5.314 -2.1598  0.1793  0.1638
  104MOL    H4933215   0.737   3.649   5.308 -1.7823 -1.9074 -3.0274
  104MOL    C5033216   0.617   3.681   5.496  0.0466  0.0008  0.0435
  104MOL    C5133217   0.497   3.609   5.557 -0.3348 -0.4520 -0.5552
  104MOL    C5233218   0.406   3.672   5.639  0.1337  0.8178  0.3595
  104MOL    C5333219   0.305   3.597   5.699  0.4429  0.4834 -0.1864
  104MOL    C5433220   0.278   3.458   5.664  0.8959 -0.1222 -0.4167
  104MOL   Cl5533221   0.144   3.368   5.728 -0.1626 -0.2308  0.0789
  104MOL    C5633222   0.373   3.400   5.582 -0.4044  0.1603 -0.1802
  104MOL    C5733223   0.481   3.472   5.535  0.0674 -0.3143  0.7649
  104MOL    C5833224   0.742   3.665   5.583  0.7635  0.2706 -0.1290
  104MOL    H5933225   0.593   3.787   5.498  2.9396  0.7008  3.2805
  104MOL    H6033226   0.419   3.777   5.658  0.4400  1.3194 -2.4590
  104MOL    H6133227   0.247   3.646   5.776  1.0364  1.1390 -0.1548
  104MOL    H6233228   0.376   3.293   5.575  1.8007  0.2467 -1.0134
  104MOL    H6333229   0.556   3.419   5.479  0.4093  1.9006 -0.9475
  104MOL    H6433230   0.706   3.649   5.684 -0.0270 -1.8512 -0.7018
  104MOL    H6533231   0.793   3.568   5.582 -0.0318 -0.1989  2.2040
  104MOL    C6633232   0.844   3.784   5.592 -0.1606  0.2680  0.1750
  104MOL    C6733233   0.914   3.780   5.734  0.0284 -0.0857  0.3970
  104MOL    C6833234   0.935   3.667   5.813  0.1721 -0.0051 -0.2289
  104MOL    C6933235   1.024   3.669   5.925  0.2738  0.4111  0.7445
  104MOL    C7033236   1.088   3.788   5.959  0.0667 -0.6413  0.3996
  104MOL   Cl7133237   1.206   3.791   6.091  0.1743 -0.0904 -0.1410
  104MOL    C7233238   1.070   3.903   5.876 -0.1316  0.2657 -0.1901
  104MOL    C7333239   0.984   3.901   5.764  0.6675 -0.2643  0.9098
  104MOL    C7433240   0.946   3.797   5.473  0.1376 -0.6326 -0.0111
  104MOL    H7533241   0.778   3.871   5.585 -0.3814  0.0361 -0.7020
  104MOL    H7633242   0.875   3.578   5.797  0.6210 -0.2165 -0.7662
  104MOL    H7733243   1.040   3.575   5.976  0.8007  0.5224  0.7863
  104MOL    H7833244   1.101   4.002   5.907  2.2660  0.2787 -2.4263
  104MOL    H7933245   0.964   3.988   5.703  2.0048 -1.8868 -1.9451
  104MOL    H8033246   0.883   3.813   5.385 -0.0739  1.0100  0.4174
  104MOL    H8133247   1.006   3.886   5.488 -3.5279  2.2383 -1.5253
  104MOL    C8233248   1.049   3.689   5.456 -0.2097 -0.3529 -0.1301
  104MOL    C8333249   1.063   3.627   5.316 -0.6904  0.4200  0.1449
  104MOL    C8433250   1.056   3.710   5.205 -0.0516 -0.0643 -0.1156
  104MOL    C8533251   1.077   3.660   5.073  0.0521  0.5240 -0.2225
  104MOL    C8633252   1.098   3.521   5.051  0.2032  0.2635  1.1526
  104MOL   Cl8733253   1.118   3.467   4.892 -0.2284  0.0844  0.4771
  104MOL    C8833254   1.099   3.433   5.159 -0.4699  0.1120  0.2075
  104MOL    C8933255   1.074   3.483   5.293 -0.3232  0.0234  1.1944
  104MOL    C9033256   1.188   3.700   5.526 -0.4743  0.1350 -0.3194
  104MOL    H9133257   1.002   3.607   5.509 -0.0417  1.6924  3.3328
  104MOL    H9233258   1.046   3.813   5.237 -1.0732 -0.9185  2.3880
  104MOL    H9333259   1.091   3.723   4.986 -0.5740 -1.2916 -1.6839
  104MOL    H9433260   1.129   3.331   5.140  1.4073  0.6101  0.3173
  104MOL    H9533261   1.079   3.418   5.380  0.7708 -2.0069 -0.3361
  104MOL    H9633262   1.158   3.724   5.628  2.9534  0.0600  0.7705
  104MOL    H9733263   1.226   3.598   5.522 -0.6178 -0.0042  1.6970
  104MOL    C9833264   1.283   3.807   5.467  0.8271  0.3148 -1.0913
  104MOL    C9933265   1.329   3.898   5.573 -0.0521  0.4922  0.4086
  104MOL   C10033266   1.299   4.029   5.551  0.6121 -0.0676  0.5954
  104MOL   C10133267   1.350   4.129   5.637  0.0327 -0.2628  0.0061
  104MOL   C10233268   1.427   4.093   5.750  0.2951 -0.0155 -1.2424
  104MOL  Cl10333269   1.498   4.197   5.872  0.1530 -0.2505  0.0489
  104MOL   C10433270   1.457   3.957   5.775 -0.1082  0.2572  0.3262
  104MOL   C10533271   1.399   3.859   5.687 -0.7258 -0.4489  0.3864
  104MOL   C10633272   1.395   3.744   5.382  0.3658 -0.3503  0.4215
  104MOL   H10733273   1.212   3.861   5.404  1.0207  1.1533 -0.5943
  104MOL   H10833274   1.243   4.059   5.464 -0.4635 -0.8979  0.9910
  104MOL   H10933275   1.329   4.233   5.615 -1.4941 -0.6367 -0.3397
  104MOL   H11033276   1.513   3.926   5.862 -0.8332 -0.7589  0.4417
  104MOL   H11133277   1.407   3.752   5.700  1.1598 -0.4472 -0.5665
  104MOL   H11233278   1.464   3.696   5.452  0.7590 -0.9051 -0.3379
  104MOL   H11333279   1.345   3.670   5.320  1.4220 -0.4308 -0.3607
  104MOL   C11433280   1.471   3.850   5.293 -0.6261 -0.1538 -0.3727
  104MOL   C11533281   1.609   3.792   5.257  0.0987 -0.3455 -0.2141
  104MOL   C11633282   1.616   3.665   5.199  0.3458  0.3533 -0.4873
  104MOL   C11733283   1.740   3.615   5.157 -0.7944  0.1838  0.2119
  104MOL   C11833284   1.859   3.693   5.178  0.0773 -0.0637 -0.1150
  104MOL  Cl11933285   2.006   3.637   5.105 -0.2917  0.1694 -0.0586
  104MOL   C12033286   1.852   3.819   5.243 -1.1096  0.2049 -0.2516
  104MOL   C12133287   1.725   3.870   5.279 -0.1032  0.4230  0.0725
  104MOL   C12233288   1.381   3.887   5.171  0.5276 -0.2861  0.1453
  104MOL   H12333289   1.472   3.941   5.354 -2.2192 -0.4382  0.1039
  104MOL   H12433290   1.528   3.608   5.174  0.6680 -0.1951 -0.3860
  104MOL   H12533291   1.740   3.516   5.115 -0.5896  0.4993 -0.5376
  104MOL   H12633292   1.943   3.875   5.259 -1.2191  0.7970 -1.5744
  104MOL   H12733293   1.734   3.965   5.330  0.3569  0.2614  0.2953
  104MOL   H12833294   1.387   3.810   5.094  2.4398 -0.2410  0.2084
  104MOL   H12933295   1.279   3.909   5.201  1.0805  0.5522  1.4763
  104MOL   C13033296   1.416   4.016   5.096 -0.6399 -0.1758 -0.0871
  104MOL   C13133297   1.563   4.019   5.047  0.1905  0.5919  0.1177
  104MOL   C13233298   1.614   3.926   4.957 -0.6472 -0.5154 -0.5763
  104MOL   C13333299   1.750   3.928   4.918  0.0869  0.1330  0.6187
  104MOL   C13433300   1.830   4.040   4.955  0.3049  0.2086 -0.0960
  104MOL  Cl13533301   1.994   4.044   4.903  0.0962  0.0137 -0.3436
  104MOL   C13633302   1.775   4.143   5.029  0.4541  0.1125 -0.1550
  104MOL   C13733303   1.639   4.133   5.071 -0.4951  0.0727  1.5884
  104MOL   C13833304   1.309   4.051   4.981 -0.0630 -0.2775 -0.0707
  104MOL   H13933305   1.403   4.090   5.174 -1.9268  2.7594 -2.9377
  104MOL   H14033306   1.551   3.848   4.917 -0.9157  0.3878 -1.9388
  104MOL   H14133307   1.786   3.851   4.851 -2.2224  0.1156 -0.6736
  104MOL   H14233308   1.835   4.226   5.063  2.6760 -1.1654 -0.8331
  104MOL   H14333309   1.594   4.217   5.124 -0.6698  1.2321 -0.3680
  104MOL   H14433310   1.321   3.971   4.908  0.3765 -0.0557 -0.2363
  104MOL   H14533311   1.218   4.029   5.037  0.5646  1.2361  1.6008
  104MOL   C14633312   1.309   4.192   4.914 -0.3113 -1.1699  0.6312
  104MOL   C14733313   1.429   4.219   4.826 -0.3699 -1.0210 -0.2863
  104MOL   C14833314   1.491   4.122   4.742  0.2589 -0.0616  0.1754
  104MOL   C14933315   1.615   4.142   4.676  0.6771 -0.4812  0.1647
  104MOL   C15033316   1.671   4.270   4.682  0.1775 -0.4137  0.1066
  104MOL  Cl15133317   1.822   4.294   4.607  0.1502 -0.2939  0.2101
  104MOL   C15233318   1.607   4.372   4.762  0.2752  0.3437 -0.0538
  104MOL   C15333319   1.486   4.349   4.830 -0.3870 -0.1314 -0.9428
  104MOL   C15433320   1.174   4.206   4.840 -0.3803 -0.3131  0.5807
  104MOL   H15533321   1.318   4.260   4.999  1.1381  0.2788 -0.6571
  104MOL   H15633322   1.437   4.029   4.731  1.0108 -0.3286 -1.3268
  104MOL   H15733323   1.650   4.063   4.611 -1.7597 -0.0861 -1.7032
  104MOL   H15833324   1.647   4.469   4.787  2.1283 -0.5982  0.6678
  104MOL   H15933325   1.430   4.419   4.890  1.0123 -1.1544  1.6494
  104MOL   H16033326   1.190   4.287   4.768 -1.1822 -0.1442  0.5885
  104MOL   H16133327   1.157   4.113   4.787 -1.6139  0.6710 -0.7991
  104MOL   C16233328   1.050   4.249   4.922 -0.7546 -0.2521 -0.8838
  104MOL   C16333329   1.066   4.369   5.010  0.2684  0.1073 -0.0890
  104MOL   C16433330   1.021   4.363   5.142 -0.3552 -0.1487  0.3837
  104MOL   C16533331   1.024   4.474   5.227  0.2747 -0.0403  0.5371
  104MOL   C16633332   1.074   4.596   5.171  0.5082  0.2272 -0.5882
  104MOL  Cl16733333   1.094   4.731   5.281 -0.0459  0.2267  0.4253
  104MOL   C16833334   1.113   4.613   5.040 -0.5833 -0.5960  0.2138
  104MOL   C16933335   1.105   4.499   4.959  0.1679  0.6347  0.2551
  104MOL   C17033336   0.927   4.261   4.828 -0.6525 -0.3516  0.2360
  104MOL   H17133337   1.026   4.166   4.988 -1.1051 -0.7993 -1.6834
  104MOL   H17233338   0.998   4.268   5.188  1.8901 -0.4776  0.8565
  104MOL   H17333339   1.008   4.458   5.333 -0.8210 -1.4947  0.1634
  104MOL   H17433340   1.141   4.710   5.002 -2.2818 -0.5443 -0.9289
  104MOL   H17533341   1.142   4.509   4.858  1.0673 -2.9158  0.1646
  104MOL   H17633342   0.840   4.261   4.894 -1.0189 -1.5568 -0.2254
  104MOL   H17733343   0.931   4.356   4.775 -0.9476  0.7179  2.0971
  104MOL   C17833344   0.909   4.150   4.717  0.2931 -1.3709  0.3652
  104MOL   C17933345   0.895   4.008   4.767  0.8463  0.7867 -0.7558
  104MOL   C18033346   0.801   3.982   4.866  0.2208  0.0550  0.2972
  104MOL   C18133347   0.764   3.854   4.896  0.1268 -0.1115 -0.4545
  104MOL   C18233348   0.825   3.750   4.829  0.4401 -0.1858 -0.0337
  104MOL  Cl18333349   0.774   3.589   4.859  0.0977  0.1704  0.1911
  104MOL   C18433350   0.931   3.770   4.740  0.5019  0.4656  0.1966
  104MOL   C18533351   0.970   3.903   4.713 -0.4418  0.4214  0.9547
  104MOL   C18633352   0.789   4.183   4.626  1.0507 -0.4254  0.4790
  104MOL   H18733353   0.998   4.160   4.654 -1.2263 -1.6273 -1.8956
  104MOL   H18833354   0.737   4.058   4.908  0.3970  0.8075 -0.7720
  104MOL   H18933355   0.677   3.832   4.956 -1.1171  0.2127 -2.1081
  104MOL   H19033356   0.963   3.682   4.688  0.2315  1.0512 -0.9710
  104MOL   H19133357   1.043   3.926   4.637 -1.2014 -2.0635 -0.5766
  104MOL   H19233358   0.702   4.132   4.669  0.6065  1.8612  2.3577
  104MOL   H19333359   0.752   4.284   4.644 -1.5908 -1.3662  0.6777
  104MOL   C19433360   0.805   4.143   4.477  0.7453  0.8241  0.3374
  104MOL   C19533361   0.814   4.000   4.438  0.2753 -0.2842 -0.7776
  104MOL   C19633362   0.706   3.911   4.470 -0.1598  0.4210  0.6133
  104MOL   C19733363   0.726   3.772   4.450 -0.1893 -0.7270 -0.0483
  104MOL   C19833364   0.843   3.718   4.398  0.3160 -0.9018 -0.4370
  104MOL  Cl19933365   0.860   3.544   4.385  0.3784 -0.1754 -0.0273
  104MOL   C20033366   0.942   3.807   4.357  0.2759 -0.8053  0.1949
  104MOL   C20133367   0.929   3.945   4.370  0.6394  0.7539  0.1366
  104MOL   C20233368   0.711   4.219   4.392  0.8576 -0.2447  0.4228
  104MOL   H20333369   0.901   4.181   4.443  1.6462 -1.5155  0.1937
  104MOL   H20433370   0.613   3.947   4.511 -0.4256  1.3006 -0.7094
  104MOL   H20533371   0.652   3.702   4.487  0.7581 -0.9564  1.4906
  104MOL   H20633372   1.033   3.777   4.306  0.5677 -0.1713  0.3382
  104MOL   H20733373   1.008   4.009   4.332  1.5675 -2.0354 -2.8187
  104MOL   H20833374   0.702   4.171   4.294  0.8465  0.1784  0.2159
  104MOL   H20933375   0.615   4.215   4.444  1.0915 -1.0143  0.7984
  104MOL   C21033376   0.745   4.372   4.376 -0.0310  0.0036 -0.6047
  104MOL   C21133377   0.868   4.405   4.284 -0.3908  0.4030  0.3031
  104MOL   C21233378   0.860   4.376   4.144 -0.1667 -0.2183 -0.5560
  104MOL   C21333379   0.964   4.419   4.063 -0.0492  0.7130  0.2831
  104MOL   C21433380   1.069   4.491   4.109  0.4549  0.1856 -0.0938
  104MOL  Cl21533381   1.181   4.567   3.999  0.0538 -0.0215  0.0526
  104MOL   C21633382   1.085   4.514   4.248  0.3854 -0.1195 -0.8247
  104MOL   C21733383   0.986   4.473   4.337  0.4665  0.6536 -0.5831
  104MOL   C21833384   0.618   4.450   4.340 -0.2023 -0.4675 -0.8298
  104MOL   H21933385   0.787   4.399   4.473 -1.6626  2.2497 -0.4951
  104MOL   H22033386   0.764   4.343   4.107  0.1028 -0.1865 -1.2834
  104MOL   H22133387   0.959   4.399   3.957  2.6845 -0.6772  0.3810
  104MOL   H22233388   1.173   4.556   4.295  0.3174  1.7054 -2.2725
  104MOL   H22333389   0.985   4.489   4.443 -0.0694  1.0147 -0.6398
  104MOL   H22433390   0.630   4.520   4.258 -0.2626  0.6483  0.1131
  104MOL   H22533391   0.537   4.384   4.307 -0.2562  0.2197 -2.0858
  104MOL   C22633392   0.578   4.531   4.468 -0.1495 -0.4770  0.1101
  104MOL   C22733393   0.689   4.615   4.527 -0.2393  0.8265  0.0769
  104MOL   C22833394   0.766   4.697   4.442  0.5789  0.5783 -0.1235
  104MOL   C22933395   0.884   4.760   4.489  1.2601  0.0122  0.0584
  104MOL   C23033396   0.910   4.752   4.626 -0.3371  0.4842  0.1307
  104MOL  Cl23133397   1.031   4.850   4.685  0.1413 -0.2133 -0.3531
  104MOL   C23233398   0.833   4.673   4.717 -0.9011  0.2522 -0.3564
  104MOL   C23333399   0.724   4.599   4.661  0.5390  0.2366  0.2810
  104MOL   C23433400   0.448   4.608   4.443  0.2771  0.3879 -0.2936
  104MOL   H23533401   0.560   4.459   4.548 -1.5230 -1.6904 -1.2373
  104MOL   H23633402   0.743   4.708   4.337  0.7612  1.7891 -0.0353
  104MOL   H23733403   0.942   4.830   4.432  4.6118 -2.1806  0.6393
  104MOL   H23833404   0.849   4.667   4.823 -1.5039  0.7761 -0.2342
  104MOL   H23933405   0.685   4.513   4.714 -1.4703  1.6533  1.1667
  104MOL   H24033406   0.430   4.675   4.527 -0.6947  2.1223 -1.8574
  104MOL   H24133407   0.455   4.675   4.357  2.2844  3.7001  2.3677
  104MOL   C24233408   0.316   4.517   4.424  0.4143  0.3415 -0.2935
  104MOL   C24333409   0.305   4.418   4.543  0.1592  0.3738  0.4533
  104MOL   C24433410   0.289   4.470   4.673  0.9136 -0.7670 -0.1785
  104MOL   C24533411   0.303   4.385   4.782 -0.1950  0.0719  0.0945
  104MOL   C24633412   0.329   4.249   4.762  0.2583  0.4933  0.7598
  104MOL  Cl24733413   0.343   4.153   4.900  0.1242  0.4352  0.1073
  104MOL   C24833414   0.336   4.198   4.632  0.1764  0.0958 -0.7382
  104MOL   C24933415   0.331   4.276   4.520 -0.0152 -0.1527 -0.0486
  104MOL   C25033416   0.188   4.605   4.397  0.0825 -0.1112  0.4906
  104MOL   H25133417   0.325   4.449   4.340 -0.2647 -2.4087  1.7766
  104MOL   H25233418   0.281   4.575   4.699  1.5773 -0.6967 -0.2438
  104MOL   H25333419   0.281   4.427   4.879  0.8396 -3.3462  1.8718
  104MOL   H25433420   0.344   4.091   4.620 -1.0802  0.1416 -2.1709
  104MOL   H25533421   0.329   4.240   4.419 -0.6974  2.8466 -1.1483
  104MOL   H25633422   0.180   4.684   4.471  0.4499  0.7049 -0.3361
  104MOL   H25733423   0.200   4.665   4.307  0.8628  0.6901  1.1236
  104MOL   C25833424   0.052   4.524   4.394  0.3444 -0.5605 -0.4555
  104MOL   C25933425   8.419   4.547   4.528  0.8798  0.0540  0.0126
  104MOL   C26033426   8.372   4.676   4.556 -0.4312  0.4352  0.4087
  104MOL   C26133427   8.288   4.699   4.666  0.8548  0.0823 -0.0313
  104MOL   C26233428   8.268   4.594   4.756 -0.5198  0.6792 -0.0475
  104MOL  Cl26333429   8.165   4.621   4.892  0.2196 -0.1522  0.0591
  104MOL   C26433430   8.320   4.467   4.731 -0.2203 -0.0903  0.5340
  104MOL   C26533431   8.386   4.442   4.613  0.7108  0.0248 -0.0592
  104MOL   C26633432   8.413   4.541   4.271  0.0031 -0.4053 -0.8618
  104MOL   H26733433   0.083   4.419   4.398  0.9292 -0.4295 -1.3483
  104MOL   H26833434   8.390   4.756   4.487  0.7912  1.5604  1.9943
  104MOL   H26933435   8.239   4.794   4.683 -4.1860 -2.6446  1.9047
  104MOL   H27033436   8.300   4.392   4.807 -0.5336  0.6209  1.1710
  104MOL   H27133437   8.431   4.345   4.597  1.4755  0.2179  0.8537
  104MOL   H27233438   8.366   4.639   4.259  1.6173  1.2233  4.6016
  104MOL   H27333439   0.045   4.515   4.197  0.0189  0.1129 -1.0252
  104MOL   C27433440   8.283   4.452   4.273 -0.6554 -0.1046  0.0693
  104MOL   C27533441   8.192   4.481   4.153  0.0712 -0.3667  0.2816
  104MOL   C27633442   8.059   4.523   4.174 -1.0206  0.7436 -0.2462
  104MOL   C27733443   7.973   4.537   4.063  0.1856 -0.4124  0.0630
  104MOL   C27833444   8.023   4.524   3.934  0.4016 -1.1028  1.0861
  104MOL  Cl27933445   7.928   4.565   3.799 -0.0809 -0.3725  0.2336
  104MOL   C28033446   8.157   4.487   3.911 -0.4856  0.4305 -0.2891
  104MOL   C28133447   8.239   4.476   4.019  0.0575 -0.3032  0.2595
  104MOL   C28233448   8.310   4.300   4.276 -0.0879  0.4653 -0.3105
  104MOL   H28333449   8.217   4.480   4.355 -1.8008 -0.6886 -0.6458
  104MOL   H28433450   8.017   4.523   4.273 -1.7792 -1.1861 -0.5357
  104MOL   H28533451   7.868   4.558   4.070 -0.7242 -2.5533 -4.7457
  104MOL   H28633452   8.196   4.497   3.811  1.6651  2.1591  0.6748
  104MOL   H28733453   8.339   4.441   3.997  0.2051  0.2089  0.0950
  104MOL   H28833454   8.306   4.257   4.176 -0.0623 -2.2629  0.8233
  104MOL   H28933455   8.408   4.278   4.318 -1.5360 -0.3886  2.8384
  104MOL   C29033456   8.199   4.215   4.352 -0.0401 -0.5155 -0.1449
  104MOL   C29133457   8.059   4.222   4.293  0.0412 -0.5101  0.0583
  104MOL   C29233458   7.950   4.268   4.367  0.3986 -0.1107 -0.1935
  104MOL   C29333459   7.825   4.265   4.314  0.5806  0.4610 -0.2322
  104MOL   C29433460   7.800   4.229   4.176 -0.4341 -0.5610  0.4411
  104MOL  Cl29533461   7.644   4.243   4.113  0.2396 -0.1038 -0.2078
  104MOL   C29633462   7.910   4.183   4.100  0.5995 -0.6559 -0.5160
  104MOL   C29733463   8.039   4.184   4.156 -0.0807  0.4061  0.0257
  104MOL   C29833464   8.251   4.070   4.381 -0.0291 -0.4522  0.8868
  104MOL   H29933465   8.183   4.261   4.449  0.9413  0.8536 -0.6207
  104MOL   H30033466   7.971   4.307   4.465 -1.0908  0.1610  0.0282
  104MOL   H30133467   7.742   4.306   4.368 -0.1462 -2.0385  0.5878
  104MOL   H30233468   7.897   4.155   3.997  0.4444 -1.9709 -0.1530
  104MOL   H30333469   8.117   4.149   4.090 -0.0133  2.7422 -1.2039
  104MOL   H30433470   8.268   4.039   4.278  2.5011  1.2656  0.7441
  104MOL   H30533471   8.352   4.064   4.422  0.4280  0.0431 -0.1585
  104MOL   C30633472   8.152   3.971   4.460  0.4403 -0.9340  0.1991
  104MOL   C30733473   8.188   3.829   4.422  0.9022  0.9799 -0.4414
  104MOL   C30833474   8.115   3.767   4.317  0.0748  0.3171  0.4603
  104MOL   C30933475   8.155   3.638   4.286 -0.0183  0.3601 -0.1671
  104MOL   C31033476   8.257   3.569   4.359  1.3161  0.0202  0.6423
  104MOL  Cl31133477   8.302   3.407   4.317 -0.3246 -0.1644 -0.3701
  104MOL   C31233478   8.325   3.633   4.462  0.7797 -1.3241  0.1459
  104MOL   C31333479   8.291   3.768   4.490  0.8292  0.0307  0.1180
  104MOL   C31433480   8.150   4.004   4.616  0.2073  0.1135 -0.0224
  104MOL   H31533481   8.056   4.000   4.417 -0.3084 -1.1924  1.6743
  104MOL   H31633482   8.047   3.822   4.253 -0.5014 -0.0377  0.7547
  104MOL   H31733483   8.105   3.598   4.199 -2.3480 -0.0383  1.3086
  104MOL   H31833484   8.386   3.581   4.534 -0.4051 -0.1449  2.0521
  104MOL   H31933485   8.350   3.813   4.568  0.3227  2.5414 -0.8873
  104MOL   H32033486   8.251   3.997   4.657 -0.2703  2.3970  1.6096
  104MOL   H32133487   8.120   4.107   4.636  2.2360  0.6915  0.1143
  104MOL   H32233488   8.086   3.925   4.656  0.0604 -0.7013 -1.8033
  105MOL     C133489   0.850   5.808   2.099  1.0072 -0.2999 -0.3381
  105MOL     C233490   0.718   5.808   2.033  0.7059  0.3776  1.3877
  105MOL     C333491   0.652   5.925   1.999  0.4602 -0.3562 -0.4180
  105MOL     C433492   0.528   5.918   1.928 -0.4924 -0.4334 -0.5498
  105MOL     C533493   0.468   5.794   1.893 -0.1911 -0.1963  0.1745
  105MOL    Cl633494   0.318   5.796   1.806  0.0072  0.0549 -0.1183
  105MOL     C733495   0.541   5.679   1.923  0.3587  0.6347 -0.3900
  105MOL     C833496   0.666   5.684   1.990  0.7426 -0.1238 -0.2096
  105MOL     C933497   0.830   5.779   2.249  0.0892  0.0040  0.3874
  105MOL    H1033498   0.891   5.908   2.086 -1.5555  0.9453  0.8353
  105MOL    H1133499   0.706   6.017   2.016  0.5074 -0.4159 -0.2436
  105MOL    H1233500   0.480   6.009   1.895 -4.3591 -2.1768 -0.1016
  105MOL    H1333501   0.500   5.584   1.894  1.3538 -0.2430  0.9734
  105MOL    H1433502   0.723   5.593   1.998  0.1062 -0.7772 -2.8388
  105MOL    H1533503   0.765   5.853   2.295  1.2549  3.1559 -2.7945
  105MOL    H1633504   0.782   5.682   2.250  1.8377 -0.9212 -1.0650
  105MOL    H1733505   0.915   5.735   2.050  1.3707  2.0307 -3.4491
  105MOL    C1833506   0.963   5.775   2.335  0.1983  0.2486  0.8756
  105MOL    C1933507   1.051   5.903   2.329 -0.2351 -0.5399 -0.2843
  105MOL    C2033508   1.188   5.892   2.346 -0.4424 -1.1315  0.2035
  105MOL    C2133509   1.279   6.005   2.329 -0.1337 -0.0872 -0.7669
  105MOL    C2233510   1.218   6.129   2.302  0.6628 -0.0472  0.5531
  105MOL   Cl2333511   1.315   6.268   2.278 -0.1533 -0.4945  0.0632
  105MOL    C2433512   1.077   6.142   2.301 -0.1347  0.7947 -0.3062
  105MOL    C2533513   0.997   6.030   2.303  0.6203  0.3406 -0.3103
  105MOL    C2633514   0.937   5.744   2.483  0.0240  0.6603 -1.3617
  105MOL    H2733515   1.021   5.693   2.293 -0.5940 -0.2466  0.7291
  105MOL    H2833516   1.247   5.802   2.358 -1.3177 -1.8987 -1.1823
  105MOL    H2933517   1.387   6.002   2.335 -0.1291 -2.1908 -1.3480
  105MOL    H3033518   1.039   6.241   2.282  0.9084  1.3355  0.3782
  105MOL    H3133519   0.891   6.037   2.286  0.0449 -0.2386  2.9026
  105MOL    H3233520   1.037   5.740   2.525 -1.0397  0.7218  1.2740
  105MOL    H3333521   0.898   5.830   2.537  0.8699 -0.5373  1.2358
  105MOL    C3433522   0.857   5.619   2.533 -0.6689  0.4999 -0.0336
  105MOL    C3533523   0.899   5.489   2.462  0.5762 -0.0034 -0.6452
  105MOL    C3633524   0.802   5.426   2.378 -0.3742  0.3290  0.7137
  105MOL    C3733525   0.819   5.294   2.326 -0.2312  0.3517 -0.2800
  105MOL    C3833526   0.939   5.233   2.361  0.2181  0.3847 -0.0338
  105MOL   Cl3933527   0.973   5.080   2.284 -0.0218  0.3755  0.0121
  105MOL    C4033528   1.036   5.289   2.450  0.1894 -0.1546  0.2975
  105MOL    C4133529   1.013   5.418   2.500 -0.3934 -0.5520  0.1203
  105MOL    C4233530   0.854   5.596   2.689 -0.3302  0.3442 -0.7692
  105MOL    H4333531   0.754   5.639   2.503 -0.3269  2.1286 -0.2149
  105MOL    H4433532   0.712   5.472   2.340 -0.6719 -1.8158 -1.2408
  105MOL    H4533533   0.752   5.256   2.249 -0.6306  0.7647 -0.1348
  105MOL    H4633534   1.122   5.228   2.473 -0.3052 -1.0824 -0.2600
  105MOL    H4733535   1.083   5.452   2.575 -0.7395  0.3575  0.0323
  105MOL    H4833536   0.953   5.566   2.721 -0.7514 -0.6631 -0.3821
  105MOL    H4933537   0.829   5.687   2.742 -1.0210  0.0308 -0.5475
  105MOL    C5033538   0.744   5.499   2.741  1.1029  0.4694  0.4490
  105MOL    C5133539   0.771   5.459   2.882 -0.2766  0.3564 -0.8043
  105MOL    C5233540   0.798   5.323   2.920 -0.2948 -0.2491  0.0912
  105MOL    C5333541   0.817   5.298   3.056  0.3096  0.3175 -0.0326
  105MOL    C5433542   0.817   5.399   3.156  0.0074 -0.0820 -0.5350
  105MOL   Cl5533543   0.859   5.352   3.317  0.4467  0.0572  0.1668
  105MOL    C5633544   0.770   5.522   3.122  0.2051 -1.1406 -0.4157
  105MOL    C5733545   0.754   5.556   2.983  0.4163  0.5324  0.4431
  105MOL    C5833546   0.601   5.553   2.721  0.3066 -0.2729  1.3330
  105MOL    H5933547   0.762   5.410   2.682 -0.8398  1.7427 -2.1241
  105MOL    H6033548   0.819   5.243   2.851  0.3156 -0.8829  0.9993
  105MOL    H6133549   0.848   5.201   3.090 -1.1925 -0.4047 -0.6895
  105MOL    H6233550   0.765   5.593   3.203 -2.0623 -2.0068  0.2689
  105MOL    H6333551   0.742   5.662   2.967 -0.9504  0.2761 -0.3692
  105MOL    H6433552   0.580   5.640   2.784 -0.9648  1.7538 -1.7299
  105MOL    H6533553   0.589   5.595   2.621  2.1922  0.2976  1.3320
  105MOL    C6633554   0.489   5.448   2.758  0.3858 -0.7365  0.0714
  105MOL    C6733555   0.353   5.521   2.757 -0.1132 -0.2058 -0.4820
  105MOL    C6833556   0.273   5.515   2.873  0.0050  0.2632  0.4479
  105MOL    C6933557   0.146   5.563   2.872  0.2949 -0.2831 -0.3388
  105MOL    C7033558   0.087   5.614   2.758  0.5017 -0.0061  0.1597
  105MOL   Cl7133559   8.365   5.667   2.764  0.0746  0.2623 -0.0653
  105MOL    C7233560   0.159   5.619   2.638 -0.1737 -0.1240 -0.4657
  105MOL    C7333561   0.287   5.563   2.639 -0.1008 -0.2716  0.4995
  105MOL    C7433562   0.503   5.317   2.669 -0.7549  0.4674 -0.5901
  105MOL    H7533563   0.505   5.418   2.861 -0.0804 -0.0724  0.3418
  105MOL    H7633564   0.316   5.495   2.970  1.5576  0.0150 -0.2786
  105MOL    H7733565   0.094   5.563   2.967  2.2352 -0.3524  0.7560
  105MOL    H7833566   0.109   5.662   2.553 -1.1724  1.2705  0.8178
  105MOL    H7933567   0.340   5.556   2.545 -0.8785  0.9813 -0.0544
  105MOL    H8033568   0.552   5.346   2.576 -2.3826 -2.3462 -2.4212
  105MOL    H8133569   0.577   5.249   2.711 -0.0123  0.8906 -1.2050
  105MOL    C8233570   0.385   5.232   2.635  0.3363 -0.2814 -0.5212
  105MOL    C8333571   0.355   5.245   2.481  1.2983 -0.2653  0.2719
  105MOL    C8433572   0.239   5.309   2.431 -0.1675 -0.9523 -0.2801
  105MOL    C8533573   0.232   5.335   2.291 -0.5922 -0.1149 -0.6592
  105MOL    C8633574   0.336   5.292   2.201 -0.2446  0.6345  0.1279
  105MOL   Cl8733575   0.333   5.345   2.035 -0.3081  0.3630 -0.1943
  105MOL    C8833576   0.440   5.205   2.249  0.0809  0.1686 -0.1515
  105MOL    C8933577   0.444   5.185   2.387  0.4622 -0.8042 -1.1497
  105MOL    C9033578   0.402   5.083   2.671  0.3745  0.5387 -0.1179
  105MOL    H9133579   0.299   5.271   2.689 -0.9230 -2.4366 -0.9310
  105MOL    H9233580   0.165   5.357   2.494  1.2597  0.1311  0.6102
  105MOL    H9333581   0.153   5.398   2.254 -0.0043  0.1124 -1.5585
  105MOL    H9433582   0.505   5.156   2.177 -0.7689 -0.8978 -0.2058
  105MOL    H9533583   0.525   5.125   2.423  0.8607  1.0336  1.1540
  105MOL    H9633584   0.326   5.014   2.634  0.1949  0.1016  1.0390
  105MOL    H9733585   0.492   5.048   2.621  1.2159  2.5158 -0.0029
  105MOL    C9833586   0.410   5.053   2.827  0.3758  0.1637 -0.2105
  105MOL    C9933587   0.302   5.121   2.898  0.3914  0.6933  0.6970
  105MOL   C10033588   0.169   5.095   2.854 -0.3045 -0.0649 -0.1600
  105MOL   C10133589   0.060   5.161   2.919  0.5509 -0.2577 -0.1625
  105MOL   C10233590   0.081   5.241   3.033 -0.3918  0.0438 -0.4029
  105MOL  Cl10333591   8.405   5.330   3.115  0.1340  0.0093 -0.1969
  105MOL   C10433592   0.211   5.253   3.082 -1.0663  0.4650  0.0957
  105MOL   C10533593   0.320   5.196   3.014 -0.5801  0.3596 -0.1362
  105MOL   C10633594   0.416   4.903   2.866 -0.0151  0.4833  0.0044
  105MOL   H10733595   0.503   5.100   2.860  0.4048 -1.8887  2.8070
  105MOL   H10833596   0.139   5.037   2.767 -0.8216 -0.7055  0.4384
  105MOL   H10933597   8.400   5.160   2.886  0.2811  0.1879  0.6527
  105MOL   H11033598   0.223   5.303   3.177 -1.2886 -0.1918  0.4741
  105MOL   H11133599   0.421   5.199   3.054 -0.8653  1.9549  0.4964
  105MOL   H11233600   0.436   4.907   2.973  0.0203 -0.3469  0.0298
  105MOL   H11333601   0.317   4.857   2.859 -0.8454  2.2537 -0.2675
  105MOL   C11433602   0.521   4.815   2.788  1.0244 -0.0182  0.7298
  105MOL   C11533603   0.660   4.878   2.793 -0.1985  0.2840 -0.3603
  105MOL   C11633604   0.725   4.899   2.921  0.0572  0.0367 -0.3758
  105MOL   C11733605   0.854   4.953   2.921 -0.2979  0.0996  0.0021
  105MOL   C11833606   0.918   4.987   2.799 -0.0200  0.2195  0.0335
  105MOL  Cl11933607   1.079   5.048   2.795 -0.0427 -0.1431 -0.6002
  105MOL   C12033608   0.846   4.983   2.678 -0.4409 -0.2640 -0.8409
  105MOL   C12133609   0.718   4.932   2.673 -0.0364  0.3601  0.2571
  105MOL   C12233610   0.525   4.675   2.847 -0.4588  0.8953 -0.2619
  105MOL   H12333611   0.487   4.816   2.684  2.4664 -2.0024  0.2260
  105MOL   H12433612   0.670   4.870   3.010 -0.6471  0.6909 -0.5891
  105MOL   H12533613   0.911   4.975   3.010  0.2491  1.9623 -0.7745
  105MOL   H12633614   0.904   5.010   2.591 -0.8799  2.3501 -0.3800
  105MOL   H12733615   0.674   4.929   2.574 -2.1620  0.0180  1.1793
  105MOL   H12833616   0.535   4.672   2.955 -0.5963  0.2935 -0.2630
  105MOL   H12933617   0.428   4.630   2.825  0.2913 -1.9057  1.9437
  105MOL   C13033618   0.632   4.582   2.777  0.1190  0.3168 -1.0490
  105MOL   C13133619   0.659   4.461   2.867 -0.2926 -0.7424  0.0550
  105MOL   C13233620   0.789   4.416   2.885 -0.6131  0.1412  0.3387
  105MOL   C13333621   0.815   4.300   2.956  0.5215  0.2122 -0.4086
  105MOL   C13433622   0.708   4.226   3.017 -0.7908  0.0651 -1.1321
  105MOL  Cl13533623   0.737   4.086   3.110 -0.0124 -0.0872  0.3374
  105MOL   C13633624   0.575   4.269   2.999  0.4768  0.2699  0.7993
  105MOL   C13733625   0.548   4.384   2.921 -0.3086 -0.8028 -0.0663
  105MOL   C13833626   0.588   4.546   2.630 -0.0320 -0.1801 -0.4274
  105MOL   H13933627   0.729   4.630   2.786 -0.3178  1.0994 -0.4634
  105MOL   H14033628   0.872   4.467   2.839  1.4415 -5.2346 -2.3511
  105MOL   H14133629   0.917   4.263   2.960  1.1739  1.8036 -1.3937
  105MOL   H14233630   0.486   4.224   3.040  0.5704  1.0786  1.9304
  105MOL   H14333631   0.449   4.426   2.905  0.1516  0.9540  1.5068
  105MOL   H14433632   0.598   4.635   2.568 -2.4422  0.3044 -0.1559
  105MOL   H14533633   0.672   4.482   2.602 -0.7935 -1.4699  0.2061
  105MOL   C14633634   0.460   4.459   2.593  0.1673 -0.3711 -0.6780
  105MOL   C14733635   0.334   4.554   2.599  0.7398  0.5253  0.0838
  105MOL   C14833636   0.235   4.530   2.694  0.2931  0.6623  0.1706
  105MOL   C14933637   0.121   4.610   2.705 -0.1505 -0.1829 -0.0333
  105MOL   C15033638   0.105   4.721   2.614 -0.0426 -0.6532  0.2414
  105MOL  Cl15133639   8.421   4.834   2.644 -0.0163 -0.1787 -0.1539
  105MOL   C15233640   0.201   4.743   2.513  1.1706  0.3701 -0.2011
  105MOL   C15333641   0.315   4.660   2.507 -0.3287 -0.2895  0.1490
  105MOL   C15433642   0.469   4.380   2.461 -0.0325 -0.5832 -0.3267
  105MOL   H15533643   0.448   4.379   2.665  0.4264 -1.2864 -1.6319
  105MOL   H15633644   0.255   4.449   2.762 -0.3013 -1.5576 -2.2264
  105MOL   H15733645   0.045   4.589   2.779 -0.9014 -1.6749 -1.1858
  105MOL   H15833646   0.201   4.829   2.447  0.7407 -0.6133 -1.5238
  105MOL   H15933647   0.398   4.681   2.441 -0.2818  1.6921  0.8133
  105MOL   H16033648   0.372   4.334   2.443 -0.4850  0.2368 -0.0003
  105MOL   H16133649   0.489   4.450   2.380  1.4887  1.0394  1.3640
  105MOL   C16233650   0.571   4.259   2.448 -0.5279  0.6526 -0.3086
  105MOL   C16333651   0.578   4.164   2.574  0.0976  0.0395  0.7420
  105MOL   C16433652   0.461   4.088   2.613 -0.5894  0.2167  0.0553
  105MOL   C16533653   0.471   3.989   2.710 -0.7087  0.4656  0.5318
  105MOL   C16633654   0.591   3.968   2.780  0.3691  0.1138  0.5903
  105MOL  Cl16733655   0.601   3.848   2.905 -0.6060  0.0433 -0.1568
  105MOL   C16833656   0.705   4.044   2.749 -0.4013  0.5442  0.4359
  105MOL   C16933657   0.698   4.143   2.643 -0.8434 -0.7138  0.1468
  105MOL   C17033658   0.540   4.180   2.314  0.0938  0.4051  0.0910
  105MOL   H17133659   0.666   4.312   2.439 -0.7647  1.2250  0.5179
  105MOL   H17233660   0.368   4.114   2.566  0.0754 -0.1788 -1.5145
  105MOL   H17333661   0.382   3.930   2.722  0.4085 -0.9422  2.0878
  105MOL   H17433662   0.799   4.027   2.799 -0.7613 -0.2974  0.8295
  105MOL   H17533663   0.788   4.199   2.624 -2.3287  1.2878 -1.2427
  105MOL   H17633664   0.445   4.131   2.337  2.3631 -4.2632  0.1474
  105MOL   H17733665   0.528   4.254   2.235  0.2284  1.4302  1.0243
  105MOL   C17833666   0.644   4.070   2.291 -0.2677 -0.0779 -0.2510
  105MOL   C17933667   0.580   3.942   2.240  0.3173  1.0279 -0.1135
  105MOL   C18033668   0.600   3.823   2.319 -0.4036 -0.4807 -0.2021
  105MOL   C18133669   0.556   3.698   2.272  0.2083 -0.0201 -0.0185
  105MOL   C18233670   0.481   3.693   2.153  0.7942 -0.0975  0.4710
  105MOL  Cl18333671   0.418   3.536   2.108 -0.0308 -0.0913 -0.5224
  105MOL   C18433672   0.460   3.808   2.076  0.2753  0.3764 -0.2330
  105MOL   C18533673   0.507   3.930   2.120  0.0693  0.3355 -0.4927
  105MOL   C18633674   0.750   4.127   2.193 -0.4503  0.2570 -0.2175
  105MOL   H18733675   0.696   4.052   2.385 -0.7942  2.5248  0.5792
  105MOL   H18833676   0.657   3.825   2.411 -1.2201 -0.9483  0.3320
  105MOL   H18933677   0.574   3.614   2.337  0.5414 -0.1907 -0.3312
  105MOL   H19033678   0.405   3.810   1.983  0.7592  1.8255 -0.5005
  105MOL   H19133679   0.490   4.013   2.052  0.2893  0.0269 -0.9309
  105MOL   H19233680   0.807   4.045   2.152 -1.4424 -0.2213 -0.6622
  105MOL   H19333681   0.690   4.159   2.107  0.6802  0.1919 -1.0423
  105MOL   C19433682   0.855   4.234   2.245  0.0940  0.4416 -0.0317
  105MOL   C19533683   0.936   4.192   2.365  0.5007  0.0419  0.2677
  105MOL   C19633684   0.978   4.286   2.466  0.6677  0.1604 -0.3119
  105MOL   C19733685   1.047   4.242   2.576  0.6024 -0.1103 -0.8775
  105MOL   C19833686   1.071   4.103   2.586 -0.4198 -0.2266 -0.2574
  105MOL  Cl19933687   1.147   4.039   2.729 -0.1412  0.1677  0.0012
  105MOL   C20033688   1.036   4.010   2.488 -0.4873 -0.7112  0.3503
  105MOL   C20133689   0.974   4.057   2.372 -0.2458  0.4178  0.7009
  105MOL   C20233690   0.950   4.287   2.138 -0.3566  0.8770  0.2384
  105MOL   H20333691   0.788   4.312   2.282  0.7911  0.3891  1.3657
  105MOL   H20433692   0.960   4.390   2.441 -0.1958  0.1156  0.1210
  105MOL   H20533693   1.088   4.304   2.654  2.7080 -1.1285 -1.1523
  105MOL   H20633694   1.060   3.905   2.495  2.1040 -0.0675  2.1327
  105MOL   H20733695   0.961   3.987   2.290 -3.5109  2.1888 -0.3770
  105MOL   H20833696   1.041   4.339   2.169  0.4097  0.4706 -1.2924
  105MOL   H20933697   0.986   4.206   2.075 -1.9573  0.4710 -0.1696
  105MOL   C21033698   0.890   4.390   2.042 -0.1361 -0.1591 -0.0016
  105MOL   C21133699   0.822   4.505   2.120  0.8240  0.9368 -0.6646
  105MOL   C21233700   0.689   4.539   2.098 -0.2906  0.4227  0.3413
  105MOL   C21333701   0.630   4.646   2.168 -0.0425  0.0026 -0.0041
  105MOL   C21433702   0.705   4.727   2.257  0.1914  0.1830 -0.8478
  105MOL  Cl21533703   0.635   4.866   2.336 -0.0207 -0.3310  0.2151
  105MOL   C21633704   0.844   4.703   2.268 -0.6517  0.4857 -0.1611
  105MOL   C21733705   0.900   4.592   2.204 -1.3613 -0.1557 -0.0586
  105MOL   C21833706   1.002   4.451   1.951 -0.1839  0.0355  0.5267
  105MOL   H21933707   0.823   4.337   1.974  1.7116 -0.4322 -1.6563
  105MOL   H22033708   0.625   4.482   2.032 -1.0127  1.5716  0.0380
  105MOL   H22133709   0.527   4.672   2.151 -0.2567  1.0250  2.6667
  105MOL   H22233710   0.904   4.769   2.329  1.2788 -1.4959  0.1472
  105MOL   H22333711   1.008   4.586   2.202 -1.2773  1.5461 -2.3267
  105MOL   H22433712   1.007   4.559   1.967 -0.4347  0.1278 -0.0252
  105MOL   H22533713   1.102   4.412   1.972  0.1946  0.1382 -1.0604
  105MOL   C22633714   0.978   4.444   1.799  0.5327  0.5316 -0.1742
  105MOL   C22733715   0.837   4.499   1.771  0.1078  0.6801  0.3383
  105MOL   C22833716   0.744   4.422   1.697 -0.0825  0.5594  0.0549
  105MOL   C22933717   0.620   4.468   1.647  0.3124  0.0517 -0.0374
  105MOL   C23033718   0.585   4.599   1.688 -0.6212 -0.1698 -0.1053
  105MOL  Cl23133719   0.436   4.669   1.638 -0.3260  0.1076 -0.2405
  105MOL   C23233720   0.678   4.680   1.757 -0.5373  0.6651 -0.8512
  105MOL   C23333721   0.801   4.634   1.800 -0.4774  0.2360  0.3496
  105MOL   C23433722   1.091   4.511   1.717 -0.1684 -0.9173 -0.8994
  105MOL   H23533723   0.977   4.336   1.779  1.2452  0.2441  1.2761
  105MOL   H23633724   0.769   4.319   1.677  0.0140  1.0933 -2.7824
  105MOL   H23733725   0.546   4.402   1.605  0.6270 -1.3573  1.5478
  105MOL   H23833726   0.656   4.785   1.767 -1.1765  0.4105  0.4088
  105MOL   H23933727   0.867   4.702   1.851  1.0363 -0.1929 -0.9878
  105MOL   H24033728   1.111   4.613   1.751 -0.2807  0.2945 -4.2665
  105MOL   H24133729   1.181   4.456   1.744  0.1767  0.3853  0.6372
  105MOL   C24233730   1.071   4.526   1.567  0.7038 -0.0050 -0.7726
  105MOL   C24333731   1.184   4.609   1.500 -0.0769 -0.0347  0.3199
  105MOL   C24433732   1.146   4.743   1.468  0.8180  0.4856 -0.2802
  105MOL   C24533733   1.237   4.826   1.405  0.3748  0.1928 -0.6019
  105MOL   C24633734   1.360   4.780   1.369  0.2346  0.0618 -0.8452
  105MOL  Cl24733735   1.468   4.883   1.289  0.0217 -0.1389  0.3070
  105MOL   C24833736   1.402   4.651   1.413 -0.5617 -0.0062  0.1787
  105MOL   C24933737   1.314   4.567   1.481  0.1321  0.0865  0.6911
  105MOL   C25033738   1.061   4.384   1.499 -0.7308  0.1400  0.3666
  105MOL   H25133739   0.984   4.592   1.561  1.3756  1.0342  0.5985
  105MOL   H25233740   1.046   4.780   1.488  0.5528 -1.0723  1.4011
  105MOL   H25333741   1.210   4.926   1.376 -1.6258 -0.4031 -0.9166
  105MOL   H25433742   1.503   4.618   1.393 -0.8706  0.1349 -1.7252
  105MOL   H25533743   1.346   4.475   1.529 -1.9347 -0.7258  0.5951
  105MOL   H25633744   1.156   4.333   1.516 -0.5480 -0.0104 -1.0442
  105MOL   H25733745   0.982   4.323   1.542  0.0182 -0.4775  0.8830
  105MOL   C25833746   1.035   4.392   1.343 -0.5582  0.1450 -0.2260
  105MOL   C25933747   1.091   4.275   1.270  0.0273  0.4276 -0.6178
  105MOL   C26033748   1.189   4.294   1.171  0.4346  0.3189 -0.0104
  105MOL   C26133749   1.248   4.193   1.098  0.6548 -0.3220  0.5549
  105MOL   C26233750   1.205   4.060   1.125  0.1553 -0.5855 -0.1801
  105MOL  Cl26333751   1.264   3.937   1.028  0.1730 -0.2226 -0.2662
  105MOL   C26433752   1.107   4.030   1.229 -0.0909 -0.3155  0.2287
  105MOL   C26533753   1.049   4.141   1.298  0.2158  0.0214 -0.4931
  105MOL   C26633754   0.887   4.402   1.320  0.6280  0.4252 -0.3830
  105MOL   H26733755   1.084   4.482   1.306 -1.3880  0.1949 -1.2200
  105MOL   H26833756   1.227   4.394   1.155  0.7001  0.3095  0.5642
  105MOL   H26933757   1.310   4.218   1.013  1.0313  0.0967  0.9499
  105MOL   H27033758   1.079   3.928   1.250  0.4871 -0.9232 -1.8840
  105MOL   H27133759   0.974   4.129   1.374  2.0713  0.6456  1.4890
  105MOL   H27233760   0.834   4.307   1.333  0.1522  0.6483 -0.6784
  105MOL   H27333761   0.842   4.467   1.395 -0.9479 -1.7159  0.5870
  105MOL   C27433762   0.849   4.461   1.180  0.3820  0.9215  0.2844
  105MOL   C27533763   0.903   4.602   1.167  0.0259  0.3863 -0.2287
  105MOL   C27633764   1.012   4.624   1.083 -0.0775  0.8397 -0.0781
  105MOL   C27733765   1.071   4.750   1.081  0.5453  0.5432  0.0491
  105MOL   C27833766   1.022   4.852   1.152 -0.6301  0.2272  0.0550
  105MOL  Cl27933767   1.100   5.007   1.151  0.3173 -0.1501 -0.2050
  105MOL   C28033768   0.898   4.834   1.223 -0.4835  0.1514  1.0434
  105MOL   C28133769   0.837   4.710   1.231  0.0452  0.6794 -0.2527
  105MOL   C28233770   0.863   4.367   1.056 -1.3531  0.6893  0.3707
  105MOL   H28333771   0.744   4.490   1.179 -0.0330 -0.5317  0.6600
  105MOL   H28433772   1.058   4.544   1.027 -2.2364 -0.5026 -0.0355
  105MOL   H28533773   1.147   4.765   1.005  2.3327 -1.1289  1.4475
  105MOL   H28633774   0.863   4.923   1.274 -2.0662  1.2150 -1.8214
  105MOL   H28733775   0.745   4.692   1.283  1.3649 -2.3185  1.1615
  105MOL   H28833776   0.835   4.420   0.965  0.7748  1.4201  0.1024
  105MOL   H28933777   0.970   4.349   1.042 -1.7807  0.9827 -3.8061
  105MOL   C29033778   0.784   4.235   1.058  0.6319  0.0688 -0.3696
  105MOL   C29133779   0.638   4.262   1.068  0.0771 -0.6194  0.1580
  105MOL   C29233780   0.576   4.239   1.195 -0.1202 -0.6344  0.3261
  105MOL   C29333781   0.430   4.243   1.203 -0.2192 -0.1588  0.1768
  105MOL   C29433782   0.358   4.290   1.091  0.7526  0.0421  0.2651
  105MOL  Cl29533783   0.185   4.285   1.101  0.6095 -0.2855 -0.2220
  105MOL   C29633784   0.424   4.337   0.975  0.7157 -0.6166  0.2943
  105MOL   C29733785   0.565   4.322   0.960  0.3135 -0.8306 -0.0436
  105MOL   C29833786   0.826   4.151   0.942  0.3175 -0.6419 -0.3937
  105MOL   H29933787   0.811   4.181   1.150 -0.9376  0.7385  0.5031
  105MOL   H30033788   0.634   4.201   1.278 -0.1062  1.3387  1.2275
  105MOL   H30133789   0.379   4.208   1.292  2.3629  0.8292  2.1134
  105MOL   H30233790   0.370   4.383   0.893  2.3080  0.9966  0.1120
  105MOL   H30333791   0.612   4.354   0.868  0.2706  0.8771  0.5222
  105MOL   H30433792   0.764   4.191   0.862  0.9483 -1.0206 -1.0713
  105MOL   H30533793   0.931   4.163   0.915  0.6021 -2.4960 -0.1386
  105MOL   C30633794   0.797   3.998   0.958 -0.0944 -0.0107 -0.2105
  105MOL   C30733795   0.647   3.968   0.951  0.2729 -0.1140  0.1005
  105MOL   C30833796   0.569   3.999   0.836  0.2733  0.2447  0.2995
  105MOL   C30933797   0.431   3.982   0.844 -0.6051  0.3947 -0.1228
  105MOL   C31033798   0.372   3.926   0.959  0.0044 -0.1408  0.1218
  105MOL  Cl31133799   0.205   3.884   0.934  0.5279 -0.3149 -0.0616
  105MOL   C31233800   0.447   3.887   1.071  0.7075  0.7150 -0.7787
  105MOL   C31333801   0.585   3.917   1.065  0.1251 -0.2067 -0.7446
  105MOL   C31433802   0.876   3.921   0.846 -0.0240  0.3696  0.2810
  105MOL   H31533803   0.834   3.963   1.054  0.5231 -2.7694 -1.4055
  105MOL   H31633804   0.614   4.040   0.746 -1.0847  0.8862 -0.1030
  105MOL   H31733805   0.365   4.012   0.765 -1.2289 -1.3995 -0.3204
  105MOL   H31833806   0.397   3.842   1.155  0.0989 -0.1156 -1.5890
  105MOL   H31933807   0.654   3.901   1.147  0.5838  1.4747 -0.7952
  105MOL   H32033808   0.982   3.942   0.853  0.3404 -0.6109 -2.0161
  105MOL   H32133809   0.855   3.814   0.859  1.2737  0.1490  0.5966
  105MOL   H32233810   0.845   3.955   0.748 -0.4015  2.8971  1.2258
  106MOL     C133811   5.606   2.180   2.736  0.1888 -0.2548 -0.0067
  106MOL     C233812   5.685   2.237   2.856  0.6057 -0.5140  0.0465
  106MOL     C333813   5.676   2.371   2.899 -0.1750 -0.1015 -0.9312
  106MOL     C433814   5.740   2.412   3.022 -0.0348  0.0941  0.3737
  106MOL     C533815   5.809   2.318   3.100 -0.1285 -0.0690  0.5233
  106MOL    Cl633816   5.886   2.371   3.244 -0.1768 -0.0632 -0.0158
  106MOL     C733817   5.811   2.181   3.058  0.8637  0.2257 -0.0896
  106MOL     C833818   5.759   2.146   2.931  0.6013 -0.7551  0.4741
  106MOL     C933819   5.706   2.168   2.623 -0.2065  0.5842  0.3801
  106MOL    H1033820   5.525   2.244   2.701  1.5484  1.9679  0.7709
  106MOL    H1133821   5.616   2.444   2.848 -0.8844 -0.8239 -1.1305
  106MOL    H1233822   5.733   2.513   3.059 -0.1640 -0.2447  1.3017
  106MOL    H1333823   5.848   2.104   3.123 -1.4375 -0.8348  0.0241
  106MOL    H1433824   5.764   2.041   2.906 -0.2582 -1.1847  2.0366
  106MOL    H1533825   5.765   2.260   2.614 -0.1145  0.5170  0.3009
  106MOL    H1633826   5.783   2.094   2.646  1.4042  1.5016 -1.8980
  106MOL    H1733827   5.567   2.082   2.761  0.4758 -0.6236 -0.9875
  106MOL    C1833828   5.643   2.127   2.484  0.7778  0.9054  0.0290
  106MOL    C1933829   5.547   2.243   2.436 -0.4554  0.0666 -0.1567
  106MOL    C2033830   5.603   2.370   2.413 -0.5075 -0.4016  0.7002
  106MOL    C2133831   5.515   2.475   2.367  0.3833 -0.3422  0.1118
  106MOL    C2233832   5.380   2.450   2.340 -0.3774  0.2274 -0.3912
  106MOL   Cl2333833   5.283   2.571   2.274 -0.3096  0.0192 -0.2421
  106MOL    C2433834   5.328   2.321   2.372  0.2477 -0.4736  0.1901
  106MOL    C2533835   5.411   2.217   2.422  0.2805  0.3147  0.0565
  106MOL    C2633836   5.752   2.113   2.374  0.7810 -0.0747  0.4545
  106MOL    H2733837   5.591   2.031   2.489 -0.0957  1.4068  0.9960
  106MOL    H2833838   5.703   2.398   2.441  0.8762 -2.8461 -1.4937
  106MOL    H2933839   5.557   2.575   2.361  2.4927 -1.2837 -1.4077
  106MOL    H3033840   5.227   2.294   2.348 -0.6611  1.8844  1.1751
  106MOL    H3133841   5.381   2.115   2.438  0.8045 -0.3658 -2.9584
  106MOL    H3233842   5.697   2.108   2.281 -2.8872  0.1431  2.5085
  106MOL    H3333843   5.801   2.210   2.373  2.2606 -0.8256 -1.3134
  106MOL    C3433844   5.844   1.995   2.386  0.3385  0.8740 -0.4875
  106MOL    C3533845   5.762   1.865   2.406  0.2560 -0.2057  0.0992
  106MOL    C3633846   5.775   1.808   2.532  0.1400 -0.2408 -0.3235
  106MOL    C3733847   5.704   1.691   2.565  0.2798  0.0944  0.0352
  106MOL    C3833848   5.639   1.617   2.455 -0.1072 -0.4369 -0.7310
  106MOL   Cl3933849   5.565   1.467   2.479  0.2598 -0.3874  0.3159
  106MOL    C4033850   5.625   1.677   2.327 -0.5862  0.1967 -0.4802
  106MOL    C4133851   5.677   1.804   2.305 -0.2331  0.2925 -0.0279
  106MOL    C4233852   5.935   1.975   2.266  0.7399 -0.5876 -0.4643
  106MOL    H4333853   5.914   2.009   2.468 -2.3615 -1.0016  2.2704
  106MOL    H4433854   5.826   1.866   2.608 -2.1922  1.5044 -0.0533
  106MOL    H4533855   5.707   1.650   2.665 -1.9881  0.9664  0.5043
  106MOL    H4633856   5.568   1.630   2.248  0.7741 -0.6481 -0.9782
  106MOL    H4733857   5.665   1.850   2.208 -0.1662  0.8896  0.2467
  106MOL    H4833858   5.978   1.875   2.264  2.3955  0.0558  1.1302
  106MOL    H4933859   5.871   1.978   2.178 -0.0712 -0.4800  0.1195
  106MOL    C5033860   6.056   2.080   2.251  0.4882 -0.0310 -1.1634
  106MOL    C5133861   6.161   2.046   2.359  0.4651 -0.1943 -0.7414
  106MOL    C5233862   6.240   1.924   2.356 -0.5370 -0.0418  0.5497
  106MOL    C5333863   6.330   1.896   2.460  0.2221 -0.0373  0.9914
  106MOL    C5433864   6.337   1.978   2.570  0.4892  0.4194 -0.1920
  106MOL   Cl5533865   6.444   1.933   2.702  0.0353  0.2462  0.2139
  106MOL    C5633866   6.267   2.100   2.576  0.1463 -0.6231 -0.3181
  106MOL    C5733867   6.176   2.127   2.477  0.0530  0.1608  0.1037
  106MOL    C5833868   6.127   2.076   2.115  0.5126  0.0378  0.4302
  106MOL    H5933869   6.024   2.183   2.261 -1.1217 -0.4636 -1.6790
  106MOL    H6033870   6.238   1.853   2.275 -0.1317  0.2074  0.3178
  106MOL    H6133871   6.383   1.802   2.457 -0.6864 -0.5714  1.7853
  106MOL    H6233872   6.283   2.170   2.657  0.1840 -1.2133  0.1909
  106MOL    H6333873   6.113   2.214   2.490  0.9848  0.7976  0.3341
  106MOL    H6433874   6.217   2.136   2.120  1.0915 -0.7929  0.0453
  106MOL    H6533875   6.150   1.971   2.099 -3.0461 -1.4874  4.2741
  106MOL    C6633876   6.040   2.139   1.999  0.1023  0.0528 -0.6429
  106MOL    C6733877   5.987   2.276   2.027 -0.2493  0.3745  0.4571
  106MOL    C6833878   6.072   2.386   1.999 -0.2765  0.1565  0.4706
  106MOL    C6933879   6.022   2.518   2.029  0.1106  0.0920 -0.0146
  106MOL    C7033880   5.894   2.537   2.081 -0.4408 -0.2929 -0.0887
  106MOL   Cl7133881   5.838   2.699   2.117 -0.1569 -0.2517  0.0502
  106MOL    C7233882   5.806   2.431   2.107 -0.4045 -0.1244  0.1090
  106MOL    C7333883   5.857   2.298   2.075  0.9457 -0.0643 -0.0346
  106MOL    C7433884   6.103   2.120   1.858 -0.3133  0.3395  0.7966
  106MOL    H7533885   5.958   2.068   2.000 -1.1733  1.4886 -1.0591
  106MOL    H7633886   6.168   2.366   1.954 -1.0602 -1.1821 -0.6339
  106MOL    H7733887   6.086   2.604   2.018 -0.0613  0.2462  0.1746
  106MOL    H7833888   5.710   2.458   2.146 -0.4768 -1.7263  1.0704
  106MOL    H7933889   5.793   2.211   2.079 -2.0809  2.1085  1.7273
  106MOL    H8033890   6.194   2.180   1.858  0.1347 -0.3365  0.6985
  106MOL    H8133891   6.133   2.017   1.840  0.2729  0.3578  1.6122
  106MOL    C8233892   6.000   2.148   1.738 -0.0883 -0.2180  0.1402
  106MOL    C8333893   6.056   2.223   1.617 -0.5649  0.7026  0.6546
  106MOL    C8433894   6.003   2.338   1.574  0.2406 -0.4250 -1.1396
  106MOL    C8533895   6.058   2.405   1.466  0.1720 -0.7395 -0.4535
  106MOL    C8633896   6.154   2.345   1.391  0.2368  0.1783  0.2979
  106MOL   Cl8733897   6.207   2.438   1.264 -0.1864 -0.0279  0.2003
  106MOL    C8833898   6.206   2.222   1.430 -0.2217 -0.0396  0.6262
  106MOL    C8933899   6.156   2.161   1.545 -0.0437  0.1208 -0.4033
  106MOL    C9033900   5.915   2.017   1.715  0.1808  0.7492  0.7058
  106MOL    H9133901   5.919   2.204   1.785  0.0200  0.6039 -0.6370
  106MOL    H9233902   5.919   2.386   1.623  1.1097  0.0806 -0.1332
  106MOL    H9333903   6.023   2.504   1.439 -0.5469 -1.0522 -0.6735
  106MOL    H9433904   6.268   2.175   1.356 -0.9287 -0.5902  0.3743
  106MOL    H9533905   6.190   2.063   1.576 -0.5023 -0.3387 -1.3124
  106MOL    H9633906   5.975   1.938   1.670 -0.2588 -0.1822  1.7227
  106MOL    H9733907   5.884   1.986   1.815 -0.9185  2.8221  1.0376
  106MOL    C9833908   5.787   2.032   1.625  0.1032 -0.3059  0.0468
  106MOL    C9933909   5.810   2.052   1.478 -0.5771 -0.2856 -0.6080
  106MOL   C10033910   5.751   2.168   1.420 -0.3006  0.4422 -0.3146
  106MOL   C10133911   5.764   2.196   1.287  0.3285 -0.5207  0.0222
  106MOL   C10233912   5.843   2.114   1.210  0.0244 -0.0568  0.2805
  106MOL  Cl10333913   5.874   2.163   1.048  0.4685 -0.0556 -0.2306
  106MOL   C10433914   5.899   1.999   1.263 -0.0795  0.4343 -0.5340
  106MOL   C10533915   5.888   1.970   1.401  0.1768  0.1181  0.1295
  106MOL   C10633916   5.693   1.909   1.637  0.5286 -0.2871  0.4581
  106MOL   H10733917   5.736   2.118   1.668 -4.0598 -1.9657 -1.2989
  106MOL   H10833918   5.694   2.234   1.484 -2.4105 -0.5254 -1.1458
  106MOL   H10933919   5.717   2.281   1.240  0.0727 -0.3151  0.6431
  106MOL   H11033920   5.961   1.934   1.204 -0.3830 -2.4587  2.1927
  106MOL   H11133921   5.939   1.885   1.444  0.3521  0.5551  0.7992
  106MOL   H11233922   5.731   1.824   1.580 -0.5537 -0.5785  0.1579
  106MOL   H11333923   5.699   1.872   1.739  1.8384 -1.0352  0.1252
  106MOL   C11433924   5.542   1.933   1.604 -0.0782 -0.3924  0.4662
  106MOL   C11533925   5.512   1.934   1.454 -0.7449 -0.2347  0.2550
  106MOL   C11633926   5.534   1.822   1.374 -0.7245  0.1129 -0.3536
  106MOL   C11733927   5.494   1.823   1.238 -0.2558 -0.2869  0.1155
  106MOL   C11833928   5.449   1.944   1.179  0.2677 -0.1915 -0.9954
  106MOL  Cl11933929   5.418   1.948   1.007 -0.2788 -0.0524  0.0074
  106MOL   C12033930   5.424   2.053   1.258  0.0075  0.1833 -0.0904
  106MOL   C12133931   5.455   2.049   1.400  0.2067 -0.3756  0.7707
  106MOL   C12233932   5.446   1.857   1.699 -0.0363  0.9997  0.2569
  106MOL   H12333933   5.518   2.039   1.614  0.8575 -0.1540  0.2094
  106MOL   H12433934   5.563   1.730   1.424  0.3992  0.0588 -1.0919
  106MOL   H12533935   5.517   1.735   1.181 -0.2406  0.4332 -0.9925
  106MOL   H12633936   5.382   2.138   1.205 -0.6416  0.5586  1.0218
  106MOL   H12733937   5.443   2.141   1.457 -0.5242  0.0396 -0.0415
  106MOL   H12833938   5.470   1.751   1.694 -0.3396  0.9297  0.3041
  106MOL   H12933939   5.460   1.901   1.797  1.7811  3.2344 -0.9487
  106MOL   C13033940   5.295   1.873   1.663  0.3156 -0.1735  0.0140
  106MOL   C13133941   5.214   1.752   1.700 -0.0444 -0.1850  0.0124
  106MOL   C13233942   5.200   1.706   1.834 -0.1330  0.3066 -0.5628
  106MOL   C13333943   5.117   1.596   1.867 -0.2292  0.5532 -0.0169
  106MOL   C13433944   5.050   1.525   1.769 -0.2425 -0.4487  0.1320
  106MOL  Cl13533945   4.946   1.400   1.820 -0.1851  0.1841  0.5212
  106MOL   C13633946   5.063   1.563   1.632 -0.5358  1.0920  0.5931
  106MOL   C13733947   5.143   1.677   1.601 -0.2436  0.4116 -0.5716
  106MOL   C13833948   5.238   2.007   1.723 -0.4770  0.1802  0.6097
  106MOL   H13933949   5.284   1.875   1.554  0.2106  0.2016  0.0312
  106MOL   H14033950   5.259   1.750   1.913 -2.5859 -0.1105  1.5543
  106MOL   H14133951   5.126   1.551   1.965  0.6230 -2.4235 -1.3824
  106MOL   H14233952   5.013   1.504   1.557  0.9276  0.4707  0.0895
  106MOL   H14333953   5.159   1.703   1.497  2.6495 -1.6822 -0.7170
  106MOL   H14433954   5.209   1.994   1.827  1.4014  0.3312  1.1761
  106MOL   H14533955   5.317   2.081   1.707 -0.3197 -0.5861 -2.4504
  106MOL   C14633956   5.118   2.065   1.646 -0.2536 -0.4779 -0.4599
  106MOL   C14733957   5.008   1.971   1.625 -0.3301  0.9978 -0.6776
  106MOL   C14833958   4.986   1.911   1.496  0.0062 -0.6758 -0.0171
  106MOL   C14933959   4.874   1.832   1.478  1.2074  0.1327  0.5997
  106MOL   C15033960   4.785   1.800   1.585 -0.2904 -0.9804 -0.2078
  106MOL  Cl15133961   4.636   1.719   1.558 -0.0814 -0.0736 -0.1265
  106MOL   C15233962   4.821   1.842   1.717  0.1275 -0.1314  1.0192
  106MOL   C15333963   4.926   1.934   1.734 -0.9446  0.3013 -0.1924
  106MOL   C15433964   5.070   2.194   1.708  0.5584  0.1693 -0.2882
  106MOL   H15533965   5.162   2.084   1.548 -1.2151  0.5761 -0.7020
  106MOL   H15633966   5.066   1.932   1.427 -0.1989  1.9279  0.4920
  106MOL   H15733967   4.841   1.804   1.379  1.2960 -1.0413  0.8925
  106MOL   H15833968   4.761   1.825   1.806 -1.4402  0.8153  0.1634
  106MOL   H15933969   4.940   1.979   1.831 -0.1851  0.6166 -0.4416
  106MOL   H16033970   4.968   2.198   1.669  0.3805 -2.3633 -0.2126
  106MOL   H16133971   5.054   2.191   1.816  0.0397  0.0960 -0.3627
  106MOL   C16233972   5.144   2.324   1.677 -0.4100  0.2042  0.3159
  106MOL   C16333973   5.162   2.354   1.525  0.2036 -0.1172 -0.0757
  106MOL   C16433974   5.292   2.389   1.474  0.3546 -0.0102  0.1581
  106MOL   C16533975   5.300   2.404   1.334 -0.2940  0.0383 -0.1887
  106MOL   C16633976   5.195   2.383   1.246 -0.7988  0.0722 -0.4214
  106MOL  Cl16733977   5.215   2.380   1.077  0.3042  0.0193 -0.0391
  106MOL   C16833978   5.069   2.359   1.304  0.0946  0.1183  0.4247
  106MOL   C16933979   5.046   2.346   1.443  0.4462 -0.0881 -0.1697
  106MOL   C17033980   5.084   2.443   1.755 -0.1151  0.1153 -0.3052
  106MOL   H17133981   5.241   2.312   1.726  0.3170  1.3952 -0.7947
  106MOL   H17233982   5.373   2.402   1.544  1.1211 -0.3763 -0.6422
  106MOL   H17333983   5.399   2.420   1.292  1.1905  1.7819  3.7387
  106MOL   H17433984   4.987   2.351   1.234 -0.1375  0.1377  0.6933
  106MOL   H17533985   4.943   2.335   1.475 -0.1741 -0.1737 -2.1285
  106MOL   H17633986   4.976   2.442   1.736  0.0582 -0.9905 -1.2736
  106MOL   H17733987   5.076   2.432   1.863 -0.4829 -0.7494 -0.4202
  106MOL   C17833988   5.147   2.584   1.717  0.0265  0.4281 -0.4537
  106MOL   C17933989   5.067   2.651   1.604 -0.5788 -0.3445 -0.2631
  106MOL   C18033990   5.130   2.685   1.477  0.7384 -0.0739  0.6123
  106MOL   C18133991   5.049   2.719   1.367 -0.1454  0.5505 -0.1996
  106MOL   C18233992   4.911   2.751   1.392 -0.1218  0.0833 -0.4788
  106MOL  Cl18333993   4.820   2.838   1.271 -0.0752 -0.1171 -0.3977
  106MOL   C18433994   4.855   2.740   1.521  0.6226 -0.2537  0.4618
  106MOL   C18533995   4.932   2.680   1.621 -0.1502 -0.2715  0.2414
  106MOL   C18633996   5.146   2.672   1.848  0.1547  0.2231 -0.1212
  106MOL   H18733997   5.251   2.572   1.687 -0.0253  0.1488 -0.5222
  106MOL   H18833998   5.236   2.672   1.462  0.2779 -0.0267 -3.1920
  106MOL   H18933999   5.081   2.742   1.266  2.0069 -0.0465  0.3174
  106MOL   H19034000   4.754   2.770   1.544  1.3325  1.3635  1.5646
  106MOL   H19134001   4.889   2.656   1.717  1.3881 -2.1079  0.4911
  106MOL   H19234002   5.046   2.668   1.891  0.2700 -0.8202  0.0629
  106MOL   H19334003   5.210   2.626   1.923  2.2671  0.2458 -1.8637
  106MOL   C19434004   5.182   2.822   1.818  0.1211  1.0428 -0.2674
  106MOL   C19534005   5.151   2.903   1.940  0.3398  0.0361  0.0418
  106MOL   C19634006   5.183   2.866   2.076 -0.0173  0.2199  0.3619
  106MOL   C19734007   5.156   2.949   2.187 -0.0047 -0.3608 -0.1063
  106MOL   C19834008   5.081   3.070   2.163 -0.6597  1.0669  0.0064
  106MOL  Cl19934009   5.032   3.170   2.300  0.3333 -0.2161  0.1881
  106MOL   C20034010   5.039   3.100   2.035 -0.5022  0.5397 -0.4033
  106MOL   C20134011   5.077   3.028   1.927 -0.4977  0.0914  0.4181
  106MOL   C20234012   5.328   2.844   1.763  0.1364 -0.0193 -0.2995
  106MOL   H20334013   5.117   2.874   1.748 -1.2612  0.7940  0.8135
  106MOL   H20434014   5.221   2.767   2.096  2.0656  0.2720 -2.9195
  106MOL   H20534015   5.178   2.930   2.291 -0.8810 -1.7902 -0.1638
  106MOL   H20634016   4.997   3.198   2.018  1.4319  1.2619 -1.1676
  106MOL   H20734017   5.044   3.063   1.831 -0.6276  1.0863  0.8245
  106MOL   H20834018   5.345   2.786   1.672 -0.0797  0.5544 -0.7096
  106MOL   H20934019   5.322   2.944   1.722 -1.2400  0.2585  0.5417
  106MOL   C21034020   5.458   2.835   1.859  0.1769 -0.7003 -0.2369
  106MOL   C21134021   5.504   2.691   1.860 -0.1581  0.6698  0.1890
  106MOL   C21234022   5.573   2.633   1.749  0.7523  0.0973 -0.0774
  106MOL   C21334023   5.606   2.499   1.743  0.1363  0.9923 -1.0082
  106MOL   C21434024   5.564   2.414   1.846  0.0360  0.0932  0.4790
  106MOL  Cl21534025   5.595   2.246   1.840  0.0050  0.0978  0.4081
  106MOL   C21634026   5.498   2.470   1.958 -0.2492  0.1229  0.4339
  106MOL   C21734027   5.465   2.609   1.966 -0.3087 -0.1735 -0.0672
  106MOL   C21834028   5.571   2.929   1.806  0.2742 -0.5649 -0.1108
  106MOL   H21934029   5.436   2.873   1.958 -1.3993 -0.4273 -0.6733
  106MOL   H22034030   5.591   2.689   1.658  1.4012  1.6892  1.0079
  106MOL   H22134031   5.658   2.467   1.654  2.1306 -0.3718  0.5902
  106MOL   H22234032   5.462   2.409   2.039 -0.2236 -0.5994 -0.0889
  106MOL   H22334033   5.412   2.645   2.052 -2.3577 -0.1361 -1.3057
  106MOL   H22434034   5.661   2.911   1.864  0.4217  1.9998  0.4936
  106MOL   H22534035   5.604   2.911   1.704  0.1763  4.0259 -1.0748
  106MOL   C22634036   5.536   3.084   1.828  0.3144  0.1767 -0.1722
  106MOL   C22734037   5.499   3.116   1.979 -0.3748 -0.0132  0.5084
  106MOL   C22834038   5.587   3.084   2.080 -0.3851  0.0360  0.2587
  106MOL   C22934039   5.571   3.125   2.213 -0.1019 -0.4644  1.0885
  106MOL   C23034040   5.454   3.192   2.247  0.1388 -0.5521  0.5152
  106MOL  Cl23134041   5.425   3.236   2.408 -0.3984 -0.2624  0.4700
  106MOL   C23234042   5.367   3.233   2.145 -0.2997  0.5713  0.2444
  106MOL   C23334043   5.386   3.197   2.009 -0.3829 -0.4313 -0.1543
  106MOL   C23434044   5.650   3.178   1.778 -0.0013  0.6519  0.0439
  106MOL   H23534045   5.442   3.107   1.778 -0.4351  1.5590  1.7935
  106MOL   H23634046   5.674   3.028   2.047 -0.4474 -1.0495  1.8329
  106MOL   H23734047   5.639   3.088   2.289  0.1721 -2.1653  0.0354
  106MOL   H23834048   5.275   3.282   2.174 -0.1092  2.2124 -1.7494
  106MOL   H23934049   5.323   3.241   1.934  0.7727  3.5777  1.1039
  106MOL   H24034050   5.722   3.179   1.860 -0.0686 -2.0863  0.1660
  106MOL   H24134051   5.704   3.143   1.691 -0.6727 -1.4911  0.4638
  106MOL   C24234052   5.619   3.323   1.749  0.1887  0.3661 -0.2861
  106MOL   C24334053   5.750   3.402   1.724  0.0443  0.0487  0.0148
  106MOL   C24434054   5.784   3.501   1.814 -0.6430  0.5744  0.8254
  106MOL   C24534055   5.896   3.578   1.791 -0.0952 -0.2280 -0.2020
  106MOL   C24634056   5.976   3.561   1.678 -0.0891  0.0805  0.2891
  106MOL  Cl24734057   6.087   3.689   1.643  0.3341 -0.0737  0.1513
  106MOL   C24834058   5.943   3.459   1.589 -0.3561  0.3629  0.5339
  106MOL   C24934059   5.831   3.381   1.613  0.0296  0.0824  0.3030
  106MOL   C25034060   5.495   3.360   1.652  0.2500 -0.0864  0.3205
  106MOL   H25134061   5.586   3.362   1.845  4.4297  2.5102  0.4349
  106MOL   H25234062   5.729   3.515   1.907  1.9089 -0.0079  2.4708
  106MOL   H25334063   5.922   3.660   1.856  1.6010 -0.2174 -0.8774
  106MOL   H25434064   6.009   3.435   1.507 -0.4090 -1.5984  1.0269
  106MOL   H25534065   5.810   3.301   1.543  0.8307  1.1191 -1.1399
  106MOL   H25634066   5.411   3.301   1.691 -2.8180  1.4182 -3.6952
  106MOL   H25734067   5.472   3.466   1.659 -1.6269 -0.4576  0.1076
  106MOL   C25834068   5.510   3.323   1.507  1.3244 -0.3446 -0.0744
  106MOL   C25934069   5.504   3.176   1.472  0.6044  0.5866 -1.0351
  106MOL   C26034070   5.380   3.110   1.490  0.2560 -1.0086  0.0917
  106MOL   C26134071   5.377   2.971   1.466  0.1319  0.2176 -0.5247
  106MOL   C26234072   5.493   2.897   1.426 -0.6780  0.1905  0.7938
  106MOL  Cl26334073   5.473   2.733   1.384 -0.0715  0.0025 -0.2216
  106MOL   C26434074   5.616   2.967   1.401  0.0951  0.5098 -0.1980
  106MOL   C26534075   5.621   3.108   1.423  0.5229 -0.6059  1.0046
  106MOL   C26634076   5.400   3.398   1.418 -0.0629  0.2306  0.3779
  106MOL   H26734077   5.611   3.361   1.489  1.2276  0.1045  0.3425
  106MOL   H26834078   5.290   3.159   1.525 -0.0441 -1.0010 -0.6875
  106MOL   H26934079   5.288   2.910   1.472  0.8254 -0.5873  2.4034
  106MOL   H27034080   5.706   2.918   1.366  0.7942  0.4010  1.6961
  106MOL   H27134081   5.716   3.159   1.412 -0.4344  0.7553 -1.4736
  106MOL   H27234082   5.428   3.374   1.316 -0.3422 -0.2675  0.4168
  106MOL   H27334083   5.296   3.367   1.430 -0.2114  0.6203  0.1055
  106MOL   C27434084   5.416   3.558   1.412 -0.3624  0.0365 -0.5384
  106MOL   C27534085   5.558   3.594   1.367 -0.4098 -0.3358 -0.3051
  106MOL   C27634086   5.586   3.605   1.229  0.2955  0.0062  0.9290
  106MOL   C27734087   5.709   3.662   1.194 -1.0255  0.7572  0.6597
  106MOL   C27834088   5.799   3.708   1.290 -0.4595  0.1998  0.4846
  106MOL  Cl27934089   5.937   3.790   1.237  0.0056 -0.2772 -0.1247
  106MOL   C28034090   5.771   3.694   1.430 -1.3956 -0.2195  1.0524
  106MOL   C28134091   5.646   3.638   1.467  0.2531 -0.4439  0.3883
  106MOL   C28234092   5.301   3.624   1.332 -0.4321  0.5735  0.2742
  106MOL   H28334093   5.400   3.599   1.511  0.4057 -0.7092 -0.0967
  106MOL   H28434094   5.514   3.581   1.153  0.1575 -0.6272  1.2464
  106MOL   H28534095   5.739   3.669   1.090  0.7048  0.3105  1.1061
  106MOL   H28634096   5.849   3.709   1.503 -0.5240 -1.2056  0.3276
  106MOL   H28734097   5.623   3.646   1.572  1.2364 -1.8327  0.7283
  106MOL   H28834098   5.293   3.581   1.232 -0.0155  1.5214 -0.1734
  106MOL   H28934099   5.210   3.585   1.378 -0.8341  0.3599 -0.6703
  106MOL   C29034100   5.303   3.778   1.320  0.4088  0.3044 -0.1820
  106MOL   C29134101   5.208   3.815   1.212  0.3082 -0.1773 -0.0222
  106MOL   C29234102   5.258   3.864   1.088 -0.0197  0.3734 -0.2315
  106MOL   C29334103   5.165   3.895   0.986 -0.5574  0.5675 -0.3979
  106MOL   C29434104   5.027   3.876   0.999  0.2116  0.7957 -0.6928
  106MOL  Cl29534105   4.919   3.908   0.867 -0.0712  0.1329 -0.4769
  106MOL   C29634106   4.981   3.835   1.126 -0.2728 -0.6341 -0.2079
  106MOL   C29734107   5.073   3.795   1.230  0.6427  0.1660 -0.2424
  106MOL   C29834108   5.267   3.841   1.453  0.4749 -0.6973 -0.1678
  106MOL   H29934109   5.401   3.816   1.290 -0.6099  1.6538 -1.8902
  106MOL   H30034110   5.365   3.875   1.081  0.2110  0.7033  2.9923
  106MOL   H30134111   5.209   3.928   0.893  1.3056  0.7936  0.5402
  106MOL   H30234112   4.876   3.817   1.142  0.4756 -2.4159  3.3222
  106MOL   H30334113   5.025   3.768   1.323 -3.5170 -0.9089 -2.5586
  106MOL   H30434114   5.173   3.795   1.482 -0.7027  0.6590 -1.7734
  106MOL   H30534115   5.342   3.810   1.526 -0.2763 -0.3656  0.7502
  106MOL   C30634116   5.261   3.994   1.454  0.4465 -0.5359 -0.2488
  106MOL   C30734117   5.240   4.040   1.602 -0.7931 -0.0825  0.1361
  106MOL   C30834118   5.110   4.063   1.644  0.0957 -0.3423  0.5350
  106MOL   C30934119   5.078   4.086   1.781  0.3431 -0.3500 -0.0471
  106MOL   C31034120   5.184   4.106   1.878  0.7977  0.1840  0.0597
  106MOL  Cl31134121   5.154   4.162   2.037 -0.1790 -0.0597 -0.1348
  106MOL   C31234122   5.316   4.076   1.832 -0.3003 -0.0342  0.1770
  106MOL   C31334123   5.341   4.046   1.696  0.1349 -0.0252 -0.0289
  106MOL   C31434124   5.384   4.059   1.390  0.3709 -0.3801 -0.3095
  106MOL   H31534125   5.184   4.024   1.383 -1.0904 -2.1916  0.6842
  106MOL   H31634126   5.034   4.053   1.568  2.2143 -0.6371 -1.6205
  106MOL   H31734127   4.978   4.098   1.819  0.7641 -1.5566  1.5341
  106MOL   H31834128   5.400   4.082   1.899 -0.4053 -2.3426  0.5585
  106MOL   H31934129   5.445   4.022   1.679  0.2431 -0.4554  1.1903
  106MOL   H32034130   5.390   4.167   1.400 -1.0350 -0.3389  0.1379
  106MOL   H32134131   5.480   4.032   1.434  0.8042 -2.2928 -2.3252
  106MOL   H32234132   5.392   4.046   1.282  1.0629 -1.4773 -0.1307
  107MOL     C134133   2.888   8.151   2.064  0.2673  0.3522  0.1322
  107MOL     C234134   3.001   8.231   2.013 -0.4688 -0.5575  0.4099
  107MOL     C334135   3.021   8.261   1.882  0.5960 -0.4746  0.0414
  107MOL     C434136   3.137   8.317   1.829  0.2808  0.5288  0.1337
  107MOL     C534137   3.239   8.348   1.921 -0.2925  0.3891 -0.2245
  107MOL    Cl634138   3.388   8.427   1.857  0.1478 -0.1653 -0.1281
  107MOL     C734139   3.222   8.325   2.058  0.1933 -0.2546 -0.0369
  107MOL     C834140   3.107   8.259   2.106  0.5345  0.6537 -0.0247
  107MOL     C934141   2.814   8.196   2.193 -0.1361 -0.1860  0.3357
  107MOL    H1034142   2.930   8.055   2.094 -0.7477 -0.4595 -1.0272
  107MOL    H1134143   2.941   8.231   1.817  0.7111  0.0988 -0.3638
  107MOL    H1234144   3.161   8.342   1.726  3.0904  1.2104  0.9116
  107MOL    H1334145   3.300   8.360   2.123 -1.1281  1.6457  0.5697
  107MOL    H1434146   3.106   8.232   2.210  0.5775  1.3641  0.1609
  107MOL    H1534147   2.885   8.201   2.276 -1.0797  1.4370  1.0780
  107MOL    H1634148   2.793   8.303   2.182  0.7360 -0.0842 -0.3856
  107MOL    H1734149   2.815   8.139   1.984  0.3473 -2.1076  0.4027
  107MOL    C1834150   2.683   8.124   2.227 -0.8674  0.6276  0.2643
  107MOL    C1934151   2.644   8.136   2.375  0.0950  0.3865  0.4008
  107MOL    C2034152   2.634   8.017   2.456  0.5047 -0.1358 -0.1798
  107MOL    C2134153   2.595   8.027   2.592  0.2512 -0.6713  0.0155
  107MOL    C2234154   2.563   8.153   2.650  0.2231  0.2828  0.0074
  107MOL   Cl2334155   2.532   8.150   2.820 -0.2571  0.0063  0.2404
  107MOL    C2434156   2.563   8.273   2.570 -0.2539  0.4107 -0.4813
  107MOL    C2534157   2.604   8.258   2.434 -0.3597  0.4150 -0.0296
  107MOL    C2634158   2.558   8.155   2.133  0.4103 -0.3042  0.5674
  107MOL    H2734159   2.710   8.020   2.210  1.3896  1.2831 -0.3708
  107MOL    H2834160   2.660   7.921   2.414 -0.5935 -1.2355  1.6515
  107MOL    H2934161   2.604   7.943   2.658 -1.9512  1.2411  2.9202
  107MOL    H3034162   2.561   8.368   2.621 -1.1064  0.0403  0.1872
  107MOL    H3134163   2.602   8.336   2.359 -0.8968 -1.1334 -1.6458
  107MOL    H3234164   2.549   8.264   2.130 -4.6130 -0.6737 -2.2929
  107MOL    H3334165   2.584   8.120   2.033 -0.3662  1.3230 -0.2101
  107MOL    C3434166   2.417   8.096   2.170  0.3867  0.1872 -0.3872
  107MOL    C3534167   2.316   8.170   2.088  0.6409 -0.4808  0.3029
  107MOL    C3634168   2.304   8.148   1.949 -0.0699  0.6335  0.0915
  107MOL    C3734169   2.233   8.238   1.874 -0.6217 -0.1761  0.5400
  107MOL    C3834170   2.159   8.345   1.933  0.1708  0.2398  0.6556
  107MOL   Cl3934171   2.061   0.008   1.837 -0.0593  0.3080  0.0872
  107MOL    C4034172   2.165   8.363   2.066  0.6347  0.5256 -0.2997
  107MOL    C4134173   2.255   8.285   2.145  0.8426  0.1294  0.3646
  107MOL    C4234174   2.418   7.941   2.140 -0.0569 -0.3239  0.6577
  107MOL    H4334175   2.392   8.116   2.274  3.8630  0.1230  0.5001
  107MOL    H4434176   2.359   8.073   1.895 -1.5347 -1.4923  1.4681
  107MOL    H4534177   2.229   8.228   1.767  0.1455  0.3895  0.4525
  107MOL    H4634178   2.115   8.441   2.121  0.0115  0.9499 -1.4557
  107MOL    H4734179   2.263   8.312   2.250  0.2633  2.2251 -0.1066
  107MOL    H4834180   2.444   7.915   2.037  0.2618 -2.0540  1.1578
  107MOL    H4934181   2.503   7.891   2.188 -0.8484 -0.6854  1.7091
  107MOL    C5034182   2.285   7.871   2.187 -0.1174  0.2971 -0.4232
  107MOL    C5134183   2.259   7.748   2.107  0.0012  0.6015 -0.3902
  107MOL    C5234184   2.346   7.636   2.114 -0.2327 -0.3018 -0.5418
  107MOL    C5334185   2.309   7.506   2.064  0.0226 -0.1120 -0.6461
  107MOL    C5434186   2.189   7.499   1.991  0.0383  0.4372  1.0165
  107MOL   Cl5534187   2.160   7.348   1.922  0.1096  0.1431  0.0190
  107MOL    C5634188   2.106   7.608   1.967  0.1366 -0.0331 -0.5791
  107MOL    C5734189   2.146   7.737   2.020  0.0228  0.6094 -0.5409
  107MOL    C5834190   2.292   7.840   2.336 -0.5949 -0.3402 -0.5041
  107MOL    H5934191   2.193   7.930   2.178  1.0285  2.2254  0.1753
  107MOL    H6034192   2.432   7.651   2.178 -1.1370  1.7043  0.2441
  107MOL    H6134193   2.355   7.409   2.077  1.4409  0.6344  0.1422
  107MOL    H6234194   2.012   7.598   1.914 -1.5450  1.5220  2.0317
  107MOL    H6334195   2.076   7.820   2.013 -0.9101  0.3765  4.1245
  107MOL    H6434196   2.380   7.776   2.345  0.9844  1.7851 -0.6051
  107MOL    H6534197   2.304   7.930   2.396  0.5447 -1.0920  0.4242
  107MOL    C6634198   2.174   7.754   2.391 -0.3353 -0.2197  0.2197
  107MOL    C6734199   2.210   7.695   2.531  0.0852 -0.4287  0.2729
  107MOL    C6834200   2.223   7.554   2.540 -1.0244  0.0699 -0.1520
  107MOL    C6934201   2.282   7.498   2.653 -0.4024  0.0068 -0.0766
  107MOL    C7034202   2.322   7.578   2.755 -0.8345  0.1129 -1.0081
  107MOL   Cl7134203   2.382   7.498   2.895 -0.0633  0.2658  0.0658
  107MOL    C7234204   2.298   7.714   2.757 -0.5348 -0.0084  0.2575
  107MOL    C7334205   2.249   7.775   2.638 -0.4934  0.9099 -0.1564
  107MOL    C7434206   2.045   7.835   2.392 -0.3906 -0.2005 -0.3017
  107MOL    H7534207   2.170   7.666   2.326  4.9476 -0.3360 -0.1896
  107MOL    H7634208   2.200   7.488   2.459 -2.9001 -1.6428  1.7150
  107MOL    H7734209   2.310   7.393   2.658  0.5531  0.1690 -1.6131
  107MOL    H7834210   2.322   7.779   2.840  1.1207 -1.0292  0.5889
  107MOL    H7934211   2.237   7.882   2.634  0.4008  1.0211 -0.1102
  107MOL    H8034212   2.047   7.929   2.447 -0.8772 -0.7164  0.6183
  107MOL    H8134213   2.015   7.869   2.293 -2.5791  1.3133  0.8392
  107MOL    C8234214   1.927   7.752   2.438  0.5384 -0.5709  0.2607
  107MOL    C8334215   1.801   7.837   2.459 -0.3454  0.6601 -0.1880
  107MOL    C8434216   1.744   7.843   2.592 -0.4298  0.4057 -0.4671
  107MOL    C8534217   1.631   7.923   2.613 -0.3637  0.0068 -0.2438
  107MOL    C8634218   1.577   8.000   2.503 -0.7763  0.0922  0.3332
  107MOL   Cl8734219   1.438   8.103   2.515  0.4950 -0.2283 -0.1981
  107MOL    C8834220   1.640   7.998   2.381 -0.2461  0.6538  0.3638
  107MOL    C8934221   1.747   7.911   2.356  0.0998  0.3269  0.3611
  107MOL    C9034222   1.898   7.646   2.329  0.0887 -0.2880 -0.6833
  107MOL    H9134223   1.949   7.700   2.530  1.1603  0.1993  0.5565
  107MOL    H9234224   1.782   7.788   2.677 -0.6799  1.4685  0.3339
  107MOL    H9334225   1.580   7.913   2.708 -2.6650 -0.8220 -1.5171
  107MOL    H9434226   1.614   8.066   2.302 -0.1829  0.4067  0.1300
  107MOL    H9534227   1.785   7.908   2.254  1.7266  0.3802  0.9500
  107MOL    H9634228   1.918   7.684   2.229  1.7933 -1.6776 -0.9074
  107MOL    H9734229   1.978   7.574   2.345  0.5838  0.4837  0.3212
  107MOL    C9834230   1.760   7.569   2.340 -0.0784  0.2900 -0.1985
  107MOL    C9934231   1.746   7.464   2.226 -0.0314 -0.3904  0.2494
  107MOL   C10034232   1.858   7.372   2.199  0.3644 -0.3317 -1.0659
  107MOL   C10134233   1.841   7.272   2.104  0.1122  0.2403  0.3875
  107MOL   C10234234   1.719   7.269   2.029  0.1880 -0.1011  0.7804
  107MOL  Cl10334235   1.694   7.145   1.920  0.1728  0.6182  0.3235
  107MOL   C10434236   1.615   7.351   2.051 -0.1030 -0.2266  0.3179
  107MOL   C10534237   1.627   7.452   2.148  0.5056 -0.5106  0.7326
  107MOL   C10634238   1.735   7.496   2.479 -0.0152  0.3595  0.2823
  107MOL   H10734239   1.682   7.642   2.318 -2.3433 -1.3032  2.1300
  107MOL   H10834240   1.947   7.383   2.260  0.7821 -1.0198 -1.5526
  107MOL   H10934241   1.915   7.195   2.089 -0.1623  0.1906 -0.7607
  107MOL   H11034242   1.514   7.347   2.014 -0.5884  3.2274  1.0171
  107MOL   H11134243   1.550   7.527   2.154 -1.0164 -2.0314  0.6416
  107MOL   H11234244   1.809   7.418   2.496 -0.2275  0.4381  1.6312
  107MOL   H11334245   1.746   7.568   2.560 -0.1135  0.4824  0.1864
  107MOL   C11434246   1.589   7.439   2.490 -0.4490 -0.1919 -0.2299
  107MOL   C11534247   1.569   7.369   2.622 -0.2079  0.4577 -0.2058
  107MOL   C11634248   1.490   7.249   2.627 -0.1490 -0.3885  0.6706
  107MOL   C11734249   1.470   7.185   2.750 -0.2533 -0.1136 -0.2519
  107MOL   C11834250   1.511   7.252   2.868 -0.1161 -0.2085 -0.0896
  107MOL  Cl11934251   1.455   7.193   3.019 -0.0899 -0.1342 -0.0581
  107MOL   C12034252   1.598   7.359   2.861  0.0405  0.5616  0.3106
  107MOL   C12134253   1.623   7.424   2.738  0.6729 -0.4244  0.7283
  107MOL   C12234254   1.486   7.552   2.482 -0.0354 -0.2490 -0.5606
  107MOL   H12334255   1.581   7.353   2.424  0.7494 -1.7704  1.6250
  107MOL   H12434256   1.451   7.208   2.535 -1.4174  0.1885  0.9393
  107MOL   H12534257   1.422   7.089   2.760 -1.0713  0.3525  0.4044
  107MOL   H12634258   1.634   7.398   2.956  0.8205 -2.0704  1.1566
  107MOL   H12734259   1.690   7.508   2.729 -0.8707  0.5571 -2.3334
  107MOL   H12834260   1.486   7.607   2.576  0.7254 -2.0453  0.5227
  107MOL   H12934261   1.498   7.620   2.398  0.3280  0.5192  0.1035
  107MOL   C13034262   1.338   7.501   2.471  0.3574 -0.2409  0.2149
  107MOL   C13134263   1.240   7.616   2.507 -0.1420  0.1064 -0.1219
  107MOL   C13234264   1.210   7.723   2.419 -0.3979 -0.3403  0.0485
  107MOL   C13334265   1.120   7.820   2.464 -0.1913 -0.7586  0.1679
  107MOL   C13434266   1.062   7.814   2.596  0.3497 -0.0671  0.3784
  107MOL  Cl13534267   0.937   7.919   2.643 -0.0562  0.0667  0.3662
  107MOL   C13634268   1.106   7.714   2.685  0.4773 -0.1980 -0.9975
  107MOL   C13734269   1.193   7.615   2.639  0.0028  0.5380  0.0164
  107MOL   C13834270   1.304   7.446   2.334  0.6115  0.2597  0.5262
  107MOL   H13934271   1.319   7.426   2.548  1.4077  0.0625  0.7809
  107MOL   H14034272   1.240   7.725   2.315 -2.5321 -0.7842 -0.6026
  107MOL   H14134273   1.082   7.890   2.391 -1.0469 -2.3618 -0.9667
  107MOL   H14234274   1.058   7.712   2.782  0.2170 -0.7017 -1.1339
  107MOL   H14334275   1.213   7.531   2.704  1.0882 -0.2380 -1.2950
  107MOL   H14434276   1.302   7.524   2.258 -1.9812  0.1945  0.4920
  107MOL   H14534277   1.388   7.380   2.311 -0.2129 -1.6611  2.7920
  107MOL   C14634278   1.173   7.373   2.322  0.5722  0.3358  0.3738
  107MOL   C14734279   1.140   7.351   2.174  0.1840 -0.5688  0.5880
  107MOL   C14834280   1.234   7.304   2.083  0.3183 -0.0639 -0.3518
  107MOL   C14934281   1.196   7.296   1.949 -0.4100 -0.6295 -0.3399
  107MOL   C15034282   1.071   7.326   1.904 -0.1047  0.4371 -0.4997
  107MOL  Cl15134283   1.035   7.306   1.729 -0.1494 -0.4920  0.1994
  107MOL   C15234284   0.972   7.370   1.995  0.5657 -0.3247 -0.2186
  107MOL   C15334285   1.011   7.384   2.130 -0.0040 -0.3969  0.2791
  107MOL   C15434286   1.174   7.244   2.392  0.0001 -0.1420  0.1854
  107MOL   H15534287   1.095   7.441   2.356  0.6450  0.6400 -0.0680
  107MOL   H15634288   1.324   7.263   2.127 -1.0985  1.0780  3.9127
  107MOL   H15734289   1.267   7.260   1.876 -0.9985 -1.2097 -0.6241
  107MOL   H15834290   0.872   7.392   1.962  0.2981  0.0965  0.8435
  107MOL   H15934291   0.946   7.424   2.207 -0.8750 -3.0976  1.0030
  107MOL   H16034292   1.242   7.175   2.342  1.6343 -0.3440  2.6071
  107MOL   H16134293   1.200   7.252   2.498 -0.0967 -1.0090  0.2849
  107MOL   C16234294   1.046   7.159   2.391  0.5175  0.2651  0.8221
  107MOL   C16334295   1.083   7.018   2.448  0.0930  0.0412 -0.3862
  107MOL   C16434296   1.107   6.992   2.581 -0.8321 -0.6542 -0.4518
  107MOL   C16534297   1.131   6.869   2.641  0.0534  0.4339  0.8271
  107MOL   C16634298   1.139   6.756   2.557  0.4198  0.0964  0.1536
  107MOL  Cl16734299   1.174   6.596   2.613 -0.0817  0.2822 -0.0459
  107MOL   C16834300   1.123   6.778   2.414 -0.1533  0.2126 -0.1822
  107MOL   C16934301   1.082   6.905   2.367  0.2115  0.1201 -0.4343
  107MOL   C17034302   0.939   7.234   2.470 -0.9535  0.4327 -0.2811
  107MOL   H17134303   1.021   7.151   2.285 -0.0706 -0.8844  1.0349
  107MOL   H17234304   1.110   7.077   2.647 -1.6508 -1.1417  0.2184
  107MOL   H17334305   1.153   6.852   2.745 -2.4939 -2.5340  0.9665
  107MOL   H17434306   1.118   6.687   2.357 -0.1512 -0.0578  0.2485
  107MOL   H17534307   1.067   6.919   2.261 -0.6487 -1.8338 -0.5866
  107MOL   H17634308   0.970   7.279   2.564  0.4619  1.4836 -1.2307
  107MOL   H17734309   0.915   7.322   2.411 -3.1151 -0.3049 -0.5303
  107MOL   C17834310   0.796   7.175   2.485 -0.0646  0.5899  0.6781
  107MOL   C17934311   0.729   7.140   2.351 -0.3723  0.5320  0.2255
  107MOL   C18034312   0.768   7.031   2.273  0.3424  0.3990  0.4257
  107MOL   C18134313   0.687   6.986   2.172 -0.1588  0.6953  0.6704
  107MOL   C18234314   0.576   7.063   2.131  0.6446  0.3420  0.1245
  107MOL  Cl18334315   0.488   7.011   1.995  0.1897 -0.0739  0.4355
  107MOL   C18434316   0.538   7.179   2.197  0.0311 -0.2192 -1.0993
  107MOL   C18534317   0.613   7.214   2.310  0.6406  0.4739 -0.1963
  107MOL   C18634318   0.768   7.075   2.598 -0.0356 -0.2820 -0.2375
  107MOL   H18734319   0.743   7.265   2.517 -1.6016  0.4042 -1.3072
  107MOL   H18834320   0.853   6.971   2.302 -0.6559 -1.4949 -0.4160
  107MOL   H18934321   0.701   6.893   2.119 -1.6825  0.9749 -0.2635
  107MOL   H19034322   0.446   7.228   2.168 -0.1543  1.1336  1.6126
  107MOL   H19134323   0.561   7.284   2.373  0.6816 -0.5761  1.0252
  107MOL   H19234324   0.815   6.979   2.578 -1.3640 -0.8105 -0.8566
  107MOL   H19334325   0.811   7.108   2.693  1.5837 -1.6436 -0.4713
  107MOL   C19434326   0.615   7.033   2.624  0.0065 -0.0208  0.0150
  107MOL   C19534327   0.580   6.902   2.553  0.2944  0.1049  0.5292
  107MOL   C19634328   0.647   6.782   2.574 -0.0950 -0.2414  0.0477
  107MOL   C19734329   0.630   6.670   2.497  0.0007 -0.1540 -0.1253
  107MOL   C19834330   0.530   6.668   2.393 -0.7487 -0.2769 -0.0970
  107MOL  Cl19934331   0.476   6.524   2.300  0.2168  0.3723 -0.3210
  107MOL   C20034332   0.452   6.789   2.377 -0.1661  0.2717  0.3114
  107MOL   C20134333   0.481   6.900   2.454 -0.8299 -0.2396  1.1755
  107MOL   C20234334   0.588   7.034   2.770  0.0641 -0.5072  0.8490
  107MOL   H20334335   0.547   7.103   2.577  0.0950 -0.7090 -1.1536
  107MOL   H20434336   0.727   6.783   2.646  1.2500  0.2412 -1.4242
  107MOL   H20534337   0.688   6.581   2.514 -0.5001 -0.0781  2.2333
  107MOL   H20634338   0.388   6.792   2.289  1.0226 -1.9619 -0.6534
  107MOL   H20734339   0.420   6.987   2.439 -0.7090 -0.6792 -2.3073
  107MOL   H20834340   0.483   7.004   2.779 -0.4211  1.6039  2.8349
  107MOL   H20934341   0.653   6.956   2.809 -1.8397 -2.0176  1.0961
  107MOL   C21034342   0.598   7.170   2.850  0.4329 -0.1250 -0.0569
  107MOL   C21134343   0.531   7.289   2.779 -0.3537  0.3747 -0.0509
  107MOL   C21234344   0.597   7.408   2.745 -0.3734 -0.0708 -0.5651
  107MOL   C21334345   0.531   7.520   2.683  0.2865  0.2852  0.2183
  107MOL   C21434346   0.399   7.506   2.641  0.0616  0.0004  0.4177
  107MOL  Cl21534347   0.320   7.623   2.546  0.2204  0.3622  0.0551
  107MOL   C21634348   0.339   7.383   2.663 -0.3759 -0.9957  0.0753
  107MOL   C21734349   0.399   7.275   2.733  0.0278 -0.0412 -0.5331
  107MOL   C21834350   0.545   7.164   2.997 -0.2634 -0.3427  0.5037
  107MOL   H21934351   0.706   7.180   2.854  0.5302 -1.2705  0.6433
  107MOL   H22034352   0.699   7.423   2.776 -0.4534 -1.4257  0.4006
  107MOL   H22134353   0.583   7.613   2.668 -0.4231  0.4873 -1.0893
  107MOL   H22234354   0.235   7.376   2.635 -0.5123 -3.1453  1.0350
  107MOL   H22334355   0.345   7.182   2.749  0.7605 -0.3673  0.0470
  107MOL   H22434356   0.447   7.116   2.993  0.1004 -1.0754  0.2417
  107MOL   H22534357   0.615   7.091   3.037  1.7345  2.2394  1.8122
  107MOL   C22634358   0.544   7.294   3.078  0.0301  0.5160  0.4222
  107MOL   C22734359   0.414   7.374   3.060  0.4909  0.1731  0.2896
  107MOL   C22834360   0.288   7.315   3.103 -0.5044  0.1596  0.1201
  107MOL   C22934361   0.164   7.377   3.067 -0.7416 -0.2680 -0.2456
  107MOL   C23034362   0.167   7.504   3.011 -0.8369  0.4575  0.3285
  107MOL  Cl23134363   0.015   7.575   2.985  0.2446 -0.2275 -0.4798
  107MOL   C23234364   0.289   7.568   2.981 -0.8522  0.6368  0.1336
  107MOL   C23334365   0.413   7.506   3.011 -0.2334 -0.2697 -0.1026
  107MOL   C23434366   0.567   7.267   3.228  1.0951 -0.2572  0.6986
  107MOL   H23534367   0.625   7.350   3.031  0.5739  0.2860  1.0750
  107MOL   H23634368   0.299   7.215   3.143  2.0507  0.8111  1.1379
  107MOL   H23734369   0.066   7.334   3.086 -1.5537 -0.0821 -3.7209
  107MOL   H23834370   0.300   7.671   2.950  1.6405  0.8970  1.6904
  107MOL   H23934371   0.508   7.547   2.979  0.8358 -2.6319 -0.0719
  107MOL   H24034372   0.532   7.355   3.282 -1.9948 -0.5222 -0.7904
  107MOL   H24134373   0.498   7.188   3.257 -0.9953  0.9656 -0.8277
  107MOL   C24234374   0.709   7.237   3.271 -0.0115 -0.5369  0.0374
  107MOL   C24334375   0.816   7.331   3.216  0.6345 -0.6764 -0.0924
  107MOL   C24434376   0.928   7.290   3.145 -0.0772 -0.6960  0.0998
  107MOL   C24534377   1.029   7.374   3.104 -0.2741 -0.3866  0.1345
  107MOL   C24634378   1.006   7.514   3.109  0.1606  0.1036 -0.7544
  107MOL  Cl24734379   1.115   7.627   3.027 -0.0166 -0.0933  0.1686
  107MOL   C24834380   0.890   7.559   3.160 -0.3134 -1.0643 -0.2181
  107MOL   C24934381   0.794   7.469   3.212  0.0977 -0.1118 -0.3236
  107MOL   C25034382   0.727   7.233   3.427  0.2536  0.0328  0.3204
  107MOL   H25134383   0.733   7.141   3.225 -0.7923 -1.6460  1.8553
  107MOL   H25234384   0.944   7.183   3.147 -0.7437 -0.8864 -2.5585
  107MOL   H25334385   1.122   7.342   3.060  0.0196  0.6460 -0.0022
  107MOL   H25434386   0.880   7.666   3.151  1.0101 -0.7407  1.7651
  107MOL   H25534387   0.701   7.515   3.241  0.4048  0.1036  0.3271
  107MOL   H25634388   0.831   7.246   3.455  0.5815  0.1533 -0.9351
  107MOL   H25734389   0.666   7.314   3.468 -1.3729 -0.9120 -0.1630
  107MOL   C25834390   0.686   7.093   3.486 -0.5487 -0.4727 -0.4997
  107MOL   C25934391   0.768   6.974   3.436  0.0379 -0.5998 -0.3927
  107MOL   C26034392   0.905   6.969   3.437  0.3594  0.2166 -0.2753
  107MOL   C26134393   0.971   6.850   3.385 -0.7835 -0.5515  0.1613
  107MOL   C26234394   0.902   6.737   3.341  0.5183 -0.1252 -0.7102
  107MOL  Cl26334395   0.982   6.608   3.262  0.1905 -0.2253  0.6260
  107MOL   C26434396   0.768   6.736   3.369  0.0803 -0.2468  0.5484
  107MOL   C26534397   0.697   6.856   3.408 -0.0878  0.2307 -0.2820
  107MOL   C26634398   0.690   7.103   3.641  0.1634 -0.1119 -0.5439
  107MOL   H26734399   0.580   7.075   3.471 -1.0177 -0.2358  2.3136
  107MOL   H26834400   0.969   7.054   3.453  0.2206 -0.0709  1.9571
  107MOL   H26934401   1.075   6.866   3.361 -1.6627  0.5931 -3.3355
  107MOL   H27034402   0.714   6.643   3.356 -0.8794  0.3688  0.1197
  107MOL   H27134403   0.589   6.852   3.415 -0.0513 -0.5435 -0.0540
  107MOL   H27234404   0.793   7.111   3.673 -0.3685 -0.4633  1.3030
  107MOL   H27334405   0.637   7.196   3.665 -2.2667 -1.4507 -0.5897
  107MOL   C27434406   0.606   7.004   3.727 -0.2499  0.2509 -0.1876
  107MOL   C27534407   0.461   7.000   3.691 -0.0489  0.0723 -0.0198
  107MOL   C27634408   0.384   7.111   3.730  0.3220 -0.4838  0.0835
  107MOL   C27734409   0.246   7.113   3.718 -0.6511 -0.4837 -0.6663
  107MOL   C27834410   0.180   6.995   3.681  0.3651 -0.8620  0.2281
  107MOL  Cl27934411   0.010   6.986   3.672 -0.0853 -0.0441 -0.3864
  107MOL   C28034412   0.255   6.881   3.647 -0.1992 -0.0485  0.6618
  107MOL   C28134413   0.400   6.884   3.647  0.3082 -0.0794  0.5808
  107MOL   C28234414   0.669   6.861   3.744 -0.3068 -0.8104 -0.6234
  107MOL   H28334415   0.615   7.046   3.827  0.5087 -1.2764  0.3952
  107MOL   H28434416   0.418   7.198   3.783 -0.6957 -0.8759  1.3892
  107MOL   H28534417   0.199   7.202   3.758  0.5764 -0.0714 -0.1256
  107MOL   H28634418   0.197   6.794   3.618  1.3424 -0.3478 -1.6605
  107MOL   H28734419   0.450   6.794   3.615 -0.1835  0.4596 -1.8260
  107MOL   H28834420   0.612   6.801   3.815  1.0455 -1.1657  0.1830
  107MOL   H28934421   0.652   6.815   3.647  0.3584 -0.9085 -0.6992
  107MOL   C29034422   0.810   6.858   3.801 -0.2954 -0.4306 -1.2886
  107MOL   C29134423   0.811   6.878   3.954  0.2395  0.1891 -0.2567
  107MOL   C29234424   0.862   7.000   4.002  0.2758  0.2614  0.6605
  107MOL   C29334425   0.861   7.029   4.137 -0.3710 -0.3920 -0.6562
  107MOL   C29434426   0.835   6.928   4.229 -0.2856  0.9168 -0.6162
  107MOL  Cl29534427   0.847   6.951   4.392 -0.0206 -0.2799 -0.6021
  107MOL   C29634428   0.786   6.804   4.181 -0.2786 -0.4492  0.1439
  107MOL   C29734429   0.771   6.779   4.045  1.0514 -0.4251 -0.6198
  107MOL   C29834430   0.889   6.728   3.763  0.3112  0.4998 -0.1088
  107MOL   H29934431   0.860   6.941   3.751  0.1232  0.1171  0.0214
  107MOL   H30034432   0.907   7.075   3.940  0.2807  0.6592  1.1432
  107MOL   H30134433   0.904   7.115   4.185 -0.1469  0.4111 -2.2578
  107MOL   H30234434   0.773   6.720   4.248 -1.1380  0.2293  0.8425
  107MOL   H30334435   0.743   6.683   4.003  0.0113  0.6432 -2.4769
  107MOL   H30434436   0.833   6.639   3.791  0.9550  0.4195  0.9391
  107MOL   H30534437   0.879   6.723   3.654 -2.0656 -1.1403  0.1446
  107MOL   C30634438   1.032   6.706   3.812  0.2043 -0.5582  0.5920
  107MOL   C30734439   1.077   6.565   3.781 -0.9168  0.7944 -0.5904
  107MOL   C30834440   1.126   6.472   3.881  0.0350 -0.1388 -0.4490
  107MOL   C30934441   1.176   6.347   3.840 -0.6826  1.0069 -0.0257
  107MOL   C31034442   1.157   6.306   3.706 -0.2349  0.7981 -0.0466
  107MOL  Cl31134443   1.199   6.148   3.668 -0.0204 -0.3433 -0.3452
  107MOL   C31234444   1.096   6.391   3.613 -0.7864  0.1012 -0.4172
  107MOL   C31334445   1.066   6.522   3.646  0.4276 -0.1435 -0.9182
  107MOL   C31434446   1.130   6.804   3.748 -0.5386 -0.1408 -0.5312
  107MOL   H31534447   1.033   6.709   3.921  0.9046 -1.6281  0.6232
  107MOL   H31634448   1.130   6.514   3.980 -0.5599  1.2855 -1.0231
  107MOL   H31734449   1.226   6.280   3.908 -0.4028  0.2043 -1.0114
  107MOL   H31834450   1.072   6.367   3.510  0.0814  1.5798 -0.9923
  107MOL   H31934451   1.027   6.599   3.581 -2.1260  0.5396  1.3207
  107MOL   H32034452   1.142   6.797   3.640  0.4691 -2.2431 -0.3065
  107MOL   H32134453   1.116   6.906   3.785  3.8444  0.5845 -0.6674
  107MOL   H32234454   1.222   6.773   3.798 -0.5582  2.3154  1.1230
  108MOL     C134455   6.987   2.921   3.723 -0.2210 -0.0878  0.0623
  108MOL     C234456   7.093   3.003   3.797 -0.5033 -1.2694 -0.6109
  108MOL     C334457   7.229   2.998   3.755  0.4518 -0.7228  0.1052
  108MOL     C434458   7.315   3.093   3.808 -0.1947  0.4226  0.1371
  108MOL     C534459   7.274   3.190   3.909 -0.3371  0.1307  0.7977
  108MOL    Cl634460   7.383   3.304   3.976  0.2010 -0.2500 -0.2543
  108MOL     C734461   7.143   3.186   3.955  0.7676 -0.3970  0.1184
  108MOL     C834462   7.052   3.096   3.899  0.2100 -0.1246  0.2635
  108MOL     C934463   6.868   2.865   3.819 -0.9410  0.2440  0.4755
  108MOL    H1034464   7.025   2.832   3.672 -0.4439  0.0159 -0.2806
  108MOL    H1134465   7.263   2.929   3.679 -3.0882 -0.7425 -1.5740
  108MOL    H1234466   7.419   3.099   3.781 -0.5063  0.5869 -1.0286
  108MOL    H1334467   7.115   3.259   4.029  2.4523 -0.2828  0.6833
  108MOL    H1434468   6.949   3.104   3.931  0.0855 -1.4637  0.2345
  108MOL    H1534469   6.919   2.804   3.894  1.6871  3.3008  1.2981
  108MOL    H1634470   6.816   2.944   3.874  0.5739  3.0353 -1.9657
  108MOL    H1734471   6.948   2.981   3.641 -0.7126 -1.5784 -0.8316
  108MOL    C1834472   6.763   2.779   3.766 -0.4894  0.3285 -0.5434
  108MOL    C1934473   6.649   2.860   3.701  0.0507  0.1500  0.2646
  108MOL    C2034474   6.523   2.866   3.757  0.2882  0.9273  0.2095
  108MOL    C2134475   6.418   2.938   3.690  0.6561  0.3368  0.8588
  108MOL    C2234476   6.453   3.019   3.581  0.2088  0.7468  1.2613
  108MOL   Cl2334477   6.338   3.119   3.506  0.2087  0.1661 -0.1519
  108MOL    C2434478   6.583   3.022   3.531 -0.5990  0.6160 -0.6406
  108MOL    C2534479   6.676   2.939   3.586  0.3162  0.1995 -0.0171
  108MOL    C2634480   6.810   2.665   3.668 -0.3003 -0.3240 -0.4702
  108MOL    H2734481   6.725   2.733   3.857 -0.0448 -0.7669 -0.8976
  108MOL    H2834482   6.498   2.817   3.850  1.0539 -2.7298 -1.4229
  108MOL    H2934483   6.320   2.929   3.733  0.4913  1.2202  0.6721
  108MOL    H3034484   6.608   3.086   3.447  0.4088  0.4778 -0.4527
  108MOL    H3134485   6.771   2.928   3.536  0.1088  1.7256 -0.7855
  108MOL    H3234486   6.803   2.706   3.568  1.5631 -1.9045 -1.2710
  108MOL    H3334487   6.915   2.643   3.688 -0.2454  0.6300  0.3116
  108MOL    C3434488   6.726   2.526   3.671 -0.0714 -0.2092 -0.5408
  108MOL    C3534489   6.586   2.541   3.614 -0.5356 -0.1664  0.6446
  108MOL    C3634490   6.485   2.463   3.668  0.7075 -0.5963 -0.6088
  108MOL    C3734491   6.357   2.468   3.618 -0.3767  0.4470  0.6167
  108MOL    C3834492   6.326   2.552   3.511  0.1009 -0.3475 -0.3404
  108MOL   Cl3934493   6.182   2.528   3.422  0.0112 -0.1275 -0.0974
  108MOL    C4034494   6.424   2.635   3.454  0.2497  0.2792 -0.4928
  108MOL    C4134495   6.558   2.632   3.506  0.0928  0.5897 -0.5242
  108MOL    C4234496   6.804   2.420   3.591 -0.0509 -0.4434  0.6921
  108MOL    H4334497   6.710   2.495   3.775 -0.7918  0.5318 -0.4244
  108MOL    H4434498   6.505   2.395   3.749  1.4405 -0.8455 -0.9903
  108MOL    H4534499   6.278   2.400   3.646 -0.8636  1.4473  1.6939
  108MOL    H4634500   6.406   2.682   3.358  1.2784  0.7944 -0.4438
  108MOL    H4734501   6.633   2.693   3.458  0.2101  2.2931  1.7377
  108MOL    H4834502   6.734   2.341   3.561  1.4614 -2.4571  2.3668
  108MOL    H4934503   6.850   2.475   3.509 -0.2526  0.4130  1.1497
  108MOL    C5034504   6.914   2.344   3.659 -0.0724  0.4173 -0.0176
  108MOL    C5134505   6.876   2.280   3.791  0.3604  0.4532  0.4601
  108MOL    C5234506   6.755   2.204   3.807 -0.4238 -0.0619  0.0421
  108MOL    C5334507   6.704   2.168   3.935  0.0688  0.1226  0.0650
  108MOL    C5434508   6.783   2.203   4.046 -0.1710  0.2085  0.1269
  108MOL   Cl5534509   6.741   2.153   4.209 -0.5487  0.2347  0.3636
  108MOL    C5634510   6.898   2.285   4.033  0.6865  0.1919  0.2667
  108MOL    C5734511   6.944   2.328   3.910  0.8132 -0.2358 -0.2092
  108MOL    C5834512   6.980   2.238   3.569  0.0865 -0.1449  0.2087
  108MOL    H5934513   7.000   2.408   3.682  1.0148 -1.1719  0.4000
  108MOL    H6034514   6.707   2.170   3.717  1.0344  0.8892 -1.1023
  108MOL    H6134515   6.614   2.108   3.940 -0.1988  0.3213 -1.8863
  108MOL    H6234516   6.959   2.317   4.116  0.8648 -1.4294  0.7871
  108MOL    H6334517   7.038   2.381   3.906  0.0011  1.2460  0.0297
  108MOL    H6434518   7.059   2.187   3.624  1.3334  0.3048 -1.1286
  108MOL    H6534519   6.909   2.158   3.548 -0.5012  0.6202 -0.7733
  108MOL    C6634520   7.048   2.276   3.438 -0.2316 -0.6877  0.1951
  108MOL    C6734521   7.165   2.183   3.403  0.0845 -0.0550 -0.4929
  108MOL    C6834522   7.141   2.044   3.393  0.1201 -0.5641  0.0019
  108MOL    C6934523   7.249   1.957   3.375 -0.2597 -0.0994 -0.3711
  108MOL    C7034524   7.376   2.014   3.356 -0.6192  0.6660  0.2915
  108MOL   Cl7134525   7.507   1.916   3.314 -0.2210  0.0715  0.2369
  108MOL    C7234526   7.400   2.148   3.374 -0.2560  0.2189  0.5460
  108MOL    C7334527   7.296   2.236   3.408  0.8050 -0.6250  0.0177
  108MOL    C7434528   6.949   2.278   3.324 -0.1616  0.0823 -0.0805
  108MOL    H7534529   7.092   2.375   3.451 -1.3324 -0.6006  3.8458
  108MOL    H7634530   7.042   2.003   3.383 -0.0494 -0.1675  0.0343
  108MOL    H7734531   7.247   1.855   3.341 -0.2058 -0.7214  1.4233
  108MOL    H7834532   7.500   2.189   3.375  0.0554 -0.5398  0.3121
  108MOL    H7934533   7.322   2.339   3.429 -0.8078 -0.3682  0.8398
  108MOL    H8034534   6.921   2.177   3.295  0.3667 -0.1234  0.0985
  108MOL    H8134535   6.856   2.326   3.355  1.0537  1.8482  0.9542
  108MOL    C8234536   6.983   2.363   3.205  0.0115  0.1236 -0.2025
  108MOL    C8334537   6.995   2.509   3.247  1.2141 -0.5879  0.6428
  108MOL    C8434538   7.123   2.569   3.261 -0.4454 -0.5153  0.7837
  108MOL    C8534539   7.133   2.707   3.299 -0.3186 -0.0165  0.1949
  108MOL    C8634540   7.015   2.783   3.321 -0.2713 -0.3371  0.7702
  108MOL   Cl8734541   7.035   2.951   3.359  0.2149  0.0183 -0.2235
  108MOL    C8834542   6.886   2.732   3.296 -0.2880 -0.0950 -0.4367
  108MOL    C8934543   6.881   2.595   3.267 -0.4249 -0.5875  0.1386
  108MOL    C9034544   7.090   2.303   3.118 -0.0825 -0.9977  0.1647
  108MOL    H9134545   6.891   2.354   3.149  0.0291 -3.1964  0.1883
  108MOL    H9234546   7.213   2.512   3.246 -0.4844 -0.1800 -0.8190
  108MOL    H9334547   7.232   2.749   3.305 -0.1877 -0.3837  0.6554
  108MOL    H9434548   6.805   2.802   3.315  0.1037 -0.0887  1.2886
  108MOL    H9534549   6.784   2.547   3.263  0.3685 -2.2014  0.1171
  108MOL    H9634550   7.184   2.286   3.171  0.6551  1.5469 -0.2980
  108MOL    H9734551   7.048   2.207   3.087  0.8665 -0.6696 -2.2329
  108MOL    C9834552   7.143   2.375   2.992 -0.4684  0.4038  0.3474
  108MOL    C9934553   7.264   2.295   2.943  0.1953 -0.0182 -0.3827
  108MOL   C10034554   7.255   2.159   2.907  0.3735  0.2064 -0.1437
  108MOL   C10134555   7.375   2.089   2.865 -0.1636 -0.0654  0.1152
  108MOL   C10234556   7.490   2.165   2.843 -0.7763  0.3561 -0.0419
  108MOL  Cl10334557   7.628   2.072   2.788  0.4190  0.4876 -0.0750
  108MOL   C10434558   7.495   2.307   2.866  0.4093 -0.4382  0.5662
  108MOL   C10534559   7.387   2.365   2.936 -0.3367 -0.0615 -0.0862
  108MOL   C10634560   7.029   2.385   2.885  0.2941  0.5771  0.2639
  108MOL   H10734561   7.170   2.478   3.014 -2.5817  1.0214  0.2438
  108MOL   H10834562   7.168   2.099   2.925 -0.7985  1.1424 -2.5957
  108MOL   H10934563   7.386   1.981   2.859  0.7893  0.0754 -0.8175
  108MOL   H11034564   7.578   2.367   2.832 -0.1635  0.2132  0.3033
  108MOL   H11134565   7.388   2.470   2.958  1.0703  0.2154 -1.3457
  108MOL   H11234566   6.986   2.289   2.856  0.7180  0.3903  0.2502
  108MOL   H11334567   6.953   2.448   2.931 -0.9893  0.1466 -1.1849
  108MOL   C11434568   7.074   2.463   2.752 -0.5097 -0.0848  0.2308
  108MOL   C11534569   7.153   2.381   2.659 -0.6830 -0.1024 -0.2375
  108MOL   C11634570   7.110   2.250   2.625 -0.4745 -0.0479  0.0617
  108MOL   C11734571   7.193   2.166   2.554 -0.3148  0.0393  0.5653
  108MOL   C11834572   7.317   2.212   2.514 -0.1740  0.1716  0.4318
  108MOL  Cl11934573   7.423   2.094   2.446 -0.2380 -0.3180  0.4219
  108MOL   C12034574   7.362   2.344   2.537  0.0681 -0.6213 -0.0400
  108MOL   C12134575   7.274   2.432   2.608 -0.1444 -0.0793  0.8489
  108MOL   C12234576   6.960   2.541   2.684 -0.2121 -0.0194 -0.4163
  108MOL   H12334577   7.147   2.534   2.791 -0.2796 -0.4267  0.4284
  108MOL   H12434578   7.012   2.215   2.653 -0.6209 -0.6063 -1.1041
  108MOL   H12534579   7.165   2.062   2.545  2.8300 -0.8462  0.5034
  108MOL   H12634580   7.458   2.380   2.501 -0.5972  1.0912 -0.1387
  108MOL   H12734581   7.299   2.532   2.639 -2.1984  0.1862  1.6804
  108MOL   H12834582   6.999   2.567   2.586  0.2851 -1.4658 -0.6155
  108MOL   H12934583   6.883   2.467   2.663 -0.9681  1.1481 -1.8552
  108MOL   C13034584   6.904   2.668   2.759  0.1206 -0.1993 -0.1910
  108MOL   C13134585   7.012   2.775   2.760  0.0787  0.4141  0.4253
  108MOL   C13234586   7.045   2.838   2.879  0.8270 -0.3839 -0.1745
  108MOL   C13334587   7.160   2.919   2.896 -0.1133  1.0643 -0.5189
  108MOL   C13434588   7.244   2.932   2.784 -0.3069  0.1324  0.2793
  108MOL  Cl13534589   7.396   3.008   2.816  0.2189  0.2863 -0.0246
  108MOL   C13634590   7.209   2.876   2.657 -0.9597 -0.1738  0.3339
  108MOL   C13734591   7.087   2.805   2.647 -0.0837 -0.3256  0.4613
  108MOL   C13834592   6.774   2.730   2.703  0.3312  0.0224  0.1163
  108MOL   H13934593   6.887   2.637   2.862 -2.9261 -0.8636 -0.8427
  108MOL   H14034594   6.982   2.822   2.965  1.3559  0.7002  0.4320
  108MOL   H14134595   7.191   2.962   2.990  0.0424  0.4653 -0.2994
  108MOL   H14234596   7.276   2.892   2.574 -0.7446 -0.7445  0.3958
  108MOL   H14334597   7.064   2.750   2.557  0.0019 -2.2518  1.5922
  108MOL   H14434598   6.759   2.824   2.756  0.8009 -1.2649  2.6456
  108MOL   H14534599   6.793   2.753   2.598 -0.2273  0.1767  0.0484
  108MOL   C14634600   6.639   2.651   2.705 -0.2290  0.3137  0.4598
  108MOL   C14734601   6.626   2.590   2.841 -0.1958  0.8139  0.5426
  108MOL   C14834602   6.615   2.452   2.850  0.0090  0.2710  0.1733
  108MOL   C14934603   6.596   2.382   2.970 -0.3930  0.2287  0.1543
  108MOL   C15034604   6.587   2.458   3.089  0.0958  0.6797  0.3503
  108MOL  Cl15134605   6.568   2.382   3.243  0.0118 -0.2257 -0.0583
  108MOL   C15234606   6.589   2.604   3.083  0.2810  0.2773  0.8461
  108MOL   C15334607   6.608   2.670   2.958  0.6603  0.4789 -0.0577
  108MOL   C15434608   6.520   2.745   2.675  0.5051  0.2856 -0.1650
  108MOL   H15534609   6.646   2.564   2.640  2.3434  0.5511  0.3593
  108MOL   H15634610   6.636   2.384   2.768  0.5830  0.1588  0.4137
  108MOL   H15734611   6.601   2.274   2.973  1.8530  0.3085  0.3777
  108MOL   H15834612   6.576   2.664   3.172 -2.6626  2.6265 -1.0566
  108MOL   H15934613   6.607   2.778   2.955  0.3492  0.6155  2.9508
  108MOL   H16034614   6.428   2.703   2.715 -0.4497  1.5648 -0.9840
  108MOL   H16134615   6.520   2.840   2.728 -0.0608  0.7934 -1.0769
  108MOL   C16234616   6.507   2.785   2.527 -0.4227  0.9467  0.2022
  108MOL   C16334617   6.489   2.656   2.442 -0.3225 -0.3243  0.1019
  108MOL   C16434618   6.373   2.580   2.455 -0.4617  0.0637  0.7489
  108MOL   C16534619   6.351   2.461   2.385 -0.3792  0.1073 -0.2338
  108MOL   C16634620   6.461   2.404   2.313 -0.3651  0.6991  0.1676
  108MOL  Cl16734621   6.433   2.257   2.232  0.0253  0.4373 -0.6932
  108MOL   C16834622   6.573   2.478   2.289 -0.0736 -0.3095  0.4673
  108MOL   C16934623   6.592   2.603   2.355  0.3444 -1.0175  0.9510
  108MOL   C17034624   6.384   2.877   2.498  1.0221  0.4746 -0.1079
  108MOL   H17134625   6.593   2.841   2.492 -0.0737  0.9059  0.9901
  108MOL   H17234626   6.291   2.616   2.515 -0.1891  1.6383  0.2084
  108MOL   H17334627   6.251   2.421   2.398  1.4731 -4.0429  2.0110
  108MOL   H17434628   6.645   2.446   2.215 -0.7101 -2.0654  0.5718
  108MOL   H17534629   6.684   2.658   2.344  0.4342 -1.1017  1.3026
  108MOL   H17634630   6.364   2.872   2.391  0.2254  1.2572 -0.0035
  108MOL   H17734631   6.297   2.830   2.544  0.2511  1.6634 -0.3363
  108MOL   C17834632   6.390   3.023   2.550  0.6380  0.3512 -0.9446
  108MOL   C17934633   6.475   3.115   2.460 -0.1616  0.7037 -0.0970
  108MOL   C18034634   6.593   3.175   2.504  0.0034 -0.5783  0.0127
  108MOL   C18134635   6.679   3.246   2.413  0.7330  0.0897  1.0895
  108MOL   C18234636   6.639   3.257   2.277 -0.8555 -0.5315 -0.1479
  108MOL  Cl18334637   6.754   3.321   2.163  0.0066 -0.2054 -0.3017
  108MOL   C18434638   6.521   3.197   2.233 -0.5350  0.0563  0.2592
  108MOL   C18534639   6.444   3.131   2.328  0.1303 -0.1722  0.5216
  108MOL   C18634640   6.252   3.085   2.590 -0.0739 -0.2895  0.4532
  108MOL   H18734641   6.433   3.021   2.650 -0.6398 -1.2840 -0.4003
  108MOL   H18834642   6.632   3.153   2.602  2.6767 -2.2367 -1.3549
  108MOL   H18934643   6.777   3.274   2.447  0.6193 -0.5811  1.9613
  108MOL   H19034644   6.475   3.195   2.135  0.3163  1.2017 -0.1828
  108MOL   H19134645   6.357   3.080   2.287  0.8337 -0.3382 -0.8012
  108MOL   H19234646   6.260   3.193   2.604 -3.5094  0.3707 -2.1052
  108MOL   H19334647   6.189   3.079   2.502  1.3105  1.8981 -0.7292
  108MOL   C19434648   6.180   3.026   2.714 -0.5386  0.5402  0.4050
  108MOL   C19534649   6.265   3.009   2.838 -0.4676 -1.2002  0.0779
  108MOL   C19634650   6.260   2.885   2.901 -0.1212 -0.4855  0.2280
  108MOL   C19734651   6.342   2.863   3.017 -0.0156 -1.1411  1.1233
  108MOL   C19834652   6.425   2.967   3.072  0.0140 -0.4250 -0.0346
  108MOL  Cl19934653   6.518   2.922   3.210 -0.1764  0.0376 -0.1329
  108MOL   C20034654   6.426   3.094   3.013 -0.4602 -0.1394 -0.4001
  108MOL   C20134655   6.341   3.116   2.899 -0.1302 -0.0836  0.3330
  108MOL   C20234656   6.043   3.090   2.744 -0.5178  0.0328  0.1042
  108MOL   H20334657   6.155   2.926   2.678  1.4427  1.4014 -3.7436
  108MOL   H20434658   6.204   2.803   2.860  2.6491 -2.7100  0.7486
  108MOL   H20534659   6.356   2.762   3.053 -0.0312 -1.5774 -0.0653
  108MOL   H20634660   6.487   3.175   3.050  0.5619 -0.7773 -0.6477
  108MOL   H20734661   6.341   3.219   2.866 -3.3195 -0.6179 -1.4543
  108MOL   H20834662   6.004   3.056   2.840 -3.6949 -0.4775 -1.3220
  108MOL   H20934663   6.057   3.196   2.762 -0.7999 -0.3210  2.6035
  108MOL   C21034664   5.933   3.075   2.636 -0.3463 -0.2523  0.0486
  108MOL   C21134665   5.922   2.923   2.598 -0.0770  0.2794 -0.3809
  108MOL   C21234666   5.876   2.831   2.697 -0.2804  0.9805 -0.7103
  108MOL   C21334667   5.875   2.694   2.665 -0.2604  0.1761  0.0708
  108MOL   C21434668   5.948   2.647   2.558 -0.2637 -0.0298 -0.2476
  108MOL  Cl21534669   5.967   2.476   2.532  0.3117 -0.0478 -0.3486
  108MOL   C21634670   5.998   2.737   2.457 -0.0414  0.0150  0.3898
  108MOL   C21734671   5.981   2.876   2.473 -0.1673 -0.6425  0.0589
  108MOL   C21834672   5.801   3.141   2.680  0.0632 -0.3224 -0.7613
  108MOL   H21934673   5.970   3.115   2.541 -1.8246  0.4298 -0.2640
  108MOL   H22034674   5.844   2.853   2.798 -1.2004 -0.7291 -0.6090
  108MOL   H22134675   5.846   2.616   2.734  0.2473 -0.0538  0.0337
  108MOL   H22234676   6.030   2.699   2.362 -2.4967  0.7781 -0.7901
  108MOL   H22334677   6.024   2.942   2.398 -2.5186  1.0126  0.1044
  108MOL   H22434678   5.717   3.098   2.624 -1.5149  2.2680 -0.4542
  108MOL   H22534679   5.781   3.110   2.783  0.5795  2.6249  0.2677
  108MOL   C22634680   5.795   3.298   2.679  0.1375  0.7397  1.3586
  108MOL   C22734681   5.841   3.348   2.539 -0.2831  0.3294 -0.5695
  108MOL   C22834682   5.953   3.434   2.524 -0.2855 -0.3153  0.0233
  108MOL   C22934683   5.983   3.490   2.401  0.0568  0.0628  0.2491
  108MOL   C23034684   5.887   3.485   2.294  0.0784 -0.6491  0.6836
  108MOL  Cl23134685   5.919   3.569   2.152  0.3358  0.0826 -0.2310
  108MOL   C23234686   5.776   3.401   2.307  0.3767 -0.2729 -0.5210
  108MOL   C23334687   5.762   3.327   2.424 -0.1379 -0.3954 -0.3691
  108MOL   C23434688   5.662   3.361   2.734 -0.3254 -0.3271 -0.6078
  108MOL   H23534689   5.874   3.325   2.748  1.8249  1.3192 -0.7462
  108MOL   H23634690   6.012   3.451   2.612 -0.3254  0.6052 -0.1269
  108MOL   H23734691   6.065   3.560   2.392  0.3313 -0.2796  0.0967
  108MOL   H23834692   5.706   3.383   2.226  0.5263  1.0171 -0.9497
  108MOL   H23934693   5.685   3.252   2.431 -1.4759  0.7891 -1.9283
  108MOL   H24034694   5.588   3.374   2.655  0.0571  0.7915 -0.7970
  108MOL   H24134695   5.625   3.286   2.804 -0.2504 -0.5684 -0.8233
  108MOL   C24234696   5.681   3.503   2.802 -0.1756 -0.3041 -0.1281
  108MOL   C24334697   5.743   3.606   2.705  0.2769 -0.1323  0.3274
  108MOL   C24434698   5.677   3.641   2.585  0.4223  0.0454  0.2037
  108MOL   C24534699   5.736   3.729   2.492 -0.3321  0.0639  0.0419
  108MOL   C24634700   5.869   3.774   2.519  0.0224  0.2138 -0.0248
  108MOL  Cl24734701   5.951   3.880   2.408  0.6841  0.4846  0.3549
  108MOL   C24834702   5.928   3.744   2.641 -0.4634 -0.4552  0.0603
  108MOL   C24934703   5.867   3.663   2.741  0.2248 -0.0061 -0.1642
  108MOL   C25034704   5.549   3.557   2.860  0.1005 -0.0705  0.1936
  108MOL   H25134705   5.747   3.485   2.887  1.6261  0.1358 -1.4022
  108MOL   H25234706   5.580   3.602   2.559  0.2988  0.9393 -0.7003
  108MOL   H25334707   5.694   3.749   2.395 -0.3470  0.8465  0.2066
  108MOL   H25434708   6.025   3.783   2.666 -0.6039 -0.2248  0.2521
  108MOL   H25534709   5.914   3.662   2.838  2.3997  2.9841 -1.1087
  108MOL   H25634710   5.482   3.565   2.775 -0.1347 -1.4095  0.2359
  108MOL   H25734711   5.500   3.478   2.916 -0.0217 -1.5572 -1.9570
  108MOL   C25834712   5.557   3.693   2.938 -0.3388  0.8493 -0.1246
  108MOL   C25934713   5.419   3.754   2.942 -0.3361  0.5316  0.1837
  108MOL   C26034714   5.393   3.884   2.883 -1.0922  0.6168 -0.4983
  108MOL   C26134715   5.273   3.949   2.915  0.3125 -0.0247  0.5820
  108MOL   C26234716   5.172   3.889   2.996  0.4303  0.2588 -0.2018
  108MOL  Cl26334717   5.030   3.974   3.018 -0.2806  0.0236  0.1100
  108MOL   C26434718   5.190   3.753   3.033 -0.1223 -0.4023 -0.0869
  108MOL   C26534719   5.313   3.686   3.008  0.6287  0.4347 -0.0120
  108MOL   C26634720   5.629   3.667   3.065  0.0852  0.2550  0.1086
  108MOL   H26734721   5.604   3.762   2.867  0.0205  0.3366 -0.3874
  108MOL   H26834722   5.464   3.936   2.821 -0.2642 -1.1591 -1.0814
  108MOL   H26934723   5.249   4.049   2.880 -0.3124 -0.6223 -0.7448
  108MOL   H27034724   5.112   3.696   3.082 -0.0482 -1.4909 -1.1964
  108MOL   H27134725   5.323   3.581   3.033 -1.0148 -0.0203 -1.1898
  108MOL   H27234726   5.583   3.576   3.103  0.0063  0.0416 -0.4978
  108MOL   H27334727   5.737   3.649   3.072  0.1967  0.6338 -0.6373
  108MOL   C27434728   5.604   3.779   3.174  0.5322  0.1180 -0.0637
  108MOL   C27534729   5.626   3.728   3.314 -0.2182  0.1418  0.4479
  108MOL   C27634730   5.752   3.706   3.363 -0.1403  0.5251  0.4699
  108MOL   C27734731   5.764   3.653   3.494  0.2915  0.5181  0.5667
  108MOL   C27834732   5.656   3.625   3.576  0.3200  0.3982 -0.2560
  108MOL  Cl27934733   5.678   3.542   3.730  0.4165 -0.4507  0.2842
  108MOL   C28034734   5.526   3.647   3.519  0.5827  0.2590  0.6642
  108MOL   C28134735   5.515   3.697   3.389 -0.5640  0.6921  0.2429
  108MOL   C28234736   5.681   3.908   3.142  0.1497 -0.2867 -0.3972
  108MOL   H28334737   5.502   3.816   3.167  0.8416  1.0758  0.3288
  108MOL   H28434738   5.835   3.734   3.301  0.1337  2.5490  1.6896
  108MOL   H28534739   5.860   3.622   3.532  0.8997  0.4639 -0.9699
  108MOL   H28634740   5.436   3.628   3.575 -0.2515  0.0003 -0.7513
  108MOL   H28734741   5.421   3.711   3.337 -1.2098  0.1213  1.2486
  108MOL   H28834742   5.786   3.878   3.130  0.2516  0.2676 -0.9425
  108MOL   H28934743   5.655   3.937   3.040  3.8795  2.5699 -0.6464
  108MOL   C29034744   5.662   4.030   3.237 -0.3232 -0.7259  0.7668
  108MOL   C29134745   5.793   4.106   3.260 -0.9781  0.8305 -0.9324
  108MOL   C29234746   5.826   4.235   3.211  0.9730  0.3384 -0.5365
  108MOL   C29334747   5.958   4.283   3.219 -0.3596 -0.2609 -0.3098
  108MOL   C29434748   6.056   4.211   3.284  0.6974 -0.1704 -0.1643
  108MOL  Cl29534749   6.214   4.273   3.299 -0.0257 -0.0234  0.3540
  108MOL   C29634750   6.024   4.084   3.335 -0.2478  0.0465 -0.0642
  108MOL   C29734751   5.896   4.028   3.317  0.4489  0.0916  0.4402
  108MOL   C29834752   5.538   4.119   3.191 -0.3335  0.7409  0.2228
  108MOL   H29934753   5.633   3.992   3.336 -0.0646  1.7548  1.8275
  108MOL   H30034754   5.743   4.289   3.169  0.7733 -1.6603 -2.8357
  108MOL   H30134755   5.983   4.375   3.169  0.6111  0.1449  0.8990
  108MOL   H30234756   6.091   4.030   3.400  0.4173 -0.5708 -1.2337
  108MOL   H30334757   5.869   3.933   3.361  3.6161 -1.0876 -0.0576
  108MOL   H30434758   5.563   4.176   3.101  0.7548  0.3394  0.2610
  108MOL   H30534759   5.454   4.055   3.162  1.2053 -1.5566  0.6611
  108MOL   C30634760   5.496   4.207   3.313  0.5116 -0.1946  0.2999
  108MOL   C30734761   5.377   4.290   3.272  0.3500 -0.0752  0.3535
  108MOL   C30834762   5.376   4.426   3.286 -0.3235 -0.5428 -0.2061
  108MOL   C30934763   5.270   4.503   3.238  0.3263 -0.3809  0.3568
  108MOL   C31034764   5.162   4.442   3.182  0.2516 -0.0668 -0.6776
  108MOL  Cl31134765   5.032   4.547   3.146  0.1656 -0.1005  0.2966
  108MOL   C31234766   5.146   4.302   3.172  0.0769 -0.3434 -0.1745
  108MOL   C31334767   5.257   4.229   3.222 -0.3235  0.0104 -0.3192
  108MOL   C31434768   5.450   4.131   3.440 -0.0639 -0.4519  0.5149
  108MOL   H31534769   5.576   4.276   3.341  0.5449 -0.6127  1.2663
  108MOL   H31634770   5.465   4.481   3.313  0.5281 -1.5388 -0.9779
  108MOL   H31734771   5.278   4.610   3.232 -2.4381 -0.2080 -1.0651
  108MOL   H31834772   5.066   4.251   3.120  0.2371 -0.2332 -0.5363
  108MOL   H31934773   5.266   4.122   3.210  0.0825 -0.1381  1.2135
  108MOL   H32034774   5.542   4.108   3.493 -0.2557 -3.6066 -0.4426
  108MOL   H32134775   5.406   4.197   3.515  1.6894 -0.2259  1.3793
  108MOL   H32234776   5.397   4.038   3.423 -2.5115  0.8608  0.7729
  109MOL     C134777   3.778   3.685   3.372 -0.6033 -0.6575 -0.2913
  109MOL     C234778   3.637   3.649   3.332 -0.0083  0.8084 -0.1690
  109MOL     C334779   3.544   3.744   3.282 -0.1497 -0.0798  0.4445
  109MOL     C434780   3.410   3.723   3.260  0.4806 -0.2998  0.0610
  109MOL     C534781   3.365   3.594   3.278  0.2079  0.2290 -0.2715
  109MOL    Cl634782   3.195   3.561   3.265 -0.1013  0.5245 -0.1745
  109MOL     C734783   3.454   3.488   3.313  0.0289  0.2083  0.3345
  109MOL     C834784   3.589   3.516   3.343  0.5221 -0.4604 -0.6877
  109MOL     C934785   3.875   3.684   3.255 -0.0533  0.5505 -0.3687
  109MOL    H1034786   3.819   3.608   3.437  0.3989  0.1240  0.0339
  109MOL    H1134787   3.578   3.846   3.275  0.6115 -0.3649 -0.1818
  109MOL    H1234788   3.340   3.801   3.234 -0.4805 -1.3032 -0.3960
  109MOL    H1334789   3.414   3.387   3.311 -1.0321  0.6255 -3.1304
  109MOL    H1434790   3.663   3.440   3.365  0.6421 -0.2575 -0.3967
  109MOL    H1534791   3.876   3.580   3.221 -0.8544  1.2083 -2.5052
  109MOL    H1634792   3.841   3.747   3.173 -0.9155  2.5728  1.5122
  109MOL    H1734793   3.789   3.770   3.440  2.7222 -1.4489  0.2310
  109MOL    C1834794   4.028   3.708   3.285  0.0505  0.4159  0.1476
  109MOL    C1934795   4.074   3.645   3.418 -1.0988 -0.8176 -0.1927
  109MOL    C2034796   4.106   3.507   3.428 -0.4337  0.0959 -0.5664
  109MOL    C2134797   4.157   3.459   3.546 -0.0199 -0.8067 -0.3129
  109MOL    C2234798   4.177   3.540   3.662  0.3869 -0.2686  0.0937
  109MOL   Cl2334799   4.227   3.474   3.817  0.1982 -0.2238 -0.0703
  109MOL    C2434800   4.149   3.681   3.654 -0.2466 -0.4732  0.0841
  109MOL    C2534801   4.090   3.729   3.534 -0.8260  0.1957  0.6155
  109MOL    C2634802   4.111   3.676   3.164  0.9540 -0.1386  0.6611
  109MOL    H2734803   4.037   3.816   3.274  2.4056  0.1718 -0.5490
  109MOL    H2834804   4.115   3.440   3.343 -1.7141 -0.4418 -0.2831
  109MOL    H2934805   4.175   3.353   3.556 -2.4378 -1.0630  1.9997
  109MOL    H3034806   4.171   3.754   3.730 -3.4861  1.1498 -0.4459
  109MOL    H3134807   4.068   3.835   3.525 -3.8622 -0.3004  1.8121
  109MOL    H3234808   4.076   3.580   3.127  0.5949  0.3250 -0.2051
  109MOL    H3334809   4.086   3.749   3.087 -0.0401 -0.2540  0.8652
  109MOL    C3434810   4.261   3.668   3.188 -0.7178  0.4414  0.0282
  109MOL    C3534811   4.330   3.583   3.083  0.5319  0.2786 -0.6977
  109MOL    C3634812   4.346   3.627   2.952  0.5474 -0.1283  0.1066
  109MOL    C3734813   4.397   3.540   2.852  0.0523 -0.1224 -0.5426
  109MOL    C3834814   4.431   3.406   2.885  0.1757 -0.5606 -0.7414
  109MOL   Cl3934815   4.488   3.297   2.762  0.0493 -0.1920  0.0492
  109MOL    C4034816   4.422   3.361   3.018  0.0366  0.0246  0.4277
  109MOL    C4134817   4.373   3.448   3.119 -0.1410 -0.4638  0.5111
  109MOL    C4234818   4.326   3.812   3.215  1.0647  0.3989  0.5335
  109MOL    H4334819   4.281   3.612   3.280  1.4623  3.4791  1.4975
  109MOL    H4434820   4.324   3.727   2.917  3.5143  1.0475  1.4890
  109MOL    H4534821   4.409   3.571   2.749 -0.7278 -1.0734 -0.9203
  109MOL    H4634822   4.434   3.257   3.045  1.2846  0.2463  0.7855
  109MOL    H4734823   4.359   3.410   3.219  0.3177 -0.7325  0.4750
  109MOL    H4834824   4.326   3.859   3.117  2.8984 -0.4427  0.1073
  109MOL    H4934825   4.282   3.871   3.296  0.4133  1.2470 -0.4303
  109MOL    C5034826   4.475   3.799   3.249 -0.2783 -0.5443  0.5200
  109MOL    C5134827   4.546   3.939   3.235  0.6411 -0.1497  0.1676
  109MOL    C5234828   4.539   4.036   3.339 -0.1995 -0.4952 -0.1928
  109MOL    C5334829   4.613   4.155   3.335 -0.2428  0.2106 -0.1134
  109MOL    C5434830   4.696   4.182   3.221  0.4542 -0.4532 -0.4330
  109MOL   Cl5534831   4.769   4.333   3.212 -0.4207 -0.1460  0.3247
  109MOL    C5634832   4.712   4.082   3.123  0.0507  0.1730  0.7781
  109MOL    C5734833   4.644   3.959   3.136 -0.0833  0.0033  0.2000
  109MOL    C5834834   4.495   3.729   3.384  0.2080  0.3556 -0.1830
  109MOL    H5934835   4.521   3.753   3.162 -1.0445  1.8270 -1.2108
  109MOL    H6034836   4.479   4.016   3.426 -2.5749  0.3331 -1.5956
  109MOL    H6134837   4.614   4.230   3.413  1.0662  0.4363 -0.3357
  109MOL    H6234838   4.782   4.087   3.041 -0.9288 -0.2134 -0.0958
  109MOL    H6334839   4.662   3.883   3.061 -0.8387 -1.3009  1.3092
  109MOL    H6434840   4.418   3.761   3.455 -0.7016  1.8708 -1.8133
  109MOL    H6534841   4.474   3.623   3.373  0.6232 -0.0797  2.6955
  109MOL    C6634842   4.630   3.733   3.466 -0.4137  0.6129 -0.0316
  109MOL    C6734843   4.621   3.681   3.610  0.1487  0.1800  0.0190
  109MOL    C6834844   4.619   3.768   3.721 -0.8817 -0.1950  0.1472
  109MOL    C6934845   4.611   3.719   3.854 -0.3266 -0.4728 -0.9352
  109MOL    C7034846   4.597   3.584   3.879 -1.0836  0.1257 -0.2094
  109MOL   Cl7134847   4.549   3.530   4.031  0.3147  0.7314 -0.1241
  109MOL    C7234848   4.590   3.495   3.765 -1.0320  0.3732 -0.7429
  109MOL    C7334849   4.602   3.543   3.631 -1.3619  0.3289  0.2917
  109MOL    C7434850   4.740   3.672   3.385 -0.0161 -0.2508  0.4964
  109MOL    H7534851   4.653   3.839   3.476  0.4096  0.6572 -2.1405
  109MOL    H7634852   4.630   3.874   3.701 -1.9944 -0.2801 -1.0055
  109MOL    H7734853   4.603   3.792   3.934  1.8759  0.3681 -1.4526
  109MOL    H7834854   4.565   3.391   3.781  0.0615  0.2887  0.5322
  109MOL    H7934855   4.597   3.469   3.553 -2.3175  1.7090 -0.9797
  109MOL    H8034856   4.727   3.564   3.378 -0.7499 -0.1637  0.5094
  109MOL    H8134857   4.740   3.699   3.279  2.2273 -0.9540  0.2785
  109MOL    C8234858   4.883   3.689   3.447 -0.1874  0.1337 -0.4156
  109MOL    C8334859   4.983   3.592   3.379 -0.1850 -0.5941 -0.0667
  109MOL    C8434860   5.114   3.561   3.439 -0.2393 -0.5826 -0.0799
  109MOL    C8534861   5.202   3.487   3.365 -0.4670  0.9936 -0.6066
  109MOL    C8634862   5.176   3.432   3.237  0.2898 -0.2271 -0.9286
  109MOL   Cl8734863   5.306   3.353   3.150  0.1129  0.3441  0.4191
  109MOL    C8834864   5.045   3.453   3.178 -0.3306  0.0221  0.0771
  109MOL    C8934865   4.954   3.533   3.253 -0.5148  0.1030 -0.2582
  109MOL    C9034866   4.934   3.835   3.431 -0.0351 -0.1892  0.0747
  109MOL    H9134867   4.884   3.663   3.553 -2.1189  1.1956 -0.1284
  109MOL    H9234868   5.154   3.590   3.535  0.7445 -0.2494 -0.5966
  109MOL    H9334869   5.296   3.460   3.412 -0.6722 -0.3328 -0.9207
  109MOL    H9434870   5.036   3.428   3.073  0.9966 -1.3770  0.2716
  109MOL    H9534871   4.860   3.552   3.204 -1.2480 -1.8188  0.3489
  109MOL    H9634872   5.021   3.839   3.366 -1.2015  1.0020 -1.4624
  109MOL    H9734873   4.860   3.880   3.364  0.0150 -1.0684 -0.5972
  109MOL    C9834874   4.945   3.921   3.555 -0.3632  0.0791  0.1898
  109MOL    C9934875   5.050   3.868   3.664  0.4500 -0.3380 -0.3088
  109MOL   C10034876   5.010   3.848   3.802 -0.1865  0.4944 -0.7648
  109MOL   C10134877   5.099   3.807   3.899 -0.6547  0.2732 -0.4594
  109MOL   C10234878   5.229   3.779   3.860  0.3917  0.2743 -0.2545
  109MOL  Cl10334879   5.337   3.717   3.975  0.1664  0.1632 -0.4332
  109MOL   C10434880   5.275   3.803   3.725  0.6292 -0.1558 -0.3436
  109MOL   C10534881   5.188   3.847   3.623  0.0211  0.2518 -0.0939
  109MOL   C10634882   4.956   4.074   3.524  0.0084 -0.7132  0.4284
  109MOL   H10734883   4.850   3.904   3.606  0.5000 -2.0990  1.1257
  109MOL   H10834884   4.912   3.871   3.841 -1.0543  0.5961 -2.9294
  109MOL   H10934885   5.071   3.786   4.001 -0.3217 -0.6079 -0.5403
  109MOL   H11034886   5.379   3.802   3.697  0.8673 -0.9945  0.5680
  109MOL   H11134887   5.220   3.869   3.522  1.3630 -1.4026 -0.0479
  109MOL   H11234888   5.033   4.091   3.449 -0.1328  2.0839  0.8480
  109MOL   H11334889   4.865   4.112   3.478  0.8961  2.2031  0.9762
  109MOL   C11434890   4.991   4.158   3.648 -0.0008 -0.0158 -0.4510
  109MOL   C11534891   5.077   4.280   3.618 -0.1119 -0.1093 -0.8748
  109MOL   C11634892   5.033   4.371   3.522  0.1611  0.5182  0.5726
  109MOL   C11734893   5.095   4.501   3.513 -0.2795 -0.1201 -0.1826
  109MOL   C11834894   5.200   4.535   3.592 -0.3499 -0.6195 -0.4102
  109MOL  Cl11934895   5.255   4.700   3.621 -0.0549 -0.2382 -0.5506
  109MOL   C12034896   5.255   4.440   3.678 -0.1074 -0.1927 -0.4902
  109MOL   C12134897   5.194   4.316   3.692  0.0340 -0.6135 -0.6176
  109MOL   C12234898   4.870   4.203   3.732 -0.4281  0.3466  0.8062
  109MOL   H12334899   5.070   4.109   3.705 -2.5470 -2.0728  1.4472
  109MOL   H12434900   4.945   4.343   3.465  0.7555 -0.5725  0.1835
  109MOL   H12534901   5.057   4.575   3.444 -2.3042  0.0849  1.1260
  109MOL   H12634902   5.343   4.461   3.738  0.7243  1.1181 -2.1227
  109MOL   H12734903   5.227   4.247   3.769 -1.4875  0.7411  1.3110
  109MOL   H12834904   4.803   4.276   3.687 -1.0597 -0.8662 -0.2725
  109MOL   H12934905   4.819   4.107   3.739 -1.3861  0.7970  0.0676
  109MOL   C13034906   4.894   4.230   3.880  0.3453  0.9472 -0.5629
  109MOL   C13134907   4.971   4.353   3.925  0.5077 -0.2928 -0.2086
  109MOL   C13234908   4.942   4.474   3.861 -0.6164 -0.1414  0.1044
  109MOL   C13334909   5.019   4.588   3.895 -0.0299 -0.3445  0.3682
  109MOL   C13434910   5.123   4.588   3.994  0.4027 -0.5921  0.1594
  109MOL  Cl13534911   5.224   4.725   4.012 -0.1872  0.2355 -0.0689
  109MOL   C13634912   5.150   4.464   4.050  0.1627  0.0611 -0.4218
  109MOL   C13734913   5.070   4.352   4.027 -0.3847 -0.0683  0.7712
  109MOL   C13834914   4.775   4.197   3.966 -0.2494  0.5325 -0.8185
  109MOL   H13934915   4.970   4.158   3.911  1.3712  2.3643  0.2487
  109MOL   H14034916   4.862   4.467   3.789 -0.1185 -3.0293 -0.2093
  109MOL   H14134917   4.996   4.675   3.835 -0.1102 -0.9872 -0.5462
  109MOL   H14234918   5.229   4.467   4.124 -1.3025  2.4387  1.1085
  109MOL   H14334919   5.093   4.252   4.061 -0.5132 -0.0366  0.9552
  109MOL   H14434920   4.760   4.091   3.945 -0.2400  0.6217 -1.2812
  109MOL   H14534921   4.813   4.198   4.068  0.5672  2.9035 -1.1205
  109MOL   C14634922   4.652   4.286   3.944 -0.5696 -0.0539 -0.1519
  109MOL   C14734923   4.558   4.225   3.849  0.1088  0.4378 -0.4307
  109MOL   C14834924   4.527   4.288   3.725  0.9395  0.0435 -0.1729
  109MOL   C14934925   4.419   4.245   3.641  0.2765  0.3895 -0.0442
  109MOL   C15034926   4.356   4.130   3.687  0.2399  0.9550 -0.2400
  109MOL  Cl15134927   4.220   4.074   3.602  0.0265 -0.3570  0.5914
  109MOL   C15234928   4.391   4.053   3.802  0.1919 -0.1238 -0.3449
  109MOL   C15334929   4.493   4.107   3.887 -0.2037  0.1108 -0.5525
  109MOL   C15434930   4.572   4.320   4.071  0.3524 -0.4350 -0.1156
  109MOL   H15534931   4.683   4.374   3.888 -1.2965  0.5524  0.3895
  109MOL   H15634932   4.577   4.381   3.701 -1.6461  0.3602 -5.0573
  109MOL   H15734933   4.386   4.306   3.558  2.1060 -0.6370 -1.5460
  109MOL   H15834934   4.332   3.965   3.822 -1.5527  0.7585 -1.4886
  109MOL   H15934935   4.505   4.065   3.986 -0.7711  0.3622 -0.3754
  109MOL   H16034936   4.471   4.348   4.040  0.3046 -0.6388 -0.1438
  109MOL   H16134937   4.568   4.226   4.127 -0.4384 -0.6084 -0.4437
  109MOL   C16234938   4.639   4.419   4.168  0.0389 -0.3738 -0.6286
  109MOL   C16334939   4.648   4.561   4.122 -0.1022  0.2250 -0.9754
  109MOL   C16434940   4.771   4.621   4.093  0.0939 -0.1931 -0.2464
  109MOL   C16534941   4.780   4.758   4.052  0.3558  0.1463  0.9092
  109MOL   C16634942   4.655   4.828   4.025 -0.5326  0.5295  0.3396
  109MOL  Cl16734943   4.665   4.988   3.953  0.3552 -0.0635 -0.0193
  109MOL   C16834944   4.534   4.767   4.053 -0.1289  0.6205 -0.2151
  109MOL   C16934945   4.531   4.633   4.096 -0.3543  0.0460  0.2326
  109MOL   C17034946   4.591   4.405   4.317 -0.0922 -0.2060 -0.2096
  109MOL   H17134947   4.742   4.385   4.164  0.0223 -0.5818  0.4224
  109MOL   H17234948   4.861   4.561   4.096  0.2937 -0.0108 -2.0013
  109MOL   H17334949   4.868   4.809   4.017  0.8029 -1.8787 -1.0084
  109MOL   H17434950   4.441   4.821   4.040 -0.4755 -0.5390 -3.0394
  109MOL   H17534951   4.436   4.587   4.116  0.8441 -1.9787  1.4091
  109MOL   H17634952   4.508   4.474   4.325  0.2120  0.5741 -3.2713
  109MOL   H17734953   4.543   4.308   4.331 -1.3594  0.3605 -0.6025
  109MOL   C17834954   4.703   4.439   4.426  0.4947  0.3211  0.0229
  109MOL   C17934955   4.629   4.442   4.562 -0.2402  0.1943  0.1508
  109MOL   C18034956   4.559   4.331   4.608 -0.7753 -0.4573 -0.0475
  109MOL   C18134957   4.490   4.332   4.726 -0.0582 -0.7015  0.1411
  109MOL   C18234958   4.496   4.444   4.815  0.7643  0.0882  0.8981
  109MOL  Cl18334959   4.403   4.442   4.959 -0.1426 -0.5221  0.1030
  109MOL   C18434960   4.565   4.555   4.777  0.1817 -0.0224  0.3119
  109MOL   C18534961   4.640   4.550   4.655 -0.5906 -0.5539 -0.1730
  109MOL   C18634962   4.815   4.335   4.420  0.4657  0.1595  0.5330
  109MOL   H18734963   4.734   4.542   4.408 -1.5191  1.0876  0.7519
  109MOL   H18834964   4.547   4.248   4.539 -1.1246 -0.8112  0.4304
  109MOL   H18934965   4.419   4.254   4.750 -0.9530 -0.2444 -0.9430
  109MOL   H19034966   4.553   4.641   4.841 -1.1408 -0.9700  1.3813
  109MOL   H19134967   4.693   4.637   4.620 -1.9333  1.0588  1.7007
  109MOL   H19234968   4.766   4.238   4.407 -2.2266  1.6400 -0.6259
  109MOL   H19334969   4.870   4.347   4.327 -0.0401 -1.4700  0.0099
  109MOL   C19434970   4.919   4.313   4.535 -0.2810  0.2156 -0.4904
  109MOL   C19534971   5.029   4.217   4.482 -0.3841 -0.6172  0.3505
  109MOL   C19634972   5.029   4.089   4.526 -0.2083  0.5087  0.2085
  109MOL   C19734973   5.134   3.996   4.490  0.2827  0.2123 -0.1810
  109MOL   C19834974   5.239   4.049   4.412  0.8324  0.1869  0.3727
  109MOL  Cl19934975   5.381   3.953   4.388  0.3118  0.1639 -0.0876
  109MOL   C20034976   5.230   4.170   4.350 -0.2811 -0.5183 -0.6987
  109MOL   C20134977   5.122   4.261   4.386  0.0542  0.9862 -0.4593
  109MOL   C20234978   4.975   4.436   4.609  0.0473 -0.3882  0.3454
  109MOL   H20334979   4.875   4.247   4.610 -3.3316  1.6609 -0.9357
  109MOL   H20434980   4.949   4.049   4.588  0.1538 -0.1871  0.2394
  109MOL   H20534981   5.145   3.898   4.533  1.3092  0.3364 -0.1553
  109MOL   H20634982   5.312   4.207   4.290  0.7895 -2.3060 -0.3827
  109MOL   H20734983   5.128   4.364   4.354  0.1770  0.4272 -2.2641
  109MOL   H20834984   5.019   4.511   4.544 -0.0984  0.2137  0.9354
  109MOL   H20934985   4.891   4.498   4.640 -0.6634 -0.4498 -1.3922
  109MOL   C21034986   5.057   4.420   4.735  0.5657 -0.1570 -0.8123
  109MOL   C21134987   5.201   4.372   4.701  0.6757  0.3386 -0.3784
  109MOL   C21234988   5.279   4.454   4.618 -0.3505  0.2921 -0.6580
  109MOL   C21334989   5.416   4.417   4.590 -0.4008  0.1171  0.2093
  109MOL   C21434990   5.472   4.309   4.656  0.7951 -0.0078  0.2225
  109MOL  Cl21534991   5.642   4.279   4.622 -0.0669 -0.4578 -0.0854
  109MOL   C21634992   5.394   4.227   4.742 -0.0853  0.1647  0.8335
  109MOL   C21734993   5.264   4.259   4.767 -0.2507 -0.7835  0.3050
  109MOL   C21834994   5.045   4.551   4.824 -1.0890 -0.2201  0.6543
  109MOL   H21934995   5.015   4.336   4.792 -1.6657  1.8088  0.5332
  109MOL   H22034996   5.247   4.554   4.590  2.0542  1.4696  0.6471
  109MOL   H22134997   5.488   4.478   4.538  0.3921 -3.0193 -2.5831
  109MOL   H22234998   5.433   4.136   4.785  1.7443  1.2401  1.5137
  109MOL   H22334999   5.208   4.191   4.829  0.5143 -2.6337 -1.0033
  109MOL   H22435000   5.066   4.639   4.763  2.2723 -1.8210 -0.6660
  109MOL   H22535001   4.946   4.563   4.866 -0.8694  1.9281  0.6219
  109MOL   C22635002   5.147   4.563   4.943 -0.7244  0.4193  0.2427
  109MOL   C22735003   5.120   4.697   5.018  0.2142  0.0855 -0.3179
  109MOL   C22835004   5.001   4.720   5.091 -0.0917  0.3370 -0.1199
  109MOL   C22935005   4.986   4.844   5.160  0.4927  0.0122 -0.2830
  109MOL   C23035006   5.086   4.947   5.153  0.1394  0.0977 -0.4945
  109MOL  Cl23135007   5.079   5.099   5.243  0.1558  0.0929 -0.4865
  109MOL   C23235008   5.201   4.929   5.068 -0.4988 -0.3969 -0.3597
  109MOL   C23335009   5.214   4.802   5.003 -0.8607  0.3789 -0.9714
  109MOL   C23435010   5.149   4.445   5.051  0.9732 -0.2013  0.5982
  109MOL   H23535011   5.244   4.562   4.893 -1.4786 -1.3535 -1.2250
  109MOL   H23635012   4.919   4.652   5.103 -0.0391  0.4668  1.0426
  109MOL   H23735013   4.898   4.855   5.222  0.0362  3.1049 -1.3922
  109MOL   H23835014   5.283   4.998   5.071 -0.2795 -0.7207  1.6502
  109MOL   H23935015   5.306   4.783   4.950 -0.6833 -0.2395 -0.4530
  109MOL   H24035016   5.051   4.457   5.098  0.8747 -2.6511  1.1093
  109MOL   H24135017   5.154   4.346   5.005 -2.5637  0.1018 -0.5736
  109MOL   C24235018   5.256   4.450   5.165  0.0616  0.4079 -0.0994
  109MOL   C24335019   5.223   4.359   5.281 -0.1775 -0.6461  0.3533
  109MOL   C24435020   5.184   4.420   5.404  0.5978  0.1815  0.1533
  109MOL   C24535021   5.185   4.350   5.525  0.5410 -1.3353  0.5438
  109MOL   C24635022   5.215   4.210   5.527  0.0489  0.3827  0.4467
  109MOL  Cl24735023   5.241   4.130   5.675  0.3655  0.0051 -0.3427
  109MOL   C24835024   5.243   4.148   5.404 -0.7210  0.2421  0.0012
  109MOL   C24935025   5.246   4.222   5.284 -0.0856 -0.2467 -0.6868
  109MOL   C25035026   5.396   4.422   5.107 -0.0756 -0.1017 -0.1809
  109MOL   H25135027   5.268   4.554   5.194  1.9121  0.0756  0.3859
  109MOL   H25235028   5.163   4.526   5.405  2.2005  0.5068  0.0520
  109MOL   H25335029   5.168   4.395   5.622  0.0100 -0.1227 -0.0975
  109MOL   H25435030   5.262   4.042   5.405 -0.2926  0.2988 -1.8213
  109MOL   H25535031   5.274   4.169   5.194 -0.6618 -0.0305 -0.9962
  109MOL   H25635032   5.427   4.318   5.102  3.4775  0.9330 -1.6847
  109MOL   H25735033   5.399   4.446   5.000  0.8583 -3.7576 -1.0376
  109MOL   C25835034   5.518   4.502   5.167  0.1891  0.0571 -0.1550
  109MOL   C25935035   5.528   4.496   5.319  0.0084  0.1360  0.0214
  109MOL   C26035036   5.504   4.615   5.392 -0.3216  0.1103  0.3044
  109MOL   C26135037   5.514   4.619   5.533 -0.7371  0.2609  0.2177
  109MOL   C26235038   5.559   4.503   5.602  0.4847  1.1052  0.1100
  109MOL  Cl26335039   5.559   4.503   5.776  0.2130  0.2312 -0.2814
  109MOL   C26435040   5.577   4.381   5.527  0.1283  0.1857 -0.9330
  109MOL   C26535041   5.554   4.378   5.391 -0.3931 -0.0786  0.7160
  109MOL   C26635042   5.646   4.454   5.092 -0.3894 -0.3621 -0.1846
  109MOL   H26735043   5.495   4.604   5.136 -1.0076 -0.2394 -0.2823
  109MOL   H26835044   5.468   4.701   5.338 -0.6009  1.1274  2.0853
  109MOL   H26935045   5.488   4.714   5.576 -0.0605  0.6539 -0.2346
  109MOL   H27035046   5.600   4.284   5.569  0.5450  0.9260  0.5737
  109MOL   H27135047   5.563   4.285   5.335 -0.6726  0.6840 -0.6099
  109MOL   H27235048   5.659   4.347   5.108 -0.2889 -0.7598 -2.6846
  109MOL   H27335049   5.637   4.455   4.984  0.1280  0.8374 -0.2379
  109MOL   C27435050   5.777   4.526   5.143  0.2993 -1.0634 -0.0097
  109MOL   C27535051   5.885   4.421   5.139 -0.1132  0.0156  0.1122
  109MOL   C27635052   5.912   4.348   5.256  0.5139  0.2354 -0.3157
  109MOL   C27735053   6.001   4.241   5.262  0.0814  0.0812  0.8265
  109MOL   C27835054   6.059   4.199   5.139 -0.4653  0.0121 -0.0105
  109MOL  Cl27935055   6.149   4.051   5.135  0.1724 -0.2224 -0.4018
  109MOL   C28035056   6.028   4.270   5.019 -0.1382 -0.5291  0.0724
  109MOL   C28135057   5.942   4.380   5.014  0.0506 -0.2159 -0.8254
  109MOL   C28235058   5.812   4.649   5.053 -0.3765 -0.0859 -0.8577
  109MOL   H28335059   5.775   4.564   5.245 -2.2953  0.4519 -0.5709
  109MOL   H28435060   5.859   4.376   5.345 -0.2862 -2.1868  0.0153
  109MOL   H28535061   6.010   4.179   5.350 -1.1835 -1.4641 -0.1295
  109MOL   H28635062   6.055   4.224   4.925  1.2950 -0.3808  0.3861
  109MOL   H28735063   5.913   4.429   4.922  1.9963  0.0063 -1.3285
  109MOL   H28835064   5.832   4.627   4.948  0.5305  0.8701 -0.8983
  109MOL   H28935065   5.740   4.729   5.064 -0.2107 -0.0483  0.0574
  109MOL   C29035066   5.934   4.732   5.099  0.0231 -0.1205 -0.0560
  109MOL   C29135067   6.059   4.683   5.032  0.0898 -0.0289  0.1695
  109MOL   C29235068   6.166   4.627   5.108  0.2234  0.6727 -0.2601
  109MOL   C29335069   6.284   4.591   5.040  0.2314  0.5199  0.4905
  109MOL   C29435070   6.293   4.602   4.900  0.0055 -0.1170 -0.0801
  109MOL  Cl29535071   6.428   4.535   4.816 -0.1913  0.0046 -0.0487
  109MOL   C29635072   6.192   4.655   4.824  0.2202  0.1362 -0.4587
  109MOL   C29735073   6.075   4.696   4.889 -0.7700 -0.6100 -0.5550
  109MOL   C29835074   5.927   4.889   5.066  0.0581  0.5770  1.2652
  109MOL   H29935075   5.945   4.719   5.206  1.1837  3.7363  0.3926
  109MOL   H30035076   6.158   4.624   5.215 -1.2554  0.8199 -0.3506
  109MOL   H30135077   6.373   4.553   5.087 -1.7286 -1.6541  2.5869
  109MOL   H30235078   6.194   4.655   4.716 -1.5437  0.8627 -0.5198
  109MOL   H30335079   5.991   4.743   4.838 -1.1219 -0.1697  0.4252
  109MOL   H30435080   5.904   4.899   4.960 -2.2358 -1.1109  1.5764
  109MOL   H30535081   5.840   4.934   5.115 -0.1451  0.9913  0.5214
  109MOL   C30635082   6.052   4.974   5.108 -0.3464 -0.2180 -0.2559
  109MOL   C30735083   6.034   5.114   5.047 -0.7036  0.2789 -0.0360
  109MOL   C30835084   5.974   5.213   5.131  0.2011 -0.2099  0.0791
  109MOL   C30935085   5.946   5.339   5.072  0.2008  0.0990 -0.1598
  109MOL   C31035086   5.965   5.361   4.937 -0.6100  0.1469  0.0656
  109MOL  Cl31135087   5.898   5.500   4.863  0.0633 -0.0085 -0.0547
  109MOL   C31235088   6.034   5.268   4.860 -0.2165 -0.1323 -0.9620
  109MOL   C31335089   6.080   5.144   4.917 -0.1732 -0.6507  0.2198
  109MOL   C31435090   6.086   4.975   5.261 -0.2658  0.1457 -0.1417
  109MOL   H31535091   6.144   4.941   5.059 -0.4581 -0.9124 -0.0083
  109MOL   H31635092   5.940   5.198   5.233 -0.2247  3.8450  0.6051
  109MOL   H31735093   5.903   5.406   5.146 -1.1280 -0.9457  0.0311
  109MOL   H31835094   6.061   5.286   4.757 -0.2886 -0.7382 -1.0910
  109MOL   H31935095   6.133   5.079   4.849  2.4330 -1.2398  2.7253
  109MOL   H32035096   6.161   5.051   5.284 -1.3915  0.9344  1.0160
  109MOL   H32135097   6.000   5.001   5.323 -0.1460  1.7787 -0.6344
  109MOL   H32235098   6.120   4.880   5.301  3.8816  0.6289 -2.2938
  110MOL     C135099   6.640   8.308   1.176 -0.6036  0.1055 -0.3415
  110MOL     C235100   6.550   8.295   1.054 -0.2769  0.2692  0.7060
  110MOL     C335101   6.565   8.177   0.981  0.4557 -0.4567 -0.1490
  110MOL     C435102   6.482   8.154   0.877  0.2218  0.4444  0.1282
  110MOL     C535103   6.389   8.249   0.834  0.7291 -0.5451 -0.3981
  110MOL    Cl635104   6.304   8.224   0.688 -0.3088  0.2643  0.0838
  110MOL     C735105   6.380   8.371   0.898  0.2829 -0.1945  0.0987
  110MOL     C835106   6.470   8.397   1.007  0.4993 -0.3766 -0.3355
  110MOL     C935107   6.572   8.252   1.302  0.4134 -0.5713 -0.0997
  110MOL    H1035108   6.674   8.411   1.188 -3.5999  1.3286 -1.6453
  110MOL    H1135109   6.629   8.096   1.010  1.3445 -0.7676 -2.8656
  110MOL    H1235110   6.502   8.060   0.826 -0.0407  0.5034 -0.0846
  110MOL    H1335111   6.311   8.442   0.856  1.6861  0.7473 -0.6512
  110MOL    H1435112   6.486   0.049   1.055 -3.1122  0.1836 -0.1252
  110MOL    H1535113   6.492   8.321   1.328  0.0214 -0.8630 -0.5157
  110MOL    H1635114   6.527   8.158   1.272  0.5865 -0.5368 -0.4705
  110MOL    H1735115   6.731   8.256   1.146 -1.5438 -0.5854 -2.0346
  110MOL    C1835116   6.660   8.224   1.424  0.4907  0.1224 -0.0409
  110MOL    C1935117   6.745   8.345   1.459 -0.3825 -0.0122 -0.5478
  110MOL    C2035118   6.691   8.443   1.544 -0.3112  0.2076  0.2110
  110MOL    C2135119   6.773   0.107   1.586  0.2511 -0.1464  0.3723
  110MOL    C2235120   6.905   0.122   1.537  0.3443 -0.1045  0.2601
  110MOL   Cl2335121   7.005   0.247   1.580 -0.1663 -0.0582  0.2410
  110MOL    C2435122   6.954   0.028   1.441  0.1541  0.0308  0.0258
  110MOL    C2535123   6.877   8.356   1.407 -0.1388 -0.5873 -0.1123
  110MOL    C2635124   6.587   8.161   1.541  0.6189  0.4176 -0.1091
  110MOL    H2735125   6.734   8.149   1.395  0.4367 -0.6783  1.8396
  110MOL    H2835126   6.593   8.439   1.590 -1.0908  0.2292 -1.3919
  110MOL    H2935127   6.730   0.179   1.654  1.1608  2.7822 -2.0459
  110MOL    H3035128   7.054   0.045   1.404  0.3978 -1.2019  0.0981
  110MOL    H3135129   6.915   8.279   1.341  2.4230  1.2143 -0.8179
  110MOL    H3235130   6.527   8.235   1.593 -0.1525 -0.6363  0.5162
  110MOL    H3335131   6.513   8.090   1.503 -0.6943  2.4485 -1.4565
  110MOL    C3435132   6.682   8.076   1.632 -0.0478 -0.2239 -0.7914
  110MOL    C3535133   6.746   8.167   1.735 -0.3505  0.4852  0.0659
  110MOL    C3635134   6.682   8.188   1.857 -0.4110 -0.8514 -0.2905
  110MOL    C3735135   6.752   8.256   1.956 -0.1891  0.1636  0.1293
  110MOL    C3835136   6.889   8.288   1.944  0.1258  0.0031 -0.2165
  110MOL   Cl3935137   6.969   8.356   2.082 -0.2098 -0.0830 -0.3934
  110MOL    C4035138   6.955   8.259   1.822 -0.0137  0.0470 -0.1944
  110MOL    C4135139   6.882   8.201   1.719  0.4125  0.8475 -0.1413
  110MOL    C4235140   6.630   7.945   1.698 -0.2807 -0.4380 -0.8698
  110MOL    H4335141   6.770   8.046   1.575  0.4800 -2.8097  1.2718
  110MOL    H4435142   6.580   8.161   1.879  0.4814 -1.5378  3.3525
  110MOL    H4535143   6.708   8.272   2.053 -0.7535  1.0095 -0.2586
  110MOL    H4635144   7.061   8.273   1.813  0.0303 -1.1004 -1.6463
  110MOL    H4735145   6.929   8.173   1.626 -1.8447  0.0647 -1.0690
  110MOL    H4835146   6.716   7.896   1.743 -1.2551  0.8400  2.5521
  110MOL    H4935147   6.559   7.970   1.777  1.2329 -1.2597  0.7601
  110MOL    C5035148   6.560   7.842   1.605  0.4678 -0.1975  0.3116
  110MOL    C5135149   6.656   7.806   1.487  0.3217 -0.0027  0.7528
  110MOL    C5235150   6.626   7.859   1.358 -0.3332 -0.0203 -0.2764
  110MOL    C5335151   6.705   7.834   1.238 -0.3232  0.6594 -0.6289
  110MOL    C5435152   6.818   7.742   1.259  0.0420  0.0247  0.2857
  110MOL   Cl5535153   6.902   7.675   1.121 -0.0517  0.1363 -0.2126
  110MOL    C5635154   6.859   7.702   1.393 -0.3192 -0.5085  0.8204
  110MOL    C5735155   6.777   7.733   1.504  0.3450 -0.6761  0.4162
  110MOL    C5835156   6.513   7.712   1.681  0.1963 -0.6613 -0.0732
  110MOL    H5935157   6.478   7.887   1.550  1.1091  1.5388  0.7526
  110MOL    H6035158   6.541   7.920   1.332 -0.7980 -0.4979  0.1091
  110MOL    H6135159   6.667   7.857   1.140 -0.2966  1.4877 -0.4466
  110MOL    H6235160   6.943   7.634   1.393  0.5064  0.4619 -1.4641
  110MOL    H6335161   6.808   7.697   1.601  1.6525 -1.9959 -0.4520
  110MOL    H6435162   6.595   7.643   1.701  2.3396  1.2749 -1.9731
  110MOL    H6535163   6.470   7.743   1.776 -0.5359 -1.0559 -0.2763
  110MOL    C6635164   6.394   7.645   1.607 -0.2629 -0.0877 -0.8432
  110MOL    C6735165   6.436   7.572   1.474  0.2648  0.1449  0.1951
  110MOL    C6835166   6.547   7.486   1.469 -0.1616  0.7189  0.0779
  110MOL    C6935167   6.598   7.447   1.336  0.3855  0.1889 -0.1476
  110MOL    C7035168   6.516   7.457   1.223  0.1416 -0.7180  0.7220
  110MOL   Cl7135169   6.587   7.398   1.068  0.0443 -0.0048 -0.5460
  110MOL    C7235170   6.391   7.522   1.239 -0.2884  0.3348  0.0081
  110MOL    C7335171   6.359   7.585   1.362  0.1000 -0.2384 -0.0211
  110MOL    C7435172   6.305   7.543   1.689  0.7303 -0.4566  0.1641
  110MOL    H7535173   6.331   7.723   1.564 -1.1789 -0.3774 -0.0531
  110MOL    H7635174   6.608   7.467   1.556 -2.1431 -1.1943  1.0877
  110MOL    H7735175   6.694   7.397   1.328 -0.1488 -1.3951  2.5820
  110MOL    H7835176   6.350   7.542   1.141  3.0760  0.3909 -1.4976
  110MOL    H7935177   6.265   7.638   1.365 -0.3662 -0.7167 -4.1521
  110MOL    H8035178   6.236   7.492   1.622  1.0150 -1.8370  0.9117
  110MOL    H8135179   6.367   7.466   1.734 -0.6858 -0.5695  1.9980
  110MOL    C8235180   6.212   7.613   1.787 -0.2176 -0.1197 -0.6227
  110MOL    C8335181   6.123   7.713   1.724  0.1540  0.2963  0.2452
  110MOL    C8435182   6.134   7.845   1.767 -0.0978 -0.5484 -0.0758
  110MOL    C8535183   6.036   7.935   1.730  0.2093  0.7864  0.2328
  110MOL    C8635184   5.937   7.896   1.637  0.2695  0.1035 -0.5575
  110MOL   Cl8735185   5.812   7.997   1.593  0.0853  0.0587 -0.5379
  110MOL    C8835186   5.939   7.768   1.580  0.5725  0.7642 -0.4157
  110MOL    C8935187   6.031   7.672   1.624 -0.5496 -0.1359  0.2991
  110MOL    C9035188   6.120   7.506   1.852  0.4756 -0.2434  0.6762
  110MOL    H9135189   6.260   7.669   1.867 -1.2674  0.5835 -0.4762
  110MOL    H9235190   6.214   7.869   1.835 -0.6961  1.2379  0.0232
  110MOL    H9335191   6.036   8.033   1.776  0.9117  1.5315 -1.3095
  110MOL    H9435192   5.868   7.739   1.503  0.5750 -0.1477 -0.0768
  110MOL    H9535193   6.015   7.579   1.571  0.2712  0.7907 -1.6205
  110MOL    H9635194   6.049   7.454   1.788  0.5465 -0.2747  0.6230
  110MOL    H9735195   6.180   7.423   1.891  0.3904 -2.2044 -3.0842
  110MOL    C9835196   6.044   7.547   1.987 -0.6433 -0.0379 -0.2394
  110MOL    C9935197   5.915   7.624   1.961 -0.0534  0.0294  0.8506
  110MOL   C10035198   5.802   7.563   1.897  0.0181 -0.0777 -0.5916
  110MOL   C10135199   5.679   7.630   1.887 -0.4451  0.3621 -0.2564
  110MOL   C10235200   5.666   7.764   1.938 -0.3546  0.3430  0.0876
  110MOL  Cl10335201   5.513   7.850   1.929  0.0215  0.5763 -0.3852
  110MOL   C10435202   5.779   7.830   1.998 -0.1650  0.7804 -0.3802
  110MOL   C10535203   5.895   7.751   2.013  0.2500  0.3600  0.1438
  110MOL   C10635204   6.016   7.428   2.088  0.3441 -0.7478  0.3013
  110MOL   H10735205   6.108   7.622   2.034 -0.5743  0.3119 -0.8835
  110MOL   H10835206   5.813   7.462   1.859 -4.3680 -0.4801 -0.9787
  110MOL   H10935207   5.593   7.582   1.844 -1.3440 -0.3443  2.2086
  110MOL   H11035208   5.776   7.929   2.041  0.8240 -0.0968  1.7726
  110MOL   H11135209   5.974   7.804   2.064  1.6398 -0.2346 -1.3381
  110MOL   H11235210   5.927   7.370   2.064 -0.0874 -0.1737  0.4964
  110MOL   H11335211   6.099   7.358   2.082 -0.1009 -1.1341 -1.6205
  110MOL   C11435212   5.983   7.470   2.237  0.0196 -0.1670  0.4152
  110MOL   C11535213   5.869   7.384   2.298  0.6327 -0.4118 -0.3255
  110MOL   C11635214   5.875   7.246   2.310 -0.0412 -0.1673 -0.8968
  110MOL   C11735215   5.768   7.180   2.371  0.0300 -0.0770  1.0768
  110MOL   C11835216   5.658   7.248   2.407  0.1440  0.4448 -0.2439
  110MOL  Cl11935217   5.511   7.163   2.449 -0.1219  0.7496  0.3654
  110MOL   C12035218   5.645   7.387   2.386  0.0983 -0.0622 -0.0413
  110MOL   C12135219   5.753   7.460   2.335  0.5762  0.3074  0.2911
  110MOL   C12235220   6.097   7.473   2.346  0.0283  1.0631  0.6776
  110MOL   H12335221   5.942   7.569   2.217  0.0977 -0.5729 -1.8959
  110MOL   H12435222   5.952   7.182   2.268  0.2014 -0.7305  0.3656
  110MOL   H12535223   5.768   7.073   2.391  1.1692 -0.0590  1.1723
  110MOL   H12635224   5.559   7.446   2.414  1.1512  1.6390 -0.3486
  110MOL   H12735225   5.739   7.562   2.302 -3.7854 -0.8319 -1.6683
  110MOL   H12835226   6.055   7.504   2.441 -2.0243 -1.3612  0.6226
  110MOL   H12935227   6.130   7.370   2.358 -1.2946  0.4965 -0.3754
  110MOL   C13035228   6.217   7.557   2.306  0.6122 -0.0701  0.1978
  110MOL   C13135229   6.189   7.708   2.300  0.4990 -0.1264  0.8121
  110MOL   C13235230   6.094   7.769   2.384 -0.4566  0.2192  0.3051
  110MOL   C13335231   6.051   7.899   2.354 -0.1399 -0.1699 -1.1269
  110MOL   C13435232   6.105   7.976   2.247 -0.0849 -0.1017  0.0932
  110MOL  Cl13535233   6.063   8.136   2.232 -0.0563  0.0767 -0.3811
  110MOL   C13635234   6.208   7.918   2.166 -0.1996  0.2486 -0.0259
  110MOL   C13735235   6.244   7.782   2.192  0.3613 -0.1876  0.2044
  110MOL   C13835236   6.348   7.538   2.389  0.4613 -0.1723 -0.6811
  110MOL   H13935237   6.245   7.526   2.206  0.0194 -2.5641  0.7639
  110MOL   H14035238   6.037   7.725   2.464 -1.0656 -1.2820 -0.9263
  110MOL   H14135239   5.976   7.944   2.417  1.4538  0.3697  0.3976
  110MOL   H14235240   6.255   7.971   2.085  0.2984 -1.4081 -0.8368
  110MOL   H14335241   6.319   7.738   2.127 -0.4671 -2.0227  0.4755
  110MOL   H14435242   6.420   7.618   2.369  0.1730  0.9052  2.2328
  110MOL   H14535243   6.315   7.567   2.489 -1.2860 -1.1366 -0.9565
  110MOL   C14635244   6.431   7.406   2.370 -0.2877  0.2130 -0.4337
  110MOL   C14735245   6.420   7.355   2.232  0.0641 -0.3286  0.3197
  110MOL   C14835246   6.494   7.393   2.123  0.1752 -0.3674  0.2943
  110MOL   C14935247   6.472   7.337   1.994 -0.0420  0.2765 -0.5914
  110MOL   C15035248   6.377   7.228   1.984  0.0607 -0.2690 -0.4022
  110MOL  Cl15135249   6.368   7.160   1.827  0.1678 -0.0255 -0.1439
  110MOL   C15235250   6.308   7.173   2.096  0.3679 -0.0863  0.1098
  110MOL   C15335251   6.334   7.246   2.215  0.2626  0.6002  1.0803
  110MOL   C15435252   6.570   7.431   2.419 -0.6370 -0.5101  0.3516
  110MOL   H15535253   6.380   7.328   2.427  3.0187 -3.3319 -2.0698
  110MOL   H15635254   6.564   7.474   2.141 -0.7507  1.0010 -1.9492
  110MOL   H15735255   6.531   7.365   1.908  0.8412 -0.7249 -0.3194
  110MOL   H15835256   6.227   7.103   2.084 -1.1904  1.4908  1.1088
  110MOL   H15935257   6.288   7.206   2.304  2.0027  1.2753  2.3288
  110MOL   H16035258   6.611   7.516   2.362 -1.0504  0.7167  1.8542
  110MOL   H16135259   6.568   7.474   2.519 -0.1678 -1.2307  0.6776
  110MOL   C16235260   6.684   7.326   2.395  0.4717  0.2611 -0.4362
  110MOL   C16335261   6.817   7.397   2.429 -0.4967 -0.7432 -0.2402
  110MOL   C16435262   6.837   7.443   2.564 -0.0848 -0.4779 -0.4030
  110MOL   C16535263   6.960   7.492   2.609 -0.4559 -0.2162 -0.4198
  110MOL   C16635264   7.062   7.514   2.509  0.6792 -0.2986 -1.1945
  110MOL  Cl16735265   7.220   7.576   2.544  0.1040 -0.0995 -0.3379
  110MOL   C16835266   7.039   7.475   2.375 -0.5020  0.1798 -0.8298
  110MOL   C16935267   6.914   7.417   2.335 -0.1468  0.6890 -0.2247
  110MOL   C17035268   6.667   7.204   2.483 -0.2987 -0.6351 -0.4664
  110MOL   H17135269   6.692   7.289   2.293  2.7838 -0.2638 -0.0846
  110MOL   H17235270   6.761   7.426   2.639 -2.2229  0.6769 -2.2457
  110MOL   H17335271   6.977   7.515   2.713 -0.8686 -2.8543  0.2543
  110MOL   H17435272   7.113   7.486   2.297  0.4290 -0.9515 -0.1098
  110MOL   H17535273   6.897   7.387   2.232  0.3744  0.2589 -0.1864
  110MOL   H17635274   6.767   7.193   2.525 -0.2584  1.6074  0.0897
  110MOL   H17735275   6.618   7.234   2.577  0.7913 -0.8195  0.1647
  110MOL   C17835276   6.617   7.068   2.420 -0.0102  0.2874 -0.0916
  110MOL   C17935277   6.723   7.030   2.318  0.4021  1.1963  0.8518
  110MOL   C18035278   6.691   7.034   2.181 -0.3465 -0.5766 -0.0625
  110MOL   C18135279   6.787   6.984   2.091 -0.2890 -0.2046  0.0805
  110MOL   C18235280   6.921   6.970   2.127  0.0085 -0.3477  0.4466
  110MOL  Cl18335281   7.039   6.919   2.017 -0.6413  0.0368 -0.2658
  110MOL   C18435282   6.957   6.971   2.264  0.2052 -0.0283 -0.5011
  110MOL   C18535283   6.860   6.995   2.361 -0.1245 -0.0258  0.7654
  110MOL   C18635284   6.608   6.950   2.515 -0.0308 -0.2958  0.8032
  110MOL   H18735285   6.518   7.078   2.377 -0.6179 -2.4702  0.6003
  110MOL   H18835286   6.596   7.063   2.138 -1.4891 -0.7337  2.3055
  110MOL   H18935287   6.761   6.971   1.987  0.8959 -0.6888 -0.1624
  110MOL   H19035288   7.059   6.951   2.291  0.6300  1.8886 -0.5932
  110MOL   H19135289   6.891   7.001   2.464  1.4189 -1.6281  0.3931
  110MOL   H19235290   6.583   6.871   2.445 -0.6047  0.4871  0.1229
  110MOL   H19335291   6.706   6.940   2.562 -0.9017  0.4907  2.8574
  110MOL   C19435292   6.504   6.963   2.626  0.5314 -0.5667  0.9203
  110MOL   C19535293   6.366   6.950   2.563  0.6108  0.3384 -0.4258
  110MOL   C19635294   6.337   6.836   2.497 -0.1658  0.3798 -0.1587
  110MOL   C19735295   6.217   6.818   2.435 -0.0766  0.1598  0.1965
  110MOL   C19835296   6.127   6.922   2.429 -0.0285 -0.3135 -0.1570
  110MOL  Cl19935297   5.988   6.918   2.329  0.1494  0.1500  0.1318
  110MOL   C20035298   6.147   7.038   2.504 -0.2406 -0.0820  0.6664
  110MOL   C20135299   6.265   7.051   2.582 -0.4217  0.5807 -0.4942
  110MOL   C20235300   6.522   6.859   2.741 -0.1609  0.1839 -0.1931
  110MOL   H20335301   6.528   7.062   2.666 -3.1633  0.7533  0.0061
  110MOL   H20435302   6.412   6.758   2.490  0.2106  0.6217  1.0344
  110MOL   H20535303   6.188   6.734   2.375 -2.5157  1.2190 -0.1792
  110MOL   H20635304   6.072   7.115   2.505  0.6676  0.8883 -1.4545
  110MOL   H20735305   6.277   7.131   2.653 -0.0982 -0.8483  1.1044
  110MOL   H20835306   6.446   6.886   2.815 -1.1733 -1.2434 -0.6913
  110MOL   H20935307   6.497   6.760   2.704  0.0623  0.0960 -0.1062
  110MOL   C21035308   6.663   6.847   2.810  0.5640 -0.1894  0.2480
  110MOL   C21135309   6.757   6.966   2.822 -0.0619 -0.5536  0.1106
  110MOL   C21235310   6.896   6.942   2.814  0.5749  0.2293  0.8114
  110MOL   C21335311   6.989   7.047   2.833 -0.8374 -0.1296  0.1598
  110MOL   C21435312   6.948   7.171   2.883  0.5100  0.4961 -0.4829
  110MOL  Cl21535313   7.071   7.290   2.888 -0.2237 -0.1460  0.0616
  110MOL   C21635314   6.807   7.191   2.908  0.4487 -0.5140  0.8578
  110MOL   C21735315   6.717   7.093   2.859 -0.0487  0.5530 -0.4199
  110MOL   C21835316   6.639   6.793   2.947  0.2333  0.7004  0.2783
  110MOL   H21935317   6.722   6.780   2.749 -0.3494  0.2229 -1.1113
  110MOL   H22035318   6.938   6.848   2.781  1.6644  1.6799 -2.1470
  110MOL   H22135319   7.093   7.025   2.813 -0.2498  1.7312  1.0316
  110MOL   H22235320   6.776   7.284   2.953 -0.4656  0.3161 -1.4215
  110MOL   H22335321   6.610   7.102   2.871 -0.1507 -0.8263 -0.1715
  110MOL   H22435322   6.740   6.790   2.988  0.1970 -1.9226  0.2932
  110MOL   H22535323   6.575   6.864   2.999 -0.6285  0.9707 -1.1204
  110MOL   C22635324   6.570   6.652   2.961  0.4883  0.4444 -0.1185
  110MOL   C22735325   6.647   6.540   2.897  0.2682 -0.3546  0.3952
  110MOL   C22835326   6.773   6.505   2.942  0.6090  0.0335  0.3630
  110MOL   C22935327   6.849   6.404   2.883 -0.1655 -0.1859 -0.1422
  110MOL   C23035328   6.797   6.337   2.769 -0.1547 -0.5108 -0.1493
  110MOL  Cl23135329   6.900   6.231   2.677 -0.1307 -0.0940 -0.1217
  110MOL   C23235330   6.664   6.362   2.728  0.3023 -0.1736  0.0319
  110MOL   C23335331   6.592   6.471   2.786  0.9222 -0.2492  0.6610
  110MOL   C23435332   6.555   6.619   3.113 -0.5185  0.7138 -0.1330
  110MOL   H23535333   6.467   6.662   2.925  0.5518  0.0333 -0.4144
  110MOL   H23635334   6.819   6.561   3.023  1.5019  0.5500 -0.4937
  110MOL   H23735335   6.953   6.396   2.909 -0.1107  0.4381 -0.1529
  110MOL   H23835336   6.625   6.310   2.642  0.5453  0.4939 -0.4803
  110MOL   H23935337   6.487   6.484   2.762  0.8944 -0.8004  0.4720
  110MOL   H24035338   6.653   6.598   3.156 -0.3796 -0.1324 -0.8586
  110MOL   H24135339   6.520   6.710   3.163 -1.1632 -0.7269  2.1237
  110MOL   C24235340   6.471   6.503   3.152  0.4806  0.1052 -0.5630
  110MOL   C24335341   6.323   6.529   3.112 -0.0785 -0.6229  0.4220
  110MOL   C24435342   6.246   6.624   3.177  0.2101  0.5043 -0.3689
  110MOL   C24535343   6.114   6.650   3.139 -0.5565 -0.3283  0.5183
  110MOL   C24635344   6.055   6.581   3.031 -0.4618 -0.2269 -0.5223
  110MOL  Cl24735345   5.891   6.595   2.991  0.0092 -0.1270 -0.4024
  110MOL   C24835346   6.128   6.480   2.966 -0.0783  0.8318 -0.4112
  110MOL   C24935347   6.263   6.453   3.005  0.3102 -0.1245 -0.7369
  110MOL   C25035348   6.525   6.363   3.117 -0.3946  0.4790 -0.3913
  110MOL   H25135349   6.462   6.517   3.260 -0.2073 -0.2592 -0.5732
  110MOL   H25235350   6.289   6.687   3.254  3.2529  0.7923 -2.2004
  110MOL   H25335351   6.045   6.721   3.183  0.6981  1.8850 -1.0488
  110MOL   H25435352   6.082   6.423   2.887  1.2218 -0.6825 -0.1156
  110MOL   H25535353   6.318   6.378   2.949  0.7024 -0.7627  0.4921
  110MOL   H25635354   6.519   6.339   3.011 -0.9438  0.7795 -0.4269
  110MOL   H25735355   6.632   6.351   3.137  0.2857  2.1180 -2.7266
  110MOL   C25835356   6.458   6.254   3.199  0.5694  0.3470 -0.1702
  110MOL   C25935357   6.474   6.116   3.130  0.2524  0.8815 -0.5886
  110MOL   C26035358   6.369   6.060   3.055 -0.0525  0.3991  1.1576
  110MOL   C26135359   6.376   5.933   2.996  0.4402  0.2794  0.5475
  110MOL   C26235360   6.491   5.857   3.011 -0.0235  0.0365  0.1987
  110MOL  Cl26335361   6.483   5.699   2.944 -0.1766  0.1533 -0.2095
  110MOL   C26435362   6.605   5.908   3.081  0.0985  0.5942  0.5301
  110MOL   C26535363   6.595   6.040   3.135  0.1531  0.1631  0.0723
  110MOL   C26635364   6.499   6.254   3.352  0.2954  0.0294  0.6291
  110MOL   H26735365   6.350   6.266   3.204  0.1925 -2.9494  1.3106
  110MOL   H26835366   6.274   6.109   3.042 -0.5058 -0.5599  0.8294
  110MOL   H26935367   6.294   5.885   2.944  1.0886 -0.3636  0.1059
  110MOL   H27035368   6.694   5.848   3.087 -0.3680 -0.2519 -0.8116
  110MOL   H27135369   6.676   6.077   3.195  0.6904 -0.0965 -0.4855
  110MOL   H27235370   6.608   6.265   3.357  0.2453  1.0254 -0.4161
  110MOL   H27335371   6.456   6.346   3.392 -2.5888 -1.4993  1.1671
  110MOL   C27435372   6.470   6.127   3.435  0.7569 -0.2030  0.2166
  110MOL   C27535373   6.519   6.158   3.575 -0.8688 -0.1692 -0.7245
  110MOL   C27635374   6.445   6.215   3.679  0.0389 -0.4285  0.2521
  110MOL   C27735375   6.502   6.251   3.802 -0.6491 -0.2091  0.3468
  110MOL   C27835376   6.640   6.244   3.814 -0.2073 -0.0979 -0.2456
  110MOL  Cl27935377   6.714   6.297   3.960  0.2924  0.1929 -0.9304
  110MOL   C28035378   6.719   6.176   3.722  0.7608 -0.1309  0.1378
  110MOL   C28135379   6.659   6.143   3.600  0.1415 -0.7426 -0.2016
  110MOL   C28235380   6.315   6.099   3.434  0.0058  0.3853  0.5689
  110MOL   H28335381   6.538   6.051   3.396  0.5717  0.5641 -1.6389
  110MOL   H28435382   6.339   6.230   3.665  0.3072 -0.3569 -1.7919
  110MOL   H28535383   6.450   6.295   3.886  0.0830 -3.3658  2.5600
  110MOL   H28635384   6.825   6.165   3.736  0.7080 -0.1479  0.5274
  110MOL   H28735385   6.722   6.106   3.521 -1.9825 -2.9461 -0.9370
  110MOL   H28835386   6.268   6.189   3.474  0.0286 -0.3891  2.3651
  110MOL   H28935387   6.276   6.084   3.333 -1.1560  1.4524  0.8428
  110MOL   C29035388   6.281   5.971   3.512 -0.9359 -0.0432 -0.4252
  110MOL   C29135389   6.135   5.957   3.510  0.5531 -0.1366 -0.1242
  110MOL   C29235390   6.074   5.908   3.394  0.0065  0.0954  0.0667
  110MOL   C29335391   5.932   5.913   3.386  0.2018  0.2358 -0.4023
  110MOL   C29435392   5.857   5.955   3.495  0.0872 -0.4658  0.0684
  110MOL  Cl29535393   5.683   5.963   3.492  0.2826  0.4275 -0.0003
  110MOL   C29635394   5.923   5.999   3.607 -0.4337 -0.4288 -0.0714
  110MOL   C29735395   6.061   6.000   3.618 -0.7591 -1.0160  0.0859
  110MOL   C29835396   6.351   5.852   3.461  0.2964 -0.5865 -0.1159
  110MOL   H29935397   6.315   5.988   3.614 -0.0621  0.8159 -0.8596
  110MOL   H30035398   6.132   5.891   3.304  0.8362 -0.6577  0.7352
  110MOL   H30135399   5.885   5.881   3.294 -1.5470 -0.7297  0.7997
  110MOL   H30235400   5.862   6.030   3.691 -0.6777 -1.1280  0.0104
  110MOL   H30335401   6.107   6.031   3.710 -1.2005 -0.3738  0.0931
  110MOL   H30435402   6.279   5.770   3.460 -1.5419  0.9773  1.2792
  110MOL   H30535403   6.362   5.853   3.353  1.0679  0.6273 -0.0302
  110MOL   C30635404   6.480   5.800   3.524 -0.0853 -0.1213 -0.0950
  110MOL   C30735405   6.467   5.772   3.673  0.7938 -0.0494  0.3888
  110MOL   C30835406   6.568   5.800   3.766 -0.1539  0.0400  0.0068
  110MOL   C30935407   6.564   5.761   3.901  0.3999 -0.2822  0.4659
  110MOL   C31035408   6.445   5.698   3.947 -0.0164 -0.3318  0.0721
  110MOL  Cl31135409   6.432   5.664   4.112  0.2189  0.1886  0.1975
  110MOL   C31235410   6.337   5.670   3.859 -0.1101 -1.3285 -0.3166
  110MOL   C31335411   6.351   5.706   3.726 -0.1855 -0.6910 -0.0977
  110MOL   C31435412   6.524   5.679   3.446 -0.1589 -0.0684 -0.5675
  110MOL   H31535413   6.566   5.866   3.510  0.2508 -0.8946 -1.7093
  110MOL   H31635414   6.662   5.845   3.739 -0.3601  1.1029  1.0238
  110MOL   H31735415   6.649   5.783   3.963  1.1109 -0.8971 -0.2789
  110MOL   H31835416   6.258   5.608   3.897  1.1774 -2.3829  0.6630
  110MOL   H31935417   6.270   5.679   3.659  0.0929  3.6125 -2.3397
  110MOL   H32035418   6.444   5.604   3.455 -1.3207  1.4597  2.5963
  110MOL   H32135419   6.539   5.701   3.341 -1.2618  2.5756 -0.2134
  110MOL   H32235420   6.609   5.633   3.497 -2.4578 -0.8460  2.7768
  111MOL     C135421   1.357   0.041   5.865 -0.1310 -0.1146  0.4214
  111MOL     C235422   1.492   0.062   5.791 -0.2806 -0.8179 -0.1915
  111MOL     C335423   1.491   0.106   5.659  0.2182  0.0628 -0.3733
  111MOL     C435424   1.600   0.150   5.590  0.0570  0.3012  0.1494
  111MOL     C535425   1.726   0.138   5.653 -0.2679 -0.4450 -0.3153
  111MOL    Cl635426   1.874   0.173   5.567 -0.2064  0.0469 -0.1030
  111MOL     C735427   1.732   0.089   5.782 -0.9867  0.1107  0.4869
  111MOL     C835428   1.618   0.060   5.858 -0.3785  0.3091  0.4761
  111MOL     C935429   1.370   8.416   6.002 -0.6507 -0.2872  0.2693
  111MOL    H1035430   1.296   8.434   5.790  0.9508 -0.8721  0.0224
  111MOL    H1135431   1.393   0.104   5.615 -0.2997  0.0683  0.7559
  111MOL    H1235432   1.603   0.176   5.485 -2.0017 -1.7303 -0.4695
  111MOL    H1335433   1.831   0.086   5.825  0.1405 -0.2119 -2.0006
  111MOL    H1435434   1.627   0.045   5.964 -1.6263 -1.1599  0.3913
  111MOL    H1535435   1.438   8.331   5.993  0.6187  0.7747 -0.3898
  111MOL    H1635436   1.421   0.041   6.071 -1.4374  0.6146 -0.0209
  111MOL    H1735437   1.311   0.136   5.889  2.4811  1.2024  0.4042
  111MOL    C1835438   1.243   8.357   6.064  0.1345  0.0218  0.0078
  111MOL    C1935439   1.137   0.012   6.102 -0.0968 -0.8905 -0.0956
  111MOL    C2035440   1.097   0.040   6.239 -0.2417  0.6480  0.5709
  111MOL    C2135441   0.985   0.114   6.271  1.3183 -0.1190  0.0188
  111MOL    C2235442   0.900   0.174   6.174  0.9263 -0.9190 -0.1579
  111MOL   Cl2335443   0.748   0.248   6.214 -0.2275 -0.0175  0.1283
  111MOL    C2435444   0.952   0.170   6.039  0.1881 -0.4496 -0.1624
  111MOL    C2535445   1.069   0.089   6.007  0.5689 -0.1682  0.1019
  111MOL    C2635446   1.183   8.231   5.986 -0.8378 -0.0111  0.2650
  111MOL    H2735447   1.279   8.329   6.163 -1.4727 -1.5225  0.1692
  111MOL    H2835448   1.150   8.429   6.316  0.7171 -1.1842 -1.3001
  111MOL    H2935449   0.957   0.123   6.375 -0.2408 -1.1206 -0.3031
  111MOL    H3035450   0.914   0.234   5.961  0.7113  2.4302  1.8170
  111MOL    H3135451   1.092   0.077   5.902  2.4344 -0.0540  0.4922
  111MOL    H3235452   1.144   8.246   5.886 -0.0107 -0.6970 -0.1643
  111MOL    H3335453   1.277   8.179   5.967 -1.3039 -0.0122 -2.2223
  111MOL    C3435454   1.093   8.137   6.067 -0.4156 -0.0789 -0.3359
  111MOL    C3535455   0.965   8.200   6.115  0.5693 -0.1285  0.1213
  111MOL    C3635456   0.940   8.190   6.255  0.4185  0.1991  0.0005
  111MOL    C3735457   0.809   8.234   6.298  0.3032  0.0683  1.1567
  111MOL    C3835458   0.712   8.266   6.198  0.6706  0.4389 -1.0843
  111MOL   Cl3935459   0.557   8.305   6.245 -0.1034  0.1398  0.4257
  111MOL    C4035460   0.746   8.282   6.065 -0.1160  0.5472 -0.0395
  111MOL    C4135461   0.872   8.245   6.021  0.1354 -0.1539 -0.7352
  111MOL    C4235462   1.067   8.008   5.989  0.1183 -0.4462 -0.1606
  111MOL    H4335463   1.152   8.119   6.157  1.7629  1.5874 -1.3738
  111MOL    H4435464   1.018   8.159   6.323 -0.2715  0.5366  0.9467
  111MOL    H4535465   0.775   8.246   6.400  0.3067 -0.2795  1.2013
  111MOL    H4635466   0.667   8.312   5.997 -2.4309 -0.9850  1.8639
  111MOL    H4735467   0.902   8.250   5.918 -0.1809  0.1859 -0.8105
  111MOL    H4835468   0.983   7.957   6.037 -1.6470  0.6213 -2.0366
  111MOL    H4935469   1.038   8.039   5.889 -0.7729  0.3561  0.3416
  111MOL    C5035470   1.184   7.907   5.962 -0.5243 -0.3859  0.7203
  111MOL    C5135471   1.266   7.903   6.084  0.2504 -0.1500  0.4150
  111MOL    C5235472   1.219   7.841   6.201 -0.7024  0.3049 -0.4526
  111MOL    C5335473   1.304   7.839   6.316 -0.0993 -0.5251  0.6246
  111MOL    C5435474   1.425   7.912   6.318  1.3319 -1.1838  0.8756
  111MOL   Cl5535475   1.525   7.904   6.461  0.3887  0.0262 -0.0776
  111MOL    C5635476   1.474   7.966   6.206  0.2911 -0.4163  0.0896
  111MOL    C5735477   1.397   7.957   6.085 -0.7483  0.4753 -0.2423
  111MOL    C5835478   1.132   7.768   5.923  0.6671 -0.0137 -0.3469
  111MOL    H5935479   1.252   7.941   5.884  2.0459 -2.3363  2.0215
  111MOL    H6035480   1.122   7.794   6.196  0.1838 -1.6317  0.1306
  111MOL    H6135481   1.275   7.801   6.413 -0.3948 -0.5922  0.5089
  111MOL    H6235482   1.565   8.024   6.201 -0.1862  0.2322 -1.5397
  111MOL    H6335483   1.433   8.011   5.999  2.4657  0.7229  1.1536
  111MOL    H6435484   1.208   7.697   5.956 -0.3596 -1.2210 -0.5439
  111MOL    H6535485   1.052   7.738   5.991  1.3445 -0.7511  0.1432
  111MOL    C6635486   1.082   7.765   5.778 -0.1913  0.1254 -0.2438
  111MOL    C6735487   1.193   7.792   5.673 -0.8975 -0.3166  0.1001
  111MOL    C6835488   1.315   7.721   5.682 -0.0393 -0.0990  0.7986
  111MOL    C6935489   1.411   7.724   5.580 -0.0393 -0.4814  0.3079
  111MOL    C7035490   1.390   7.816   5.471 -0.4784 -0.1752  0.8017
  111MOL   Cl7135491   1.500   7.837   5.339  0.3031 -0.2438 -0.1983
  111MOL    C7235492   1.278   7.900   5.470  0.9927 -0.2335  0.0435
  111MOL    C7335493   1.174   7.886   5.565  0.1211  0.1665 -0.3790
  111MOL    C7435494   1.003   7.636   5.759 -0.0536  0.1203  0.2104
  111MOL    H7535495   1.005   7.843   5.774  1.3719  1.6779 -1.2161
  111MOL    H7635496   1.323   7.649   5.763  2.8039  0.6283  1.1913
  111MOL    H7735497   1.500   7.664   5.589 -0.4459 -0.6914  3.3310
  111MOL    H7835498   1.261   7.970   5.390  0.1779  0.6281  0.9664
  111MOL    H7935499   1.091   7.954   5.552 -0.8377 -0.8066  0.6092
  111MOL    H8035500   1.067   7.549   5.775  1.9397  1.4489 -0.3025
  111MOL    H8135501   0.926   7.635   5.836 -0.6053 -0.0145 -0.3409
  111MOL    C8235502   0.934   7.625   5.623 -0.4603  0.3242 -0.3088
  111MOL    C8335503   0.840   7.507   5.638  0.1078 -0.2665  0.3196
  111MOL    C8435504   0.727   7.503   5.723 -0.6363  0.2226  0.1036
  111MOL    C8535505   0.650   7.385   5.744  0.4197  0.6174  0.1741
  111MOL    C8635506   0.693   7.261   5.696  0.3428  0.3333  0.8514
  111MOL   Cl8735507   0.593   7.116   5.706  0.1364 -0.0165  0.0485
  111MOL    C8835508   0.805   7.262   5.607 -0.9383  0.9615  0.5961
  111MOL    C8935509   0.873   7.382   5.578 -0.7488  0.5629  0.1442
  111MOL    C9035510   0.847   7.749   5.579  0.2819  0.2775 -0.0513
  111MOL    H9135511   1.006   7.594   5.547  1.6143 -1.0787  2.1428
  111MOL    H9235512   0.681   7.589   5.769  0.3769  1.4102 -1.0777
  111MOL    H9335513   0.550   7.396   5.784 -0.5490 -4.1278 -0.5468
  111MOL    H9435514   0.832   7.172   5.555 -1.3440  1.4703 -0.4931
  111MOL    H9535515   0.962   7.379   5.518 -0.7665  1.2478  0.0857
  111MOL    H9635516   0.758   7.771   5.637 -0.9448 -1.9623 -0.9971
  111MOL    H9735517   0.904   7.842   5.584  0.7804 -0.0201 -0.1749
  111MOL    C9835518   0.800   7.739   5.432 -0.0173 -0.1311  0.4671
  111MOL    C9935519   0.680   7.647   5.421 -0.3487 -0.0078  0.4906
  111MOL   C10035520   0.684   7.542   5.329  0.3026 -0.1121  0.7445
  111MOL   C10135521   0.578   7.447   5.323  1.0160 -0.7134 -0.3951
  111MOL   C10235522   0.467   7.472   5.398  0.5662 -0.5531  0.1643
  111MOL  Cl10335523   0.338   7.363   5.393  0.3025 -0.5224 -0.2396
  111MOL   C10435524   0.453   7.590   5.477  0.6120  0.0622 -0.4601
  111MOL   C10535525   0.557   7.683   5.483 -0.5312 -0.0772  0.0024
  111MOL   C10635526   0.771   7.881   5.377  0.2805  0.0994 -0.4099
  111MOL   H10735527   0.881   7.696   5.373 -3.2431 -4.7821 -0.7952
  111MOL   H10835528   0.782   7.517   5.290 -0.1171  0.4680 -0.6940
  111MOL   H10935529   0.587   7.353   5.271  0.9545 -1.2074  0.4782
  111MOL   H11035530   0.357   7.600   5.527  1.1055 -0.5456  0.6139
  111MOL   H11135531   0.554   7.774   5.541 -0.3262 -0.5885  0.8232
  111MOL   H11235532   0.698   7.937   5.437  0.5579  1.3413 -1.2014
  111MOL   H11335533   0.860   7.943   5.386  0.9032 -1.0601  1.7053
  111MOL   C11435534   0.715   7.899   5.234  0.4469 -0.3420  0.3376
  111MOL   C11535535   0.566   7.873   5.226 -0.3451 -0.7328 -1.0970
  111MOL   C11635536   0.517   7.773   5.143  0.2455 -0.0393 -0.3874
  111MOL   C11735537   0.374   7.749   5.127  0.6756  0.3982  0.3514
  111MOL   C11835538   0.284   7.827   5.196 -0.3215 -0.7892 -1.0891
  111MOL  Cl11935539   0.119   7.794   5.171  0.5057  0.0605 -0.0761
  111MOL   C12035540   0.329   7.925   5.286 -0.0001 -0.0229  0.6831
  111MOL   C12135541   0.471   7.955   5.295 -0.2672 -0.3887 -0.4714
  111MOL   C12235542   0.747   8.033   5.171  0.1478  0.4457 -0.0397
  111MOL   H12335543   0.750   7.818   5.171 -0.4538 -0.9054  0.5417
  111MOL   H12435544   0.594   7.705   5.113 -1.4023 -1.1038 -2.3850
  111MOL   H12535545   0.333   7.666   5.072 -0.5206  0.4996  1.0824
  111MOL   H12635546   0.257   7.980   5.345  0.9030  0.0746  1.7215
  111MOL   H12735547   0.496   8.043   5.353  0.9772 -2.2695  1.8989
  111MOL   H12835548   0.678   8.036   5.086 -0.9184 -2.4793  0.6810
  111MOL   H12935549   0.728   8.114   5.241 -1.3760 -1.2699  1.5754
  111MOL   C13035550   0.894   8.070   5.116  0.1711  0.2242 -0.7244
  111MOL   C13135551   0.949   7.963   5.019 -0.3926 -0.2958 -0.6300
  111MOL   C13235552   0.882   7.932   4.904  0.2523  0.1276  1.2380
  111MOL   C13335553   0.941   7.837   4.820 -0.1681 -0.1383 -0.2490
  111MOL   C13435554   1.068   7.783   4.843 -0.0905  0.3651  0.0397
  111MOL  Cl13535555   1.136   7.670   4.728  0.2380 -0.1153 -0.2359
  111MOL   C13635556   1.136   7.818   4.962  0.1159 -0.0186  0.3596
  111MOL   C13735557   1.071   7.895   5.056 -0.1374 -0.1969 -0.6465
  111MOL   C13835558   0.900   8.211   5.066  0.2330  0.0474  0.2323
  111MOL   H13935559   0.962   8.051   5.199 -0.7536 -1.1950 -0.2792
  111MOL   H14035560   0.786   7.970   4.872  0.5027  0.2451  0.6250
  111MOL   H14135561   0.880   7.803   4.737 -1.4381 -0.6769  0.8828
  111MOL   H14235562   1.228   7.768   4.988  0.3282 -0.2498 -0.7784
  111MOL   H14335563   1.122   7.914   5.149  0.1483 -2.2156 -0.3791
  111MOL   H14435564   0.873   8.217   4.960  1.2345  3.1340  0.0820
  111MOL   H14535565   0.823   8.267   5.119  1.4065  1.3843  0.5862
  111MOL   C14635566   1.031   8.288   5.091  0.5164  0.2413 -0.7640
  111MOL   C14735567   1.154   8.208   5.070 -0.3270  0.3528 -0.3617
  111MOL   C14835568   1.191   8.163   4.946 -0.9159 -1.0405  0.1986
  111MOL   C14935569   1.311   8.100   4.918 -0.0378  0.0520 -0.1557
  111MOL   C15035570   1.409   8.090   5.020 -0.6919  0.0217 -0.5534
  111MOL  Cl15135571   1.560   8.022   4.984  0.3470  0.0557  0.0841
  111MOL   C15235572   1.369   8.124   5.149  0.2243  0.7079 -0.3918
  111MOL   C15335573   1.244   8.184   5.177  0.4940 -0.7528 -0.1050
  111MOL   C15435574   1.043   8.418   5.007  0.4076  0.6088 -0.1859
  111MOL   H15535575   1.029   8.318   5.195  2.9959  0.6565 -0.8123
  111MOL   H15635576   1.117   8.180   4.869  0.9036  0.6763 -1.2262
  111MOL   H15735577   1.331   8.068   4.817  1.8379  2.2438 -0.5313
  111MOL   H15835578   1.440   8.111   5.230 -0.9049  0.3026  0.5339
  111MOL   H15935579   1.212   8.207   5.277  1.2278  1.9921 -0.4632
  111MOL   H16035580   1.050   8.391   4.902 -1.3468 -0.9941  0.0983
  111MOL   H16135581   0.953   0.035   5.024 -0.3367 -0.8065  0.9518
  111MOL   C16235582   1.146   0.085   5.042  0.0595  0.1753 -0.3280
  111MOL   C16335583   1.138   0.138   5.188  0.2019 -0.3661 -0.1405
  111MOL   C16435584   1.189   0.068   5.297 -0.3976  0.0189  0.0277
  111MOL   C16535585   1.173   0.120   5.425  0.0600 -0.1659  0.0170
  111MOL   C16635586   1.102   0.240   5.449 -0.5761 -0.2183 -0.0799
  111MOL  Cl16735587   1.076   0.292   5.613  0.0859 -0.0496 -0.0682
  111MOL   C16835588   1.056   0.318   5.332  0.1170 -0.3673 -0.5866
  111MOL   C16935589   1.080   0.266   5.205  0.2621  0.8390  0.2020
  111MOL   C17035590   1.276   0.036   4.983 -0.4134  0.2242 -0.2708
  111MOL   H17135591   1.108   0.173   4.989  0.1032 -0.5779 -1.6270
  111MOL   H17235592   1.228   8.411   5.288  1.9204  1.1006 -2.7476
  111MOL   H17335593   1.215   0.068   5.509  2.2961  1.2231 -0.2028
  111MOL   H17435594   1.013   0.417   5.333  2.8921  0.8893  0.9254
  111MOL   H17535595   1.022   0.309   5.125 -1.2750 -1.4418  0.0255
  111MOL   H17635596   1.317   8.398   5.044  1.9220  2.2705  0.9817
  111MOL   H17735597   1.272   0.002   4.880  1.0814  0.1507 -0.3225
  111MOL   C17835598   1.390   0.144   4.975  0.2003  0.5062  0.0203
  111MOL   C17935599   1.523   0.100   5.044  0.2897 -0.7422 -0.4113
  111MOL   C18035600   1.587   0.202   5.116 -0.2491  0.1784  0.0676
  111MOL   C18135601   1.705   0.177   5.188  0.0163  0.0057 -0.1052
  111MOL   C18235602   1.762   0.046   5.179 -0.4269 -0.0192  0.2555
  111MOL  Cl18335603   1.928   0.017   5.237 -0.2608 -0.0228 -0.1236
  111MOL   C18435604   1.701   8.387   5.105  0.3075  0.6166 -0.8723
  111MOL   C18535605   1.579   8.409   5.041 -0.1829  0.5352 -0.3184
  111MOL   C18635606   1.425   0.197   4.832 -0.2759 -0.2691  0.4378
  111MOL   H18735607   1.359   0.233   5.029 -0.5995  1.3118 -1.7175
  111MOL   H18835608   1.542   0.300   5.125 -3.1008 -1.0550 -0.2684
  111MOL   H18935609   1.749   0.254   5.250  0.5932 -1.1661  0.9622
  111MOL   H19035610   1.758   8.296   5.101  0.9947  1.0147 -0.3028
  111MOL   H19135611   1.524   8.328   4.995  0.5084 -0.6157  0.8472
  111MOL   H19235612   1.519   0.252   4.834  0.9733 -2.2914 -1.3094
  111MOL   H19335613   1.432   0.116   4.759  0.6930  1.4736 -1.4631
  111MOL   C19435614   1.322   0.297   4.767 -0.1312 -0.4418  0.4552
  111MOL   C19535615   1.294   0.413   4.855  0.8647 -1.1607 -0.4859
  111MOL   C19635616   1.161   0.441   4.898 -0.3263 -0.5785 -0.5548
  111MOL   C19735617   1.134   0.556   4.974 -0.6712 -0.0357  0.1740
  111MOL   C19835618   1.241   0.640   5.019 -1.0432 -0.2070 -0.2861
  111MOL  Cl19935619   1.220   0.766   5.138 -0.1451 -0.3475 -0.0177
  111MOL   C20035620   1.373   0.612   4.974 -0.3876 -0.0775  0.0441
  111MOL   C20135621   1.402   0.497   4.901 -0.4079 -0.1635  0.7675
  111MOL   C20235622   1.374   0.339   4.621 -0.5384 -0.0304 -0.4933
  111MOL   H20335623   1.233   0.235   4.756  1.3286 -2.2846 -1.5960
  111MOL   H20435624   1.081   0.380   4.859 -0.8624 -0.6930  0.6878
  111MOL   H20535625   1.034   0.579   5.008 -0.5507 -0.3688  0.7657
  111MOL   H20635626   1.446   0.684   5.009 -0.3885  1.7638 -3.4683
  111MOL   H20735627   1.504   0.477   4.875 -0.4926 -0.3862  0.6028
  111MOL   H20835628   1.320   0.431   4.596 -0.6264  0.6269  2.0076
  111MOL   H20935629   1.476   0.374   4.638 -1.0783  0.7160  1.4016
  111MOL   C21035630   1.372   0.237   4.504  0.6744  0.0032 -0.4481
  111MOL   C21135631   1.249   0.266   4.419  1.0778 -0.6630  0.2087
  111MOL   C21235632   1.245   0.378   4.331 -0.2368  0.8603 -0.2362
  111MOL   C21335633   1.146   0.394   4.232 -0.3723 -0.7103  0.1272
  111MOL   C21435634   1.037   0.304   4.239  0.7734 -1.1671  0.4027
  111MOL  Cl21535635   0.905   0.318   4.119  0.0755 -0.7662 -0.5088
  111MOL   C21635636   1.022   0.214   4.341 -0.3270  0.5900 -0.0524
  111MOL   C21735637   1.130   0.187   4.429 -0.2060  0.3167 -0.2981
  111MOL   C21835638   1.493   0.220   4.406 -0.2216 -0.4766  0.4141
  111MOL   H21935639   1.366   0.132   4.534  2.4342  0.3899  1.3914
  111MOL   H22035640   1.327   0.444   4.351 -0.6884  1.2302  0.4190
  111MOL   H22135641   1.159   0.477   4.165 -0.3886  0.6358  1.7682
  111MOL   H22235642   0.929   0.161   4.352 -0.3378  0.7937  0.8621
  111MOL   H22335643   1.123   0.112   4.506 -1.2916  0.1129 -0.5978
  111MOL   H22435644   1.449   0.171   4.319  0.9758 -0.7378 -0.0497
  111MOL   H22535645   1.525   0.319   4.374 -0.4017  0.1385  2.0700
  111MOL   C22635646   1.621   0.149   4.453  0.2070 -0.5898  0.0991
  111MOL   C22735647   1.595   8.441   4.481 -1.5180  0.2003 -0.0457
  111MOL   C22835648   1.563   8.355   4.373 -0.4987 -0.0726  0.0233
  111MOL   C22935649   1.552   8.216   4.392  0.0814 -0.1306  0.6480
  111MOL   C23035650   1.552   8.162   4.522  0.0684 -0.6516  0.4938
  111MOL  Cl23135651   1.515   7.995   4.545 -0.1875 -0.1308  0.5039
  111MOL   C23235652   1.590   8.245   4.627 -0.1382  0.0995 -0.1156
  111MOL   C23335653   1.621   8.382   4.608 -0.3983  0.3594 -0.1475
  111MOL   C23435654   1.735   0.176   4.350  0.3979 -0.2226 -0.6125
  111MOL   H23535655   1.649   0.197   4.547  1.4499  0.4553 -0.7736
  111MOL   H23635656   1.554   8.398   4.274 -0.5551  0.4079  0.2353
  111MOL   H23735657   1.529   8.148   4.311  0.0677 -0.0334  0.5698
  111MOL   H23835658   1.590   8.203   4.727  0.2405  3.7298  1.4752
  111MOL   H23935659   1.641   0.012   4.685  0.1211  1.5562 -1.3978
  111MOL   H24035660   1.726   0.130   4.251  2.9214  2.1813 -2.0221
  111MOL   H24135661   1.727   0.282   4.326  1.3079  0.3671  1.5450
  111MOL   C24235662   1.877   0.141   4.404 -0.2718 -0.8114  0.0173
  111MOL   C24335663   1.897   8.434   4.401 -0.4176  0.8469  0.2024
  111MOL   C24435664   1.877   8.349   4.296 -0.1439 -1.0575 -0.3903
  111MOL   C24535665   1.890   8.213   4.304  0.6301 -0.1350  0.4899
  111MOL   C24635666   1.925   8.153   4.423 -0.0766  0.7406  0.6810
  111MOL  Cl24735667   1.951   7.980   4.431 -0.3384  0.1483  0.1574
  111MOL   C24835668   1.952   8.235   4.532 -0.4017 -0.5076  0.7970
  111MOL   C24935669   1.935   8.376   4.523  0.0939 -0.5391 -0.0248
  111MOL   C25035670   1.987   0.218   4.316  0.2469  0.0210  0.1469
  111MOL   H25135671   1.893   0.178   4.505  1.0791  1.4373 -0.9732
  111MOL   H25235672   1.859   8.393   4.199  0.1620  1.3968  0.6301
  111MOL   H25335673   1.874   8.167   4.208  0.6480 -0.5355  0.6772
  111MOL   H25435674   1.979   8.193   4.628  0.5119 -0.9167  0.3586
  111MOL   H25535675   1.948   8.439   4.610 -1.6185 -1.3280  0.8181
  111MOL   H25635676   2.086   0.177   4.336  1.3441  1.5502 -1.9369
  111MOL   H25735677   1.973   0.185   4.213  2.0853  0.6980 -0.3483
  111MOL   C25835678   1.994   0.372   4.325  0.4754  0.5969  0.4895
  111MOL   C25935679   2.032   0.417   4.461  0.4025 -0.2227  0.7387
  111MOL   C26035680   2.156   0.373   4.513  0.0487 -0.4222  0.1573
  111MOL   C26135681   2.189   0.412   4.647  0.1895  1.0684  0.5291
  111MOL   C26235682   2.111   0.498   4.723  0.6164 -0.4330  0.0093
  111MOL  Cl26335683   2.160   0.536   4.887  0.0703  0.2612 -0.0321
  111MOL   C26435684   1.994   0.549   4.667 -0.3950  0.7193 -0.6084
  111MOL   C26535685   1.953   0.511   4.537  0.7615  0.1454  0.7574
  111MOL   C26635686   2.074   0.446   4.214  0.8515  0.7008 -0.1365
  111MOL   H26735687   1.895   0.415   4.310  1.0347  1.5359 -0.5939
  111MOL   H26835688   2.220   0.304   4.461  0.7690 -0.3785  0.9705
  111MOL   H26935689   2.276   0.365   4.690 -0.3624  2.2119  2.9474
  111MOL   H27035690   1.928   0.618   4.720 -0.0781  0.2406  0.4223
  111MOL   H27135691   1.869   0.566   4.497  0.3290 -1.6639 -0.8525
  111MOL   H27235692   2.086   0.550   4.242 -1.7201  0.2385  2.9885
  111MOL   H27335693   2.176   0.409   4.206  0.4000 -0.8566  0.9693
  111MOL   C27435694   2.020   0.435   4.069 -0.3297 -0.2076  0.2008
  111MOL   C27535695   1.874   0.466   4.067 -0.1735 -0.2341  0.0486
  111MOL   C27635696   1.827   0.596   4.093  0.0722 -0.5503 -0.4995
  111MOL   C27735697   1.688   0.622   4.074 -0.0424 -0.1125 -0.4158
  111MOL   C27835698   1.601   0.519   4.033  0.2457 -0.3342 -0.5796
  111MOL  Cl27935699   1.428   0.544   4.007 -0.0163 -0.2874  0.4386
  111MOL   C28035700   1.646   0.388   4.020  0.4612 -0.5303 -0.0230
  111MOL   C28135701   1.784   0.362   4.028  0.5155 -0.2793 -0.1053
  111MOL   C28235702   2.098   0.509   3.957 -0.7321  0.4399 -0.4850
  111MOL   H28335703   2.029   0.329   4.045  1.0631 -0.8053  3.1287
  111MOL   H28435704   1.899   0.674   4.113  0.5748 -0.9199 -0.8523
  111MOL   H28535705   1.643   0.720   4.083 -2.1881 -1.2217  1.4126
  111MOL   H28635706   1.576   0.309   4.000 -0.5102  0.0878  0.8610
  111MOL   H28735707   1.816   0.261   4.008  3.4389  0.4590  0.6917
  111MOL   H28835708   2.098   0.616   3.979 -0.7394  0.0154  1.6081
  111MOL   H28935709   2.201   0.474   3.965 -0.1181  2.0635 -0.9363
  111MOL   C29035710   2.043   0.504   3.806 -0.2366  0.0539 -0.1476
  111MOL   C29135711   2.113   0.610   3.730 -0.1617  0.0932 -0.1357
  111MOL   C29235712   2.253   0.618   3.725 -0.0888  0.5494  0.1806
  111MOL   C29335713   2.318   0.731   3.667  0.6060  0.4990  0.4644
  111MOL   C29435714   2.237   0.821   3.593  0.0139  0.4877  0.0424
  111MOL  Cl29535715   2.309   0.944   3.499 -0.1686 -0.0917 -0.1352
  111MOL   C29635716   2.099   0.811   3.591  0.5014  0.1413  0.0574
  111MOL   C29735717   2.039   0.705   3.657 -0.7555 -0.2661 -0.1308
  111MOL   C29835718   2.070   0.369   3.742  0.5063  0.3926 -0.5776
  111MOL   H29935719   1.936   0.525   3.808 -0.2561 -0.0948  0.3385
  111MOL   H30035720   2.316   0.537   3.759  3.0996  2.4593 -0.9363
  111MOL   H30135721   2.425   0.745   3.667  0.5503  0.9870  1.7357
  111MOL   H30235722   2.037   0.883   3.540 -1.2372  0.5179  2.6110
  111MOL   H30335723   1.931   0.701   3.664 -0.7125  1.2698  1.8221
  111MOL   H30435724   2.175   0.352   3.720  1.1565  1.8193  1.3104
  111MOL   H30535725   2.048   0.296   3.820  0.0045  0.4697 -0.6395
  111MOL   C30635726   1.978   0.331   3.624 -0.1656  0.2444 -0.4419
  111MOL   C30735727   2.033   0.388   3.494 -0.4750  0.1607  0.1082
  111MOL   C30835728   2.166   0.365   3.448 -0.0416 -0.0011  0.2026
  111MOL   C30935729   2.200   0.401   3.318  0.2440 -0.0639  0.2217
  111MOL   C31035730   2.105   0.467   3.237 -0.2824  0.1713  0.3600
  111MOL  Cl31135731   2.143   0.517   3.078  0.0004  0.1307 -0.2816
  111MOL   C31235732   1.977   0.486   3.282  0.9717  1.0201  0.3269
  111MOL   C31335733   1.938   0.455   3.415 -0.4257  0.1348  0.1291
  111MOL   C31435734   1.949   0.178   3.609  0.2698  0.3534  0.4795
  111MOL   H31535735   1.878   0.371   3.640 -0.3531 -0.5466  0.4075
  111MOL   H31635736   2.244   0.311   3.501  0.8233  0.5029 -0.5296
  111MOL   H31735737   2.297   0.389   3.274 -0.3433  1.1443 -1.4700
  111MOL   H31835738   1.897   0.520   3.218 -0.0859 -1.9556 -0.0114
  111MOL   H31935739   1.837   0.477   3.446 -0.4404  1.1435 -0.5932
  111MOL   H32035740   2.037   0.119   3.585  1.5274  1.0567  3.1377
  111MOL   H32135741   1.903   0.141   3.700  2.4757 -1.9892  0.7118
  111MOL   H32235742   1.873   0.144   3.539  0.5434  1.3379 -0.3209
  112MOL     C135743   1.421   5.171   0.996 -0.1929 -0.1059 -0.2656
  112MOL     C235744   1.539   5.192   0.909 -0.7180  0.1542 -0.3259
  112MOL     C335745   1.646   5.279   0.945 -0.4264  0.3758 -0.3896
  112MOL     C435746   1.773   5.265   0.886 -0.0427  0.1292  0.1481
  112MOL     C535747   1.789   5.177   0.777  0.8597  0.2388 -0.8801
  112MOL    Cl635748   1.944   5.156   0.703 -0.0347 -0.2307 -0.4667
  112MOL     C735749   1.691   5.080   0.744 -0.3237 -0.3114  0.6610
  112MOL     C835750   1.562   5.100   0.804  0.9207 -0.6458 -0.1090
  112MOL     C935751   1.329   5.294   1.011  0.1535  0.0991  0.6468
  112MOL    H1035752   1.473   5.138   1.086 -1.2877 -1.1414 -0.0078
  112MOL    H1135753   1.628   5.344   1.029  1.6065  0.9223 -0.3542
  112MOL    H1235754   1.857   5.329   0.906 -0.4445  0.9412 -0.6977
  112MOL    H1335755   1.711   5.006   0.669 -1.1282  0.6107 -0.4871
  112MOL    H1435756   1.480   5.033   0.781  1.3881 -0.8397 -1.2603
  112MOL    H1535757   1.248   5.266   1.078  0.0473  0.1625  0.5459
  112MOL    H1635758   1.378   5.385   1.046 -0.2361  0.6104 -0.1401
  112MOL    H1735759   1.357   5.085   0.979  1.7811 -1.9167  1.2469
  112MOL    C1835760   1.254   5.329   0.883  0.0541 -0.3704  0.5661
  112MOL    C1935761   1.167   5.221   0.830 -0.7101 -0.5938  0.0864
  112MOL    C2035762   1.219   5.145   0.721 -0.1726  0.6336  0.1654
  112MOL    C2135763   1.140   5.043   0.656 -0.2918 -0.2610 -0.0378
  112MOL    C2235764   1.005   5.032   0.698  0.2421 -0.4818  0.0259
  112MOL   Cl2335765   0.912   4.903   0.637  0.2078 -0.0627 -0.4183
  112MOL    C2435766   0.952   5.106   0.809  0.4036 -0.1811  0.2880
  112MOL    C2535767   1.036   5.205   0.869  0.7686  0.4416 -0.4185
  112MOL    C2635768   1.187   5.465   0.907  0.1650  0.3297  0.6399
  112MOL    H2735769   1.329   5.345   0.806 -0.0793  1.6120  0.8310
  112MOL    H2835770   1.323   5.156   0.692  0.6167 -1.0152  2.1891
  112MOL    H2935771   1.180   4.979   0.579 -0.5280  0.4058 -0.7196
  112MOL    H3035772   0.853   5.077   0.841  0.6816 -0.0270  1.2977
  112MOL    H3135773   1.005   5.269   0.950 -0.6200 -0.1987 -0.4349
  112MOL    H3235774   1.142   5.469   1.006 -0.3164  0.7181  0.4080
  112MOL    H3335775   1.258   5.548   0.907  0.8243 -0.2242  0.0835
  112MOL    C3435776   1.085   5.517   0.801 -0.6319 -0.0937  0.0900
  112MOL    C3535777   0.961   5.590   0.860  0.1524  0.1546  0.4907
  112MOL    C3635778   0.843   5.514   0.864  0.4881 -0.0607 -0.0097
  112MOL    C3735779   0.724   5.578   0.907 -0.5536 -0.0593 -0.1574
  112MOL    C3835780   0.725   5.714   0.944  0.6342  0.2411 -0.0469
  112MOL   Cl3935781   0.579   5.797   0.990  0.2960  0.2615  0.0369
  112MOL    C4035782   0.846   5.787   0.932  0.6583  1.1406  0.2643
  112MOL    C4135783   0.968   5.728   0.891 -0.1792 -0.6396 -0.0395
  112MOL    C4235784   1.146   5.599   0.685 -0.0646  0.3248  0.2196
  112MOL    H4335785   1.032   5.429   0.764 -1.0340 -0.1107  0.7098
  112MOL    H4435786   0.851   5.408   0.847  1.7564  0.1157 -0.5650
  112MOL    H4535787   0.629   5.526   0.913 -0.3817 -0.5454 -1.5959
  112MOL    H4635788   0.843   5.892   0.956 -0.9646  1.3442 -0.7962
  112MOL    H4735789   1.052   5.790   0.863 -1.0374  0.0110 -1.2341
  112MOL    H4835790   1.065   5.625   0.617  0.1551 -0.3336 -0.2964
  112MOL    H4935791   1.188   5.690   0.729  0.0594  2.3151 -3.8115
  112MOL    C5035792   1.251   5.535   0.591 -0.6446  0.0146  0.3009
  112MOL    C5135793   1.202   5.422   0.499  0.3917  0.6838 -0.1693
  112MOL    C5235794   1.303   5.341   0.442  0.1902  0.2803  0.5346
  112MOL    C5335795   1.264   5.231   0.366  0.6434  0.1068  0.2629
  112MOL    C5435796   1.130   5.207   0.342 -0.0647  0.2290 -0.1587
  112MOL   Cl5535797   1.089   5.065   0.251 -0.3220 -0.0116  0.0102
  112MOL    C5635798   1.029   5.288   0.386  0.0730 -0.0347  0.0438
  112MOL    C5735799   1.062   5.390   0.476 -0.4988 -0.6082 -0.2489
  112MOL    C5835800   1.342   5.645   0.522  0.2314 -0.1720  0.0488
  112MOL    H5935801   1.323   5.488   0.658 -1.9169 -1.2522  0.8216
  112MOL    H6035802   1.409   5.360   0.453 -0.0987  1.6513  1.0579
  112MOL    H6135803   1.347   5.172   0.330 -0.3291 -0.4853 -1.0517
  112MOL    H6235804   0.925   5.274   0.359 -0.1573 -1.8712  1.7792
  112MOL    H6335805   0.987   5.457   0.517  1.4547  0.5434  1.5594
  112MOL    H6435806   1.335   5.740   0.575 -2.7456 -1.4520  2.1380
  112MOL    H6535807   1.445   5.611   0.531  0.3678 -0.6764 -2.8815
  112MOL    C6635808   1.315   5.658   0.365 -0.1352  0.3135  0.4540
  112MOL    C6735809   1.172   5.692   0.335  0.2395  0.3947 -0.2057
  112MOL    C6835810   1.103   5.803   0.393  0.2629  0.1458 -0.3355
  112MOL    C6935811   0.965   5.819   0.378 -0.2548  0.2854  0.5186
  112MOL    C7035812   0.891   5.728   0.302  0.4126  0.1319  0.4930
  112MOL   Cl7135813   0.721   5.726   0.298  0.2305  0.1852 -0.5669
  112MOL    C7235814   0.957   5.616   0.247  0.0114 -0.0309  0.4963
  112MOL    C7335815   1.094   5.600   0.259 -0.4338 -0.6284  0.8544
  112MOL    C7435816   1.402   5.767   0.305 -0.5617 -0.5222 -0.0674
  112MOL    H7535817   1.332   5.561   0.319 -2.9409 -0.2814  0.5925
  112MOL    H7635818   1.163   5.879   0.440 -2.3115  1.2584  1.2523
  112MOL    H7735819   0.926   5.906   0.430  1.8388  0.4032  1.9842
  112MOL    H7835820   0.892   5.542   0.204 -0.0605  0.8870 -0.9982
  112MOL    H7935821   1.143   5.514   0.215  0.8461  0.3504  0.3501
  112MOL    H8035822   1.339   5.805   0.225 -1.1738 -1.5821 -0.0902
  112MOL    H8135823   1.425   5.857   0.363 -0.0988  0.6079 -1.9825
  112MOL    C8235824   1.538   5.718   0.243 -0.0918  1.0481  0.2481
  112MOL    C8335825   1.518   5.584   0.173 -0.7339  0.3024 -0.2483
  112MOL    C8435826   1.584   5.463   0.220  0.1379 -0.4496  0.8403
  112MOL    C8535827   1.558   5.340   0.168 -0.5866 -0.0456 -0.3330
  112MOL    C8635828   1.464   5.324   0.059  0.0082 -0.1816 -0.3065
  112MOL   Cl8735829   1.437   5.176   8.421  0.1705 -0.1403 -0.0669
  112MOL    C8835830   1.403   5.438   0.007  0.2100 -0.3920  0.3088
  112MOL    C8935831   1.430   5.568   0.062  0.5453  1.0779 -0.0985
  112MOL    C9035832   1.603   5.816   0.145  0.1964 -0.3837 -0.0194
  112MOL    H9135833   1.604   5.699   0.328 -2.3338 -0.4834  1.7068
  112MOL    H9235834   1.641   5.470   0.311 -1.0666  1.4127  1.4819
  112MOL    H9335835   1.594   5.249   0.213  0.5756  0.4126 -0.3405
  112MOL    H9435836   1.341   5.426   8.363 -1.5245  2.1023  1.1610
  112MOL    H9535837   1.386   5.660   0.027 -0.0149  0.5346 -0.8286
  112MOL    H9635838   1.526   5.867   0.088 -0.2344 -2.2065 -1.1273
  112MOL    H9735839   1.634   5.895   0.213 -2.8196 -1.6360  3.0073
  112MOL    C9835840   1.707   5.777   0.037  0.9486  0.1419  0.1769
  112MOL    C9935841   1.712   5.883   8.369 -0.2177  0.6877  0.3559
  112MOL   C10035842   1.646   5.860   8.247  0.3533 -0.6442  0.0679
  112MOL   C10135843   1.662   5.947   8.142  0.0239  0.3477 -0.1951
  112MOL   C10235844   1.742   6.065   8.154  0.2800 -0.5090  0.3110
  112MOL  Cl10335845   1.774   6.161   8.016  0.5026 -0.5855  0.0212
  112MOL   C10435846   1.814   6.088   8.274  0.1574  0.0548  0.4154
  112MOL   C10535847   1.791   6.000   8.382 -1.0460 -0.2378 -0.1191
  112MOL   C10635848   1.845   5.738   0.093 -0.6946  0.0787  0.4045
  112MOL   H10735849   1.655   5.693   8.433  1.2597  0.5023 -0.8192
  112MOL   H10835850   1.587   5.770   8.237 -1.4228  0.3867  0.9331
  112MOL   H10935851   1.616   5.921   8.047  3.0567  0.9500 -1.8698
  112MOL   H11035852   1.869   6.180   8.282  0.5831 -0.0945 -0.6266
  112MOL   H11135853   1.829   6.018   0.039  0.0428  0.2493 -0.6140
  112MOL   H11235854   1.916   5.818   0.116  2.1389 -2.0319 -0.6675
  112MOL   H11335855   1.844   5.681   0.186 -0.3837 -0.0145  0.3516
  112MOL   C11435856   1.932   5.646   0.001  0.1770  0.0245 -0.4217
  112MOL   C11535857   1.880   5.501   8.435 -0.6015 -0.4168 -0.4956
  112MOL   C11635858   1.788   5.454   8.332 -0.1575  0.7911 -0.0514
  112MOL   C11735859   1.759   5.317   8.316 -0.7152 -0.4112 -0.4880
  112MOL   C11835860   1.819   5.226   8.404 -0.2782  0.3471  0.6139
  112MOL  Cl11935861   1.789   5.059   8.388  0.0309 -0.1600 -0.0590
  112MOL   C12035862   1.896   5.273   0.067 -0.4957 -0.1643 -0.1059
  112MOL   C12135863   1.933   5.404   0.084  0.2744 -0.0219 -0.2907
  112MOL   C12235864   1.974   5.696   8.300  0.3731 -0.0740 -0.1973
  112MOL   H12335865   2.029   5.642   0.050 -0.3368 -1.4364  0.5036
  112MOL   H12435866   1.747   5.524   8.261 -2.3323 -0.3797 -0.0055
  112MOL   H12535867   1.693   5.276   8.241  1.5313 -1.1120 -2.1731
  112MOL   H12635868   1.921   5.196   0.140 -2.9540 -0.5052  0.4212
  112MOL   H12735869   2.000   5.439   0.160  0.7382  0.4701 -0.9176
  112MOL   H12835870   2.022   5.608   8.258 -0.5938 -1.6209  1.8715
  112MOL   H12935871   1.880   5.710   8.247  0.9281  0.4972 -1.0551
  112MOL   C13035872   2.063   5.831   8.274 -0.3682  0.4891  0.1675
  112MOL   C13135873   2.188   5.836   8.367  0.1576 -0.4159 -0.4018
  112MOL   C13235874   2.206   5.948   0.010  0.9746 -0.1771  0.1642
  112MOL   C13335875   2.319   5.957   0.093  0.0821  0.7505 -0.2251
  112MOL   C13435876   2.412   5.855   0.082  0.2091 -0.3528 -0.7132
  112MOL  Cl13535877   2.566   5.862   0.170 -0.0830 -0.2452  0.0848
  112MOL   C13635878   2.395   5.750   8.438  0.5813  0.2773 -1.0133
  112MOL   C13735879   2.285   5.732   8.359  0.0703 -0.5327  0.0676
  112MOL   C13835880   2.102   5.832   8.123  0.8914  0.0356  0.2628
  112MOL   H13935881   2.006   5.923   8.286 -2.3700 -0.8211  1.1215
  112MOL   H14035882   2.141   6.034   0.001 -0.7313 -1.5679 -1.0288
  112MOL   H14135883   2.340   6.042   0.157  0.4969  0.5963 -0.1531
  112MOL   H14235884   2.465   5.667   8.442 -1.9903 -1.8930  1.3084
  112MOL   H14335885   2.269   5.647   8.294 -0.8905 -0.7530  0.5751
  112MOL   H14435886   2.190   5.768   8.111  0.9940  0.3873 -0.9134
  112MOL   H14535887   2.022   5.777   8.074  0.3054  1.3897 -0.3202
  112MOL   C14635888   2.127   5.968   8.055  0.4360  0.7146 -0.2139
  112MOL   C14735889   2.231   6.053   8.132 -0.4149 -0.3109  0.7813
  112MOL   C14835890   2.364   6.010   8.157  0.0720 -0.1268 -0.1138
  112MOL   C14935891   2.452   6.090   8.225  0.0206  0.1943 -0.5338
  112MOL   C15035892   2.425   6.222   8.266  0.6024  0.7631 -0.2096
  112MOL  Cl15135893   2.540   6.316   8.363  0.4687  0.0645 -0.0588
  112MOL   C15235894   2.295   6.272   8.238 -0.4450  0.0929 -0.2578
  112MOL   C15335895   2.200   6.188   8.173  0.1092 -0.3139 -0.5046
  112MOL   C15435896   2.188   5.946   7.914 -0.0887 -0.2582  0.6775
  112MOL   H15535897   2.031   6.021   8.051  0.5068  0.9309  0.7646
  112MOL   H15635898   2.373   5.910   8.117 -1.8206 -1.6418  3.0875
  112MOL   H15735899   2.551   6.050   8.239 -0.9446 -2.0615  0.1773
  112MOL   H15835900   2.274   6.371   8.274  1.6672  0.3823  0.2942
  112MOL   H15935901   2.100   6.228   8.170  0.3651  0.3379 -0.5498
  112MOL   H16035902   2.196   6.040   7.860  0.2174 -0.0518  1.0762
  112MOL   H16135903   2.292   5.912   7.913 -0.2031 -0.5951 -1.5333
  112MOL   C16235904   2.118   5.845   7.818  0.2008  0.1289 -0.1512
  112MOL   C16335905   1.969   5.868   7.801  0.3758  0.0021  0.2970
  112MOL   C16435906   1.872   5.769   7.822 -0.3685  0.3598 -0.1639
  112MOL   C16535907   1.732   5.785   7.815 -0.2244 -0.2760  0.2108
  112MOL   C16635908   1.683   5.909   7.774 -0.8970  0.1566  0.5417
  112MOL  Cl16735909   1.515   5.932   7.767  0.1773 -0.1174 -0.0459
  112MOL   C16835910   1.777   6.009   7.737  0.4771  0.0576 -0.2027
  112MOL   C16935911   1.917   5.988   7.744  0.1459  0.5969 -0.2438
  112MOL   C17035912   2.175   5.830   7.673  0.3730  0.0257  0.0748
  112MOL   H17135913   2.135   5.748   7.867 -1.7878 -0.7584 -1.1554
  112MOL   H17235914   1.906   5.674   7.860  0.1020  1.1587  1.4968
  112MOL   H17335915   1.665   5.708   7.850 -0.9428 -0.4644 -1.5200
  112MOL   H17435916   1.752   6.105   7.694 -0.1986 -0.6836 -1.4773
  112MOL   H17535917   1.990   6.066   7.728  0.4409  0.3768  0.0211
  112MOL   H17635918   2.109   5.767   7.613  0.0649  0.8712 -0.4826
  112MOL   H17735919   2.184   5.928   7.625 -0.2591 -0.9501 -2.1072
  112MOL   C17835920   2.308   5.759   7.661  0.4616  0.1493  0.3365
  112MOL   C17935921   2.314   5.613   7.713 -0.0531 -0.0230  0.2026
  112MOL   C18035922   2.251   5.514   7.634 -0.4912 -0.0791 -0.6308
  112MOL   C18135923   2.251   5.380   7.676 -0.4428 -0.3917 -0.5731
  112MOL   C18235924   2.302   5.353   7.802  0.1249  0.3643  0.2561
  112MOL  Cl18335925   2.301   5.190   7.854  0.2902  0.1454  0.1827
  112MOL   C18435926   2.357   5.447   7.886  0.3739 -0.7333  0.3749
  112MOL   C18535927   2.369   5.580   7.838 -0.2557 -0.3795 -0.2289
  112MOL   C18635928   2.377   5.777   7.518 -0.0602  0.3986 -0.0290
  112MOL   H18735929   2.369   5.816   7.730  0.0886  2.1323 -0.9460
  112MOL   H18835930   2.195   5.543   7.546 -0.4171  1.6637 -0.1318
  112MOL   H18935931   2.209   5.306   7.610 -0.5946 -0.1722 -0.7244
  112MOL   H19035932   2.405   5.404   7.972 -1.5220 -0.0098  1.8433
  112MOL   H19135933   2.401   5.656   7.908  0.1846 -0.0060 -0.8390
  112MOL   H19235934   2.308   5.737   7.444 -0.0959 -3.4493  1.9499
  112MOL   H19335935   2.383   5.882   7.491  2.1422  0.3091  0.0514
  112MOL   C19435936   2.515   5.713   7.505 -0.7218  0.2691  0.6567
  112MOL   C19535937   2.567   5.726   7.362  0.5948  0.8590  0.2442
  112MOL   C19635938   2.595   5.611   7.278 -0.2452  0.2617 -0.5774
  112MOL   C19735939   2.632   5.633   7.143  0.3714  0.3419  0.7106
  112MOL   C19835940   2.653   5.761   7.094 -0.8497  0.4071 -0.2639
  112MOL  Cl19935941   2.693   5.801   6.936  0.2716 -0.2279 -0.0638
  112MOL   C20035942   2.625   5.868   7.181  0.6563  0.3056 -0.1346
  112MOL   C20135943   2.582   5.854   7.312  0.5536  0.0009  0.1438
  112MOL   C20235944   2.615   5.761   7.615 -0.3182  0.0993  0.1656
  112MOL   H20335945   2.500   5.608   7.529 -2.6963  0.2662 -0.4785
  112MOL   H20435946   2.584   5.512   7.320  1.3663  0.3539  0.0770
  112MOL   H20535947   2.646   5.550   7.075 -1.5591  0.9858 -0.5158
  112MOL   H20635948   2.632   5.969   7.144 -0.1136  0.0117 -1.1091
  112MOL   H20735949   2.559   5.943   7.367 -3.2229  1.7315 -3.8995
  112MOL   H20835950   2.648   5.863   7.596 -0.9341  0.8633  3.0837
  112MOL   H20935951   2.579   5.757   7.717  0.4610 -2.2348  0.3849
  112MOL   C21035952   2.747   5.676   7.620  0.6339 -0.3876  0.4239
  112MOL   C21135953   2.852   5.733   7.711 -0.6421  0.3655  0.0761
  112MOL   C21235954   2.834   5.730   7.850  0.3073 -0.9257 -0.3839
  112MOL   C21335955   2.946   5.765   7.929 -0.3373  0.2178  0.0651
  112MOL   C21435956   3.068   5.812   7.861 -0.1231  0.8971 -0.2710
  112MOL  Cl21535957   3.207   5.860   7.948 -0.3738  0.0531 -0.3546
  112MOL   C21635958   3.076   5.826   7.720 -0.6864 -0.2637 -0.0089
  112MOL   C21735959   2.965   5.784   7.648 -0.6706  0.0369  0.1836
  112MOL   C21835960   2.709   5.522   7.650  0.0610 -0.3077  0.0444
  112MOL   H21935961   2.792   5.679   7.520 -0.4466 -0.9984 -0.0906
  112MOL   H22035962   2.738   5.712   7.894  0.2197 -0.6389 -0.4589
  112MOL   H22135963   2.942   5.758   8.037 -0.7865 -0.8664 -0.0076
  112MOL   H22235964   3.172   5.857   7.682 -1.6352  0.6764 -1.6810
  112MOL   H22335965   2.970   5.787   7.540  1.6543  0.8396  0.2891
  112MOL   H22435966   2.649   5.527   7.741 -0.0692  1.6506 -0.1341
  112MOL   H22535967   2.657   5.474   7.567  0.9244 -0.9478 -0.1326
  112MOL   C22635968   2.826   5.424   7.682 -0.1423  0.2812 -0.1987
  112MOL   C22735969   2.768   5.294   7.743  0.0837  0.6140  0.0666
  112MOL   C22835970   2.796   5.170   7.682  0.5883  0.4783 -0.0048
  112MOL   C22935971   2.763   5.053   7.746 -0.0102  0.3619  0.6011
  112MOL   C23035972   2.678   5.055   7.859 -0.0349  0.0560 -0.2282
  112MOL  Cl23135973   2.622   4.906   7.921 -0.1212 -0.2281  0.6744
  112MOL   C23235974   2.632   5.179   7.912  0.8462 -0.1434 -0.1713
  112MOL   C23335975   2.689   5.295   7.856  0.0860  0.4112 -0.4427
  112MOL   C23435976   2.924   5.413   7.562 -0.0230  0.3580  0.3718
  112MOL   H23535977   2.874   5.470   7.768 -0.8223  0.2031  0.2297
  112MOL   H23635978   2.850   5.165   7.589 -2.1626 -0.2667 -1.6201
  112MOL   H23735979   2.795   4.955   7.713  1.7477  0.7093  1.2005
  112MOL   H23835980   2.549   5.175   7.981  0.5610 -0.4733 -0.5319
  112MOL   H23935981   2.656   5.391   7.893 -0.0297  0.5473 -0.8963
  112MOL   H24035982   2.897   5.344   7.482 -1.2283 -1.0364  1.9385
  112MOL   H24135983   2.935   5.507   7.509  2.4171 -0.3419 -0.4071
  112MOL   C24235984   3.063   5.376   7.609 -0.1741 -0.0188 -0.3065
  112MOL   C24335985   3.135   5.300   7.498 -0.7463 -0.5123  0.2992
  112MOL   C24435986   3.194   5.377   7.397  0.0881  0.6199 -0.2836
  112MOL   C24535987   3.265   5.314   7.295  0.1219  0.3930  0.2942
  112MOL   C24635988   3.282   5.174   7.304 -0.1563  0.2169  0.1960
  112MOL  Cl24735989   3.362   5.084   7.189 -0.1668  0.2628  0.1606
  112MOL   C24835990   3.231   5.097   7.409  0.1361 -0.4949  0.2909
  112MOL   C24935991   3.144   5.159   7.503 -0.2842  0.2366 -0.5243
  112MOL   C25035992   3.151   5.476   7.685 -0.4059 -1.0381  0.0587
  112MOL   H25135993   3.053   5.305   7.691 -0.7230  0.0512 -0.3096
  112MOL   H25235994   3.200   5.485   7.391  0.2979  0.7934  2.2668
  112MOL   H25335995   3.286   5.378   7.211 -0.0065  0.9100  0.6535
  112MOL   H25435996   3.237   4.990   7.395  1.5979 -0.5056  0.8737
  112MOL   H25535997   3.094   5.115   7.588  2.5352  0.1857  1.1470
  112MOL   H25635998   3.187   5.558   7.623 -0.7522 -1.3377 -0.5437
  112MOL   H25735999   3.091   5.515   7.767 -1.9747  0.4196 -1.7504
  112MOL   C25836000   3.274   5.407   7.741 -0.2760  0.1252 -0.5176
  112MOL   C25936001   3.404   5.424   7.663  0.3013 -0.1272 -0.5624
  112MOL   C26036002   3.462   5.548   7.649  0.4478  0.1411 -0.1918
  112MOL   C26136003   3.573   5.564   7.566 -0.2208 -0.1088  0.5058
  112MOL   C26236004   3.638   5.450   7.513 -0.2152 -0.6820 -0.6838
  112MOL  Cl26336005   3.778   5.448   7.417 -0.0227 -0.2730 -0.1070
  112MOL   C26436006   3.584   5.321   7.535 -0.0079 -0.0135 -0.1572
  112MOL   C26536007   3.467   5.310   7.610  0.6055 -0.1946  0.4824
  112MOL   C26636008   3.285   5.450   7.891  0.5774 -0.3724 -0.0736
  112MOL   H26736009   3.254   5.301   7.756  0.3100  0.1770  0.6675
  112MOL   H26836010   3.417   5.640   7.682 -0.4633  0.2763 -1.7930
  112MOL   H26936011   3.612   5.662   7.543 -1.5860  0.1450 -0.8056
  112MOL   H27036012   3.630   5.238   7.484 -0.3532  0.2029 -0.8322
  112MOL   H27136013   3.431   5.213   7.643  0.3711 -0.0497  0.6502
  112MOL   H27236014   3.305   5.557   7.884  0.3282 -0.2854  0.5613
  112MOL   H27336015   3.189   5.451   7.942  1.0234  0.2112  0.7594
  112MOL   C27436016   3.389   5.389   7.991  0.1504  0.0291 -0.1304
  112MOL   C27536017   3.493   5.493   8.041  0.3228 -1.0286 -0.2399
  112MOL   C27636018   3.496   5.543   8.173  0.9161  0.1260 -0.0693
  112MOL   C27736019   3.588   5.644   8.202 -0.4111  0.5032 -0.0069
  112MOL   C27836020   3.684   5.694   8.111  1.0469  0.1689 -0.1480
  112MOL  Cl27936021   3.813   5.798   8.165 -0.2142 -0.1681  0.2916
  112MOL   C28036022   3.682   5.645   7.980 -0.3050  0.2251  0.5050
  112MOL   C28136023   3.582   5.549   7.949 -0.8507 -0.2185  0.1187
  112MOL   C28236024   3.319   5.317   8.107  0.7113 -0.0367 -0.2819
  112MOL   H28336025   3.454   5.317   7.940  0.9465 -0.2834  1.2812
  112MOL   H28436026   3.418   5.504   8.236  2.6321 -2.5593  0.4897
  112MOL   H28536027   3.601   5.683   8.302  0.8099  0.5092 -0.1620
  112MOL   H28636028   3.765   5.667   7.914  0.0440 -4.5497 -0.8459
  112MOL   H28736029   3.589   5.497   7.854 -0.5162  1.0343 -0.5490
  112MOL   H28836030   3.400   5.291   8.175  2.7571  2.1543 -1.8262
  112MOL   H28936031   3.254   5.386   8.161 -0.8538  0.0964 -2.2522
  112MOL   C29036032   3.229   5.197   8.078 -0.9143  0.1377  0.1540
  112MOL   C29136033   3.295   5.105   7.985 -0.0195 -0.1965 -0.6304
  112MOL   C29236034   3.222   5.060   7.872  0.5408 -0.1443  0.7636
  112MOL   C29336035   3.276   4.964   7.792 -0.4771  0.9640 -1.1155
  112MOL   C29436036   3.398   4.906   7.823 -0.0197 -0.1161 -0.1020
  112MOL  Cl29536037   3.480   4.800   7.717 -0.2261  0.3090  0.0463
  112MOL   C29636038   3.463   4.940   7.938  0.6541 -0.7352 -1.2714
  112MOL   C29736039   3.416   5.041   8.019  0.3266  0.4700 -0.0223
  112MOL   C29836040   3.178   5.140   8.200 -0.2189  0.0981  0.7419
  112MOL   H29936041   3.151   5.240   8.014 -1.1965 -0.8689 -0.1949
  112MOL   H30036042   3.123   5.098   7.852 -1.0262 -2.3559  3.8326
  112MOL   H30136043   3.221   4.948   7.700  0.0290 -0.9213 -1.1154
  112MOL   H30236044   3.560   4.895   7.955  0.3013 -0.3604  2.0692
  112MOL   H30336045   3.469   5.068   8.109  0.1662  0.6434  0.0195
  112MOL   H30436046   3.259   5.100   8.262  1.8499  2.9126 -0.0221
  112MOL   H30536047   3.134   5.223   8.254 -1.6424 -1.0260  1.3303
  112MOL   C30636048   3.082   5.024   8.181 -0.1243  0.1654 -0.4134
  112MOL   C30736049   3.061   4.932   8.305 -0.0583 -0.1281  0.0178
  112MOL   C30836050   3.142   4.813   8.303  0.3353  0.5036  0.2718
  112MOL   C30936051   3.153   4.734   8.419 -0.1331 -0.1980  0.1978
  112MOL   C31036052   3.079   4.761   0.085  0.2303 -0.4927  0.6343
  112MOL  Cl31136053   3.092   4.661   0.229 -0.3319 -0.1234  0.3416
  112MOL   C31236054   2.995   4.873   0.086 -0.1608  0.0170  0.8931
  112MOL   C31336055   2.981   4.960   8.421  0.3133  0.1468 -0.4131
  112MOL   C31436056   2.946   5.066   8.132  0.1326  0.9906  0.8000
  112MOL   H31536057   3.130   4.952   8.115 -0.8119 -1.1967  0.5426
  112MOL   H31636058   3.200   4.802   8.213 -0.3963  0.7153 -0.2275
  112MOL   H31736059   3.205   4.640   8.413 -0.1549 -0.1665 -0.5802
  112MOL   H31836060   2.948   4.905   0.178 -0.9286  1.0142  0.1671
  112MOL   H31936061   2.924   5.052   8.425  0.0212 -0.0175 -0.6842
  112MOL   H32036062   2.955   5.099   8.028 -0.1686  1.2790  0.8650
  112MOL   H32136063   2.875   4.984   8.126  1.2344  0.0002  1.0011
  112MOL   H32236064   2.894   5.144   8.188 -3.0168  0.5401 -1.3552
  113MOL     C136065   4.445   6.586   2.289  0.2018  0.3565  0.1073
  113MOL     C236066   4.562   6.521   2.353 -0.1725 -0.5989 -0.8101
  113MOL     C336067   4.545   6.464   2.478  0.2507 -0.3244  0.1168
  113MOL     C436068   4.656   6.392   2.532  0.1395 -1.1239  0.4098
  113MOL     C536069   4.784   6.385   2.469 -0.0422  0.2681 -0.6596
  113MOL    Cl636070   4.922   6.309   2.550 -0.0692 -0.0846  0.3380
  113MOL     C736071   4.799   6.455   2.351  0.1965 -0.6166  0.0589
  113MOL     C836072   4.689   6.526   2.295  0.7020  0.4846  0.2037
  113MOL     C936073   4.397   6.699   2.374  0.0298  0.5489 -0.1711
  113MOL    H1036074   4.358   6.520   2.284 -0.6430  1.5918 -3.6463
  113MOL    H1136075   4.451   6.456   2.531  0.0408 -1.5854 -0.4143
  113MOL    H1236076   4.648   6.344   2.628 -0.5900 -1.7090  0.0590
  113MOL    H1336077   4.893   6.457   2.297 -0.8994  0.9118 -1.8871
  113MOL    H1436078   4.711   6.556   2.194  2.6934 -0.1065  0.4379
  113MOL    H1536079   4.335   6.662   2.455  1.4454  0.6518  0.9813
  113MOL    H1636080   4.471   6.762   2.424 -0.7567 -1.0066  3.0795
  113MOL    H1736081   4.467   6.603   2.183 -2.0615 -0.2668 -0.4969
  113MOL    C1836082   4.302   6.790   2.292 -0.0895  0.3309 -0.2323
  113MOL    C1936083   4.211   6.859   2.392  0.0799  0.0062  0.1716
  113MOL    C2036084   4.264   6.954   2.485  0.1571 -1.0284 -0.4227
  113MOL    C2136085   4.179   7.008   2.585  0.1119  0.5251 -0.3932
  113MOL    C2236086   4.040   6.981   2.581 -0.6250  0.2065 -0.4526
  113MOL   Cl2336087   3.935   7.062   2.693  0.3703 -0.2804  0.0988
  113MOL    C2436088   3.984   6.893   2.483 -0.1000 -0.0685  0.4657
  113MOL    C2536089   4.073   6.831   2.396  0.1591  0.3053 -0.3353
  113MOL    C2636090   4.379   6.895   2.195  0.3098 -0.1916  0.7665
  113MOL    H2736091   4.237   6.723   2.235  2.0315 -2.5713  0.6244
  113MOL    H2836092   4.369   6.976   2.476 -0.0810  1.5677  2.1700
  113MOL    H2936093   4.213   7.076   2.661  0.6577  0.3035 -0.4361
  113MOL    H3036094   3.878   6.878   2.476  0.2236 -2.0128 -0.8029
  113MOL    H3136095   4.029   6.762   2.325 -0.2525 -1.8983  1.9573
  113MOL    H3236096   4.472   6.924   2.244  0.7003  0.5365 -0.3808
  113MOL    H3336097   4.412   6.830   2.114  1.3218  0.1121  0.9262
  113MOL    C3436098   4.304   7.013   2.147  0.3444 -0.4942 -0.0443
  113MOL    C3536099   4.373   7.145   2.182 -0.6259 -0.7684  0.2490
  113MOL    C3636100   4.302   7.237   2.262 -0.2703 -0.5451  0.6920
  113MOL    C3736101   4.362   7.366   2.286 -0.2526  0.0807 -0.6136
  113MOL    C3836102   4.489   7.397   2.243 -0.0105  0.2694  0.3304
  113MOL   Cl3936103   4.551   7.548   2.287  0.1213 -0.2681 -0.0263
  113MOL    C4036104   4.558   7.300   2.166 -0.1572 -0.4552 -0.4869
  113MOL    C4136105   4.500   7.178   2.134 -0.1476 -0.5865 -0.1335
  113MOL    C4236106   4.249   7.021   2.001 -0.4533 -0.8074 -0.0179
  113MOL    H4336107   4.212   7.021   2.207  1.6424  1.4455  1.7668
  113MOL    H4436108   4.202   7.224   2.301 -0.1882 -0.7608  0.8320
  113MOL    H4536109   4.298   7.444   2.325 -0.2608  0.5253 -1.5059
  113MOL    H4636110   4.656   7.337   2.143 -0.3986  1.1098  0.9523
  113MOL    H4736111   4.562   7.104   2.085 -0.4565 -0.5859 -0.5264
  113MOL    H4836112   4.212   7.123   1.990  0.7512 -0.2202  1.2973
  113MOL    H4936113   4.338   7.012   1.939 -0.5490  0.4554 -0.3535
  113MOL    C5036114   4.145   6.912   1.964 -0.5726 -0.2928 -0.0371
  113MOL    C5136115   4.015   6.919   2.043 -0.1814 -0.4407 -0.0490
  113MOL    C5236116   3.964   7.032   2.105 -0.7476 -0.1240 -0.1319
  113MOL    C5336117   3.854   7.028   2.195  0.3767 -0.2652 -0.3527
  113MOL    C5436118   3.789   6.908   2.214  0.3272 -0.3588 -0.2697
  113MOL   Cl5536119   3.661   6.907   2.321 -0.1355  0.1550  0.1588
  113MOL    C5636120   3.825   6.791   2.143  0.0448  0.1364 -0.7437
  113MOL    C5736121   3.943   6.798   2.064 -0.0401 -1.0444  0.1554
  113MOL    C5836122   4.132   6.896   1.809 -0.5414 -0.1972 -0.2009
  113MOL    H5936123   4.191   6.817   1.990 -0.4076 -0.4598 -0.9179
  113MOL    H6036124   4.011   7.129   2.100 -0.4927 -0.2521 -0.2684
  113MOL    H6136125   3.832   7.112   2.259  1.5534 -0.2041 -0.0206
  113MOL    H6236126   3.768   6.699   2.151 -1.2295  0.8683 -1.2556
  113MOL    H6336127   3.970   6.705   2.016  0.3920 -1.1012  0.4993
  113MOL    H6436128   4.047   6.829   1.795 -0.8479  0.1190  0.1826
  113MOL    H6536129   4.097   6.996   1.784 -2.1772 -0.6378  0.2692
  113MOL    C6636130   4.252   6.848   1.729  0.5107 -0.1579 -0.3982
  113MOL    C6736131   4.289   6.713   1.770 -0.0300 -0.6937  0.2255
  113MOL    C6836132   4.412   6.698   1.837 -0.1834 -0.0464 -0.2041
  113MOL    C6936133   4.448   6.579   1.898  0.1797  0.3763 -0.4040
  113MOL    C7036134   4.359   6.470   1.893 -0.1511 -0.2867 -0.3718
  113MOL   Cl7136135   4.413   6.326   1.963  0.3334 -0.2329 -0.2620
  113MOL    C7236136   4.234   6.479   1.824 -0.0315 -0.0288 -0.6769
  113MOL    C7336137   4.200   6.608   1.772 -0.1764  0.9099  0.3956
  113MOL    C7436138   4.221   6.855   1.576 -0.2284 -0.0812 -0.3704
  113MOL    H7536139   4.335   6.919   1.731  0.2533  0.1887 -1.6704
  113MOL    H7636140   4.489   6.773   1.834  0.1831 -0.4479 -1.0599
  113MOL    H7736141   4.541   6.570   1.953 -1.1666 -0.2310  1.8748
  113MOL    H7836142   4.159   6.403   1.816  0.1716 -0.3682  0.4933
  113MOL    H7936143   4.105   6.630   1.724  0.1342 -0.1750 -0.7486
  113MOL    H8036144   4.302   6.811   1.518 -0.8596 -1.3418 -0.3227
  113MOL    H8136145   4.142   6.783   1.554 -1.7071  1.8957 -1.6788
  113MOL    C8236146   4.179   6.987   1.507 -0.1632 -0.2480  0.4720
  113MOL    C8336147   4.284   7.097   1.521 -0.1304 -0.2870 -1.0399
  113MOL    C8436148   4.368   7.128   1.410 -0.2731 -0.9217  0.3124
  113MOL    C8536149   4.466   7.231   1.421 -0.5431  0.3401  0.8910
  113MOL    C8636150   4.475   7.314   1.531  0.3315  0.3104  0.6022
  113MOL   Cl8736151   4.584   7.445   1.535  0.3122  0.3443  0.2119
  113MOL    C8836152   4.386   7.286   1.641 -0.3224 -0.2446 -0.2109
  113MOL    C8936153   4.298   7.176   1.638 -0.4021  0.1625 -0.1164
  113MOL    C9036154   4.120   6.950   1.364  1.2412  0.5559 -0.1307
  113MOL    H9136155   4.103   7.020   1.577  0.7338 -0.9757  1.8071
  113MOL    H9236156   4.356   7.088   1.311  3.4593 -0.3317 -0.4253
  113MOL    H9336157   4.524   7.243   1.331 -2.4239 -0.1458 -0.4144
  113MOL    H9436158   4.383   7.356   1.724  0.1251  0.2809 -0.6319
  113MOL    H9536159   4.234   7.152   1.722  1.4094  0.2042  1.3222
  113MOL    H9636160   4.206   6.920   1.305  1.6029 -1.9453  1.6422
  113MOL    H9736161   4.052   6.867   1.383  0.0654  1.7411  0.9832
  113MOL    C9836162   4.050   7.056   1.282  0.4137 -0.2180 -0.3299
  113MOL    C9936163   4.034   7.016   1.134 -0.2856  0.4746  0.1669
  113MOL   C10036164   3.999   6.882   1.098 -0.7684  0.1548  0.0485
  113MOL   C10136165   3.978   6.844   0.965  0.1632 -0.1163  0.2709
  113MOL   C10236166   4.004   6.939   0.862 -0.2223 -0.3061  0.3403
  113MOL  Cl10336167   3.989   6.900   0.695  0.2161  0.3278  0.0208
  113MOL   C10436168   4.034   7.068   0.894 -0.1706 -0.2945 -0.0397
  113MOL   C10536169   4.039   7.108   1.025  0.3038  0.2912  0.1995
  113MOL   C10636170   3.911   7.101   1.338  0.5509  0.0707  0.6588
  113MOL   H10736171   4.118   7.141   1.288 -1.4866  1.6290 -3.1392
  113MOL   H10836172   3.974   6.802   1.166  2.3651 -1.3463 -0.4751
  113MOL   H10936173   3.954   6.742   0.938 -0.3399 -0.3884  1.7112
  113MOL   H11036174   4.038   7.143   0.816 -0.3586  1.0197  1.1814
  113MOL   H11136175   4.060   7.212   1.049 -0.9210  0.4574  0.5669
  113MOL   H11236176   3.834   7.110   1.261  0.7679  3.5310  0.8060
  113MOL   H11336177   3.872   7.018   1.397  1.1312 -1.8420 -1.5398
  113MOL   C11436178   3.914   7.230   1.420  0.1572 -0.0252  0.7375
  113MOL   C11536179   3.971   7.342   1.348 -0.1781  0.3146 -0.1235
  113MOL   C11636180   4.097   7.385   1.398 -0.3540 -0.2411 -0.2293
  113MOL   C11736181   4.161   7.503   1.348 -0.1574  0.0898 -0.2964
  113MOL   C11836182   4.101   7.568   1.239  0.2317  0.1757 -0.1607
  113MOL  Cl11936183   4.187   7.687   1.142  0.0087  0.0762 -0.1346
  113MOL   C12036184   3.979   7.526   1.191  0.4566 -0.5949  0.2253
  113MOL   C12136185   3.909   7.407   1.241  1.1572 -0.1551  0.7349
  113MOL   C12236186   3.771   7.267   1.470  0.0087  0.2292 -0.7386
  113MOL   H12336187   3.979   7.208   1.505  2.0257  1.4066 -0.3073
  113MOL   H12436188   4.130   7.357   1.497  3.3744 -1.1989 -1.6721
  113MOL   H12536189   4.251   7.539   1.396 -1.5590  0.7702  1.9143
  113MOL   H12636190   3.941   7.581   1.106 -0.1238  1.5317  1.8311
  113MOL   H12736191   3.817   7.371   1.198  0.5688  4.0153 -1.8426
  113MOL   H12836192   3.732   7.366   1.447  0.1905  0.3864 -0.3744
  113MOL   H12936193   3.700   7.198   1.424  0.4431  1.0762 -2.6963
  113MOL   C13036194   3.756   7.255   1.621  1.1242  0.1729 -0.1116
  113MOL   C13136195   3.866   7.340   1.678  0.5507 -0.4961 -1.2465
  113MOL   C13236196   3.885   7.477   1.645 -0.0158  0.4104  0.3866
  113MOL   C13336197   3.994   7.547   1.693  0.3891 -0.2619  0.1291
  113MOL   C13436198   4.083   7.493   1.789  0.0023 -0.1008  0.6441
  113MOL  Cl13536199   4.215   7.588   1.846 -0.2038  0.3174  0.0190
  113MOL   C13636200   4.049   7.365   1.846 -0.0126  0.3023 -0.0697
  113MOL   C13736201   3.944   7.287   1.786  0.1273  0.4483  0.5060
  113MOL   C13836202   3.618   7.308   1.675  0.8500  0.5790  0.4727
  113MOL   H13936203   3.767   7.148   1.637 -1.6791  0.0350  1.0460
  113MOL   H14036204   3.821   7.519   1.569  0.7956  1.0619  0.0545
  113MOL   H14136205   4.003   7.649   1.661 -1.1999 -0.1869 -0.1047
  113MOL   H14236206   4.106   7.320   1.926 -0.3228 -0.6678 -0.3939
  113MOL   H14336207   3.916   7.186   1.811  0.3246  0.1972 -0.2842
  113MOL   H14436208   3.602   7.407   1.631 -1.3858  0.3509  0.6922
  113MOL   H14536209   3.533   7.265   1.622 -1.1630  2.2928  2.2123
  113MOL   C14636210   3.577   7.313   1.825 -1.3433  0.8389 -0.5973
  113MOL   C14736211   3.451   7.391   1.856  0.7406  0.3171 -0.3858
  113MOL   C14836212   3.456   7.462   1.979  0.5908 -0.0943 -0.5903
  113MOL   C14936213   3.343   7.541   2.007  0.6181  0.7166  0.2216
  113MOL   C15036214   3.222   7.533   1.932  0.1859  0.3556 -0.1212
  113MOL  Cl15136215   3.083   7.630   1.976  0.0767  0.5235  0.0362
  113MOL   C15236216   3.223   7.456   1.813  0.0763  0.4712  0.2212
  113MOL   C15336217   3.335   7.385   1.775 -0.3214  0.1122 -0.4923
  113MOL   C15436218   3.573   7.172   1.913 -0.5453  0.0128  0.1117
  113MOL   H15536219   3.658   7.366   1.876  1.1582 -2.1735 -1.3264
  113MOL   H15636220   3.547   7.462   2.036  0.9831 -0.7206 -1.2004
  113MOL   H15736221   3.339   7.613   2.087 -0.0634 -3.0536  3.7879
  113MOL   H15836222   3.130   7.464   1.758 -0.4549  0.6226  1.1288
  113MOL   H15936223   3.330   7.312   1.696  0.1531 -0.3609 -0.0941
  113MOL   H16036224   3.676   7.137   1.926 -0.6643  0.2460  1.6797
  113MOL   H16136225   3.546   7.205   2.013  1.3841 -1.3025  1.1076
  113MOL   C16236226   3.489   7.057   1.854  0.0138  0.2527 -0.2081
  113MOL   C16336227   3.568   6.983   1.744 -0.0147 -0.2355 -0.5262
  113MOL   C16436228   3.523   6.990   1.608 -0.1257  0.1978  0.0371
  113MOL   C16536229   3.599   6.921   1.515  0.7250 -0.1397  0.4000
  113MOL   C16636230   3.707   6.846   1.546 -0.2285  0.5695  0.2974
  113MOL  Cl16736231   3.775   6.757   1.412 -0.0394  0.3371 -0.2673
  113MOL   C16836232   3.742   6.829   1.680 -0.1384 -0.1746  0.4362
  113MOL   C16936233   3.674   6.901   1.781 -0.2672  0.2867 -0.1181
  113MOL   C17036234   3.432   6.950   1.949  0.4349  0.0914  0.0265
  113MOL   H17136235   3.410   7.116   1.807 -0.5466  0.3054  0.7827
  113MOL   H17236236   3.449   7.060   1.572 -0.0498 -0.5801 -1.6483
  113MOL   H17336237   3.570   6.929   1.411  1.4551  0.3589  0.2350
  113MOL   H17436238   3.821   6.760   1.703  0.3179  0.2417  0.1253
  113MOL   H17536239   3.701   6.888   1.885  3.2007  1.1282 -0.8498
  113MOL   H17636240   3.498   6.865   1.965 -0.7162 -0.8215 -0.0878
  113MOL   H17736241   3.422   7.006   2.042 -1.4719  1.2579 -0.8478
  113MOL   C17836242   3.286   6.901   1.913  0.0722 -0.0704 -0.3263
  113MOL   C17936243   3.250   6.764   1.975  0.5762  0.3935 -0.0682
  113MOL   C18036244   3.307   6.703   2.091  0.0115  0.2643 -0.9141
  113MOL   C18136245   3.262   6.574   2.129 -0.1994 -0.5778 -0.1001
  113MOL   C18236246   3.177   6.502   2.048 -0.3459 -0.1316 -0.0083
  113MOL  Cl18336247   3.143   6.350   2.098  0.3323  0.2245  0.1960
  113MOL   C18436248   3.126   6.556   1.932 -0.2689  0.0202  0.8374
  113MOL   C18536249   3.156   6.691   1.894  0.0940  0.4026 -0.0828
  113MOL   C18636250   3.173   7.013   1.938 -0.3235  0.4127 -0.9131
  113MOL   H18736251   3.291   6.887   1.805 -1.8401 -1.1377 -0.2928
  113MOL   H18836252   3.382   6.752   2.151 -1.1287  1.4239 -0.3842
  113MOL   H18936253   3.311   6.527   2.212  2.7576  0.7129 -1.0277
  113MOL   H19036254   3.066   6.502   1.859 -0.3209  1.1322  0.0403
  113MOL   H19136255   3.110   6.731   1.805  1.5511 -0.4051 -1.2033
  113MOL   H19236256   3.201   7.108   1.894 -3.8355  1.6473 -0.6973
  113MOL   H19336257   3.095   6.980   1.869 -1.0343 -0.9056  0.4910
  113MOL   C19436258   3.124   7.035   2.090 -0.7218 -0.0381  0.6538
  113MOL   C19536259   3.230   7.084   2.189 -0.0156  0.2896 -0.2904
  113MOL   C19636260   3.272   7.000   2.300 -0.0186 -0.0349 -0.2034
  113MOL   C19736261   3.369   7.041   2.397 -0.7432  0.1187 -0.0238
  113MOL   C19836262   3.429   7.163   2.389  0.3725 -0.3209 -1.0894
  113MOL  Cl19936263   3.547   7.202   2.500  0.5051  0.0011 -0.2451
  113MOL   C20036264   3.395   7.250   2.281 -0.6763  0.8851  0.1218
  113MOL   C20136265   3.295   7.211   2.183  0.4942  0.1932 -0.5129
  113MOL   C20236266   3.003   7.131   2.079 -0.8216 -0.7682 -0.5765
  113MOL   H20336267   3.096   6.933   2.115  0.7481 -0.4249  0.7710
  113MOL   H20436268   3.231   6.902   2.318 -1.4686  0.1938 -2.1885
  113MOL   H20536269   3.400   6.972   2.474  2.4924  1.5411  0.0208
  113MOL   H20636270   3.448   7.343   2.271 -1.7864  1.4641 -0.4820
  113MOL   H20736271   3.279   7.276   2.099 -0.1055 -0.9028 -1.2628
  113MOL   H20836272   3.034   7.224   2.030  2.2191 -0.3835  1.9672
  113MOL   H20936273   2.923   7.094   2.014  0.5283  0.0353 -2.7635
  113MOL   C21036274   2.945   7.186   2.210 -0.7396 -0.2468  0.2390
  113MOL   C21136275   2.877   7.323   2.189  0.5297  0.7383  0.6868
  113MOL   C21236276   2.931   7.435   2.254 -0.9004 -0.9200  0.1209
  113MOL   C21336277   2.874   7.559   2.220  0.2554  0.6900 -0.4934
  113MOL   C21436278   2.770   7.573   2.130  1.3773  0.0631  0.6373
  113MOL  Cl21536279   2.709   7.725   2.087 -0.1406  0.4270  0.1920
  113MOL   C21636280   2.712   7.462   2.070  0.1346 -0.0566 -0.1148
  113MOL   C21736281   2.772   7.334   2.094 -0.1907  0.6297 -0.2652
  113MOL   C21836282   2.853   7.085   2.272 -0.0292  0.0914 -0.1385
  113MOL   H21936283   3.031   7.209   2.272  1.2119 -1.4249 -1.9544
  113MOL   H22036284   3.014   7.434   2.324  0.7907 -2.3292 -1.8191
  113MOL   H22136285   2.921   7.646   2.263 -1.2676  1.5562 -0.5792
  113MOL   H22236286   2.632   7.471   1.999  1.7081  0.0155 -1.9216
  113MOL   H22336287   2.740   7.241   2.048 -2.0961  1.0891  0.0657
  113MOL   H22436288   2.788   7.041   2.197  2.4937 -1.1229 -1.6658
  113MOL   H22536289   2.923   7.008   2.303  0.8839  1.4120  1.2052
  113MOL   C22636290   2.770   7.142   2.388 -0.1552 -0.1275  0.3246
  113MOL   C22736291   2.634   7.180   2.346  0.3403  0.0377  0.4493
  113MOL   C22836292   2.549   7.076   2.291 -0.0439 -0.2674 -1.0410
  113MOL   C22936293   2.413   7.096   2.273 -0.1615  0.6095  0.2133
  113MOL   C23036294   2.359   7.226   2.291 -0.3687 -0.4795  0.1844
  113MOL  Cl23136295   2.194   7.251   2.237  0.3445  0.1615  0.0094
  113MOL   C23236296   2.442   7.329   2.332 -0.0371 -0.2208 -0.0484
  113MOL   C23336297   2.575   7.308   2.367  1.0307  0.3064  0.3591
  113MOL   C23436298   2.770   7.030   2.503  0.1345  0.2741 -0.6988
  113MOL   H23536299   2.821   7.231   2.424 -1.1238  0.2904  0.6991
  113MOL   H23636300   2.582   6.973   2.287  0.6922 -0.1299  0.9345
  113MOL   H23736301   2.360   7.010   2.235 -1.1006  0.8802  0.8903
  113MOL   H23836302   2.404   7.430   2.339 -0.5217 -0.4953  1.6382
  113MOL   H23936303   2.634   7.394   2.397  3.0173 -0.5149 -1.0982
  113MOL   H24036304   2.731   6.938   2.457  0.4960 -0.3798  0.2894
  113MOL   H24136305   2.873   7.011   2.530 -0.3920 -1.0161  0.5007
  113MOL   C24236306   2.690   7.056   2.643 -0.8699  0.0252 -0.0814
  113MOL   C24336307   2.757   7.168   2.721 -0.3983 -0.1510  0.1826
  113MOL   C24436308   2.872   7.135   2.801 -0.3457 -0.1937  0.2679
  113MOL   C24536309   2.948   7.240   2.863  0.0226  0.2325 -0.1713
  113MOL   C24636310   2.913   7.372   2.845  0.6425 -0.9583  0.2218
  113MOL  Cl24736311   3.005   7.497   2.922 -0.0345 -0.1887  0.0793
  113MOL   C24836312   2.805   7.406   2.757 -0.0806  0.1182  0.3799
  113MOL   C24936313   2.728   7.304   2.696  0.4450  0.2185 -0.1597
  113MOL   C25036314   2.537   7.065   2.637 -0.4084  0.4509 -0.0754
  113MOL   H25136315   2.721   6.971   2.705 -1.4044  0.6766  1.1056
  113MOL   H25236316   2.906   7.032   2.812  2.7719  0.7405 -0.0602
  113MOL   H25336317   3.039   7.211   2.912  0.8318 -1.0250 -2.3270
  113MOL   H25436318   2.771   7.506   2.733  1.0524  0.3399 -0.3510
  113MOL   H25536319   2.650   7.335   2.628  1.5628  2.5523 -0.4319
  113MOL   H25636320   2.505   7.151   2.578  0.1275 -0.0703 -1.1397
  113MOL   H25736321   2.509   6.968   2.595 -0.0452 -0.1792  1.1106
  113MOL   C25836322   2.460   7.083   2.771 -0.0220 -0.7065 -0.4514
  113MOL   C25936323   2.311   7.098   2.742  0.6192  1.1128 -0.3237
  113MOL   C26036324   2.238   7.021   2.646 -0.4467 -0.9936  0.1170
  113MOL   C26136325   2.097   7.037   2.634  0.3815 -0.0732  0.1069
  113MOL   C26236326   2.031   7.132   2.714 -0.8535  0.0230  0.9548
  113MOL  Cl26336327   1.865   7.164   2.685 -0.0629 -0.1245 -0.3362
  113MOL   C26436328   2.099   7.196   2.820  0.0269 -0.0176  0.4841
  113MOL   C26536329   2.237   7.186   2.831  0.6041  0.0813  0.3393
  113MOL   C26636330   2.480   6.963   2.872  0.2581 -0.1845  0.5703
  113MOL   H26736331   2.492   7.179   2.812 -0.7421 -1.5657  2.2272
  113MOL   H26836332   2.291   6.945   2.591  3.6461  1.1912  0.8785
  113MOL   H26936333   2.032   6.984   2.567 -1.1575 -1.0123  2.2851
  113MOL   H27036334   2.041   7.271   2.873 -0.0111 -1.0332  1.9093
  113MOL   H27136335   2.290   7.247   2.904  2.3100 -0.0737 -0.7417
  113MOL   H27236336   2.401   6.888   2.864  0.9713 -0.9118  0.3510
  113MOL   H27336337   2.565   6.904   2.840 -0.6247  0.0640 -2.3830
  113MOL   C27436338   2.477   7.010   3.018 -0.1024 -0.4420  0.0657
  113MOL   C27536339   2.443   6.897   3.120 -0.5632 -0.6015 -0.1414
  113MOL   C27636340   2.325   6.918   3.189 -0.0091  0.1060 -0.0246
  113MOL   C27736341   2.293   6.824   3.286  0.4375 -0.6582  0.5490
  113MOL   C27836342   2.383   6.719   3.328  0.1565 -0.7404  0.1287
  113MOL  Cl27936343   2.332   6.630   3.467 -0.2593  0.0824 -0.3802
  113MOL   C28036344   2.504   6.696   3.254 -1.0225 -0.4339  0.1573
  113MOL   C28136345   2.525   6.791   3.151  0.0241  0.1713 -0.1849
  113MOL   C28236346   2.616   7.078   3.052  0.1618  0.3565  0.5641
  113MOL   H28336347   2.417   7.101   3.025  1.2366  0.3214  1.9507
  113MOL   H28436348   2.253   6.994   3.160 -0.0524 -0.1253 -0.5385
  113MOL   H28536349   2.196   6.837   3.331  1.0072  0.3229  1.5159
  113MOL   H28636350   2.558   6.609   3.288 -1.9201 -1.1318 -0.1814
  113MOL   H28736351   2.612   6.778   3.087  0.3068  1.4477 -0.0596
  113MOL   H28836352   2.687   6.998   3.072  1.1520  0.7577 -1.2448
  113MOL   H28936353   2.652   7.145   2.974 -0.9923 -0.8948 -1.0798
  113MOL   C29036354   2.610   7.179   3.171 -0.0589 -0.1361  0.1221
  113MOL   C29136355   2.551   7.136   3.302  0.0124 -0.1291  0.2992
  113MOL   C29236356   2.446   7.214   3.369 -0.4697 -0.0479 -0.1200
  113MOL   C29336357   2.394   7.165   3.485  0.3757  0.6099 -0.0092
  113MOL   C29436358   2.443   7.052   3.548 -0.5499 -0.1371  0.0172
  113MOL  Cl29536359   2.374   7.022   3.699  0.1556  0.2951  0.0350
  113MOL   C29636360   2.558   6.986   3.492  0.2550 -0.5089 -0.5434
  113MOL   C29736361   2.599   7.020   3.366 -0.1076 -0.2549  0.5393
  113MOL   C29836362   2.751   7.238   3.193 -0.7066  0.2665  0.1799
  113MOL   H29936363   2.534   7.250   3.138 -0.7634  0.6821  3.2533
  113MOL   H30036364   2.413   7.305   3.321 -1.1103  0.6648  1.6286
  113MOL   H30136365   2.312   7.224   3.524  0.4139  1.2674 -0.8890
  113MOL   H30236366   2.596   6.898   3.541  0.1315 -0.6630 -0.7217
  113MOL   H30336367   2.690   6.985   3.320  0.3598  0.8936  0.5773
  113MOL   H30436368   2.816   7.160   3.234  0.1164  0.5794 -0.4984
  113MOL   H30536369   2.801   7.255   3.098  1.9558  1.3709  1.7131
  113MOL   C30636370   2.748   7.355   3.296  0.1887 -0.7112 -0.1324
  113MOL   C30736371   2.881   7.354   3.374  0.2262  0.2918 -0.2997
  113MOL   C30836372   2.882   7.354   3.520  0.4112  0.4603  0.3102
  113MOL   C30936373   3.001   7.341   3.591 -0.4742  0.1534 -0.6550
  113MOL   C31036374   3.123   7.339   3.524 -0.1422  0.4615  0.4386
  113MOL  Cl31136375   3.273   7.306   3.611 -0.1111 -0.0841 -0.0566
  113MOL   C31236376   3.127   7.355   3.384 -0.1672  0.6206 -0.3605
  113MOL   C31336377   3.006   7.366   3.312 -0.1024 -0.0667  0.1087
  113MOL   C31436378   2.705   7.492   3.238 -0.2824  0.2440  1.1818
  113MOL   H31536379   2.675   7.336   3.375 -0.2021  2.1382  0.2504
  113MOL   H31636380   2.783   7.365   3.560 -0.4125  1.1651 -1.8136
  113MOL   H31736381   2.994   7.324   3.698 -0.6324  0.8586 -0.5479
  113MOL   H31836382   3.220   7.379   3.334 -1.3399  3.1016 -1.4621
  113MOL   H31936383   3.013   7.380   3.205  0.3664  0.4334  0.2035
  113MOL   H32036384   2.603   7.488   3.199  0.5353  1.1306 -1.1034
  113MOL   H32136385   2.710   7.562   3.322 -1.5770  1.2268  0.4460
  113MOL   H32236386   2.766   7.540   3.162 -0.8522  1.7067  1.6341
  114MOL     C136387   0.236   1.042   7.897  0.5708  0.2081  0.1713
  114MOL     C236388   0.250   0.946   7.776  0.1917  0.3879 -0.5735
  114MOL     C336389   0.216   0.810   7.787  1.0139  0.3543  0.6908
  114MOL     C436390   0.239   0.734   7.669  0.9065 -0.0286 -0.2762
  114MOL     C536391   0.290   0.783   7.551 -0.2179  0.8407 -0.7243
  114MOL    Cl636392   0.328   0.684   7.423  0.1883 -0.1444 -0.3839
  114MOL     C736393   0.326   0.918   7.544 -0.8176  0.3165 -0.3429
  114MOL     C836394   0.302   1.003   7.656 -0.0607  0.5048  1.0688
  114MOL     C936395   0.309   0.982   8.021  0.5297 -0.0513  0.5029
  114MOL    H1036396   0.130   1.064   7.912  1.3049  2.5527  2.3021
  114MOL    H1136397   0.180   0.761   7.876 -0.0325 -2.0609 -1.0108
  114MOL    H1236398   0.223   0.627   7.667 -1.4934  0.3175 -1.3833
  114MOL    H1336399   0.371   0.964   7.457 -0.3045  0.9640  0.2508
  114MOL    H1436400   0.328   1.108   7.656  1.7921  0.1177 -2.0336
  114MOL    H1536401   0.280   0.879   8.041  0.5936  0.1618  1.6905
  114MOL    H1636402   0.415   0.966   7.997  0.9193  1.7250  0.9627
  114MOL    H1736403   0.289   1.136   7.880  2.1202 -1.0846 -2.5614
  114MOL    C1836404   0.313   1.067   8.146 -0.1623 -0.7417 -0.1255
  114MOL    C1936405   0.169   1.088   8.201  0.4322  0.3359 -0.2592
  114MOL    C2036406   0.081   0.980   8.223  0.1943 -0.3161 -0.6519
  114MOL    C2136407   8.396   1.001   8.276  0.7568  0.4062 -0.5134
  114MOL    C2236408   8.353   1.126   8.323 -0.1239  0.0452  0.3153
  114MOL   Cl2336409   8.196   1.157   8.391 -0.0258 -0.1966 -0.0047
  114MOL    C2436410   0.001   1.234   8.311  0.2237  0.2053 -0.0938
  114MOL    C2536411   0.123   1.211   8.249  0.1865 -0.4322 -0.3930
  114MOL    C2636412   0.408   1.011   8.264 -0.3704  0.8017  0.1361
  114MOL    H2736413   0.350   1.165   8.117 -1.4544 -0.5721 -1.2795
  114MOL    H2836414   0.111   0.881   8.192 -3.1817 -2.5799  2.8763
  114MOL    H2936415   8.339   0.909   8.283 -1.6091  1.8771 -0.0178
  114MOL    H3036416   8.404   1.331   8.340 -4.1249 -0.6011 -2.8826
  114MOL    H3136417   0.195   1.291   8.239 -0.4526  0.4852  2.1311
  114MOL    H3236418   0.395   1.080   8.347  1.8469  0.5285  0.7577
  114MOL    H3336419   0.356   0.924   8.304 -1.0694  1.3413  0.4124
  114MOL    C3436420   0.565   0.997   8.230  0.2312  0.5807  0.3477
  114MOL    C3536421   0.627   1.129   8.199  0.2890  0.1963  0.2724
  114MOL    C3636422   0.608   1.237   8.289  0.4077  0.0051 -0.2915
  114MOL    C3736423   0.680   1.352   8.273 -0.0377 -0.1342  0.7094
  114MOL    C3836424   0.767   1.378   8.166 -0.1132 -0.3287  0.4331
  114MOL   Cl3936425   0.828   1.539   8.136 -0.3298  0.1813 -0.0452
  114MOL    C4036426   0.777   1.276   8.067  0.3113 -0.2966  0.0071
  114MOL    C4136427   0.697   1.160   8.079  0.2060 -0.0644  0.4312
  114MOL    C4236428   0.637   0.910   8.336 -0.7336  0.1558 -0.2604
  114MOL    H4336429   0.571   0.944   8.135 -0.2330  0.8946  0.1447
  114MOL    H4436430   0.553   1.216   8.379  0.8574  1.0155  0.2382
  114MOL    H4536431   0.674   1.425   8.353  1.3358 -0.5376  1.1811
  114MOL    H4636432   0.828   1.287   7.972  0.8932  1.0320  0.4618
  114MOL    H4736433   0.707   1.089   7.998  1.6961  0.2433  0.3273
  114MOL    H4836434   0.630   0.966   8.430 -0.1853  1.7479 -1.1483
  114MOL    H4936435   0.573   0.825   8.357  0.2317 -0.7449 -0.9351
  114MOL    C5036436   0.784   0.884   8.303  0.2162  0.0482  0.5640
  114MOL    C5136437   0.870   0.859   8.427  0.3523 -0.4919 -0.2024
  114MOL    C5236438   1.000   0.911   8.433 -0.0704 -0.2354  0.1829
  114MOL    C5336439   1.096   0.893   0.091 -0.9298 -0.2969  0.6788
  114MOL    C5436440   1.051   0.813   0.202  0.0052 -0.1192 -0.3140
  114MOL   Cl5536441   1.155   0.796   0.340 -0.1691 -0.1689  0.0176
  114MOL    C5636442   0.927   0.750   0.197  0.0404  0.2589 -0.0870
  114MOL    C5736443   0.837   0.774   0.091 -0.4845 -0.5222 -0.5488
  114MOL    C5836444   0.807   0.777   8.198  0.3428 -1.1503 -1.8024
  114MOL    H5936445   0.828   0.971   8.255 -2.3390  1.0992  0.0388
  114MOL    H6036446   1.040   0.968   8.351  1.6579  0.4237  1.4646
  114MOL    H6136447   1.194   0.938   0.099 -0.4919 -1.1075 -0.0783
  114MOL    H6236448   0.896   0.690   0.281 -1.0929  1.6138  0.4990
  114MOL    H6336449   0.742   0.724   0.078 -0.4982 -0.6252 -0.0439
  114MOL    H6436450   0.845   0.688   8.249 -2.9052 -0.4247  2.1000
  114MOL    H6536451   0.708   0.744   8.167 -1.8196  3.4222 -0.1077
  114MOL    C6636452   0.883   0.811   8.068  0.1008  1.0136  0.1804
  114MOL    C6736453   1.026   0.848   8.099 -0.6143 -0.6391 -0.0341
  114MOL    C6836454   1.124   0.763   8.163 -0.5936  0.2593 -0.1995
  114MOL    C6936455   1.253   0.805   8.180 -0.2260 -0.4992 -0.2945
  114MOL    C7036456   1.292   0.938   8.157  0.1728  0.5419 -0.2415
  114MOL   Cl7136457   1.452   0.978   8.186  0.2229 -0.2745 -0.3518
  114MOL    C7236458   1.195   1.022   8.100 -0.6282 -0.4189  0.1424
  114MOL    C7336459   1.071   0.976   8.065 -0.3324  0.3018  0.9250
  114MOL    C7436460   0.874   0.694   7.962  0.6148  0.9800  0.7886
  114MOL    H7536461   0.834   0.897   8.023  0.5648  0.7729 -0.7880
  114MOL    H7636462   1.098   0.659   8.182  1.9582 -0.0444  1.7844
  114MOL    H7736463   1.333   0.753   8.231  1.8166  2.0299 -0.8489
  114MOL    H7836464   1.218   1.126   8.082  0.8576 -0.6276  0.7420
  114MOL    H7936465   1.010   1.052   8.017  1.0890  0.0578 -1.3053
  114MOL    H8036466   0.969   0.693   7.908  0.6463  0.3167  0.8461
  114MOL    H8136467   0.876   0.601   8.019 -1.0267  0.1373 -0.4689
  114MOL    C8236468   0.763   0.700   7.848  1.0810  0.0898  0.0684
  114MOL    C8336469   0.765   0.830   7.758 -0.1216 -0.2092  0.0048
  114MOL    C8436470   0.836   0.841   7.636 -0.0554  0.6586  0.2464
  114MOL    C8536471   0.802   0.941   7.544 -0.0348 -0.2764  0.1180
  114MOL    C8636472   0.710   1.043   7.570 -0.3293 -0.7978  0.9122
  114MOL   Cl8736473   0.681   1.167   7.452 -0.2896  0.4717 -0.5745
  114MOL    C8836474   0.645   1.033   7.698 -0.1316 -0.7894  0.6891
  114MOL    C8936475   0.675   0.934   7.791  0.2193 -0.0024 -0.0079
  114MOL    C9036476   0.761   0.566   7.772 -0.5369  0.2648  0.4619
  114MOL    H9136477   0.669   0.704   7.903  1.7213  1.6119  1.0959
  114MOL    H9236478   0.912   0.768   7.615  0.0541  1.5851 -2.7561
  114MOL    H9336479   0.852   0.940   7.449 -0.4580 -1.0304 -0.1058
  114MOL    H9436480   0.574   1.112   7.720  2.2686  1.3451  1.0417
  114MOL    H9536481   0.618   0.931   7.883  0.9819 -0.4740  0.4535
  114MOL    H9636482   0.863   0.553   7.734 -1.4043 -3.4667 -0.8036
  114MOL    H9736483   0.761   0.478   7.837  3.8077 -1.8625 -2.1490
  114MOL    C9836484   0.652   0.551   7.665 -0.6513 -0.6874  0.2027
  114MOL    C9936485   0.689   0.464   7.555  0.4830 -0.2436  0.1708
  114MOL   C10036486   0.783   0.359   7.567 -0.2467  1.0333  0.5138
  114MOL   C10136487   0.829   0.284   7.460  0.2071 -0.1500  0.4660
  114MOL   C10236488   0.784   0.319   7.331 -0.5196 -0.1286 -0.2480
  114MOL  Cl10336489   0.829   0.216   7.195  0.0895 -0.2493 -0.2790
  114MOL   C10436490   0.695   0.423   7.315 -0.3819 -0.8126 -0.3432
  114MOL   C10536491   0.647   0.502   7.425  0.1234  0.5221 -0.3245
  114MOL   C10636492   0.512   0.524   7.715 -0.4428  0.7254 -0.1268
  114MOL   H10736493   0.638   0.649   7.619 -1.0023 -0.0646  1.6025
  114MOL   H10836494   0.814   0.322   7.664  1.4052 -0.9324 -0.7139
  114MOL   H10936495   0.910   0.213   7.468  0.4647  0.4091  3.2629
  114MOL   H11036496   0.658   0.454   7.219 -1.9576  0.5285  0.6567
  114MOL   H11136497   0.572   0.578   7.407  0.7196  1.2094  0.0574
  114MOL   H11236498   0.481   0.624   7.746 -0.1361  0.7944 -0.0434
  114MOL   H11336499   0.441   0.507   7.634  0.6849 -0.4819 -0.8636
  114MOL   C11436500   0.496   0.415   7.820 -0.1437  0.2005  0.1796
  114MOL   C11536501   0.521   0.460   7.962 -0.4418  0.1450  0.8173
  114MOL   C11636502   0.610   0.391   8.037 -0.7380  0.0028 -0.2321
  114MOL   C11736503   0.632   0.420   8.174  0.2225 -0.5778 -0.5623
  114MOL   C11836504   0.548   0.517   8.230  0.3829  0.7389  0.9274
  114MOL  Cl11936505   0.554   0.560   8.399 -0.2918  0.2677 -0.1941
  114MOL   C12036506   0.468   0.601   8.145  0.0638  0.2592 -0.0835
  114MOL   C12136507   0.453   0.572   8.012 -0.3381 -0.2286 -0.0787
  114MOL   C12236508   0.368   0.327   7.809  0.2091  0.1160 -0.0589
  114MOL   H12336509   0.578   0.350   7.789 -0.2760 -0.3284  0.9347
  114MOL   H12436510   0.673   0.315   7.992 -1.1076 -0.7714  0.5487
  114MOL   H12536511   0.702   0.368   8.237 -0.0401  0.1753  0.3733
  114MOL   H12636512   0.408   0.676   8.195 -0.2617 -0.8329  1.1808
  114MOL   H12736513   0.376   0.631   7.963  1.0286 -0.0702 -2.0823
  114MOL   H12836514   0.339   0.276   7.900  1.4149 -1.1890 -0.3901
  114MOL   H12936515   0.280   0.392   7.805  0.5889  0.6363 -0.0279
  114MOL   C13036516   0.362   0.217   7.697  0.2373  0.0465 -0.0451
  114MOL   C13136517   0.451   0.102   7.731 -0.5527  0.3802 -0.2774
  114MOL   C13236518   0.419   0.014   7.838 -0.7120  0.0551  0.4807
  114MOL   C13336519   0.512   8.356   7.870 -0.2534  0.1134 -0.2470
  114MOL   C13436520   0.629   8.339   7.794 -0.6337  0.3995 -0.0710
  114MOL  Cl13536521   0.727   8.208   7.833  0.1357 -0.0233  0.1349
  114MOL   C13636522   0.651   8.417   7.678  0.7259 -0.5046 -0.3113
  114MOL   C13736523   0.559   0.077   7.644  0.7304 -0.1898 -0.2243
  114MOL   C13836524   0.216   0.173   7.674  0.2728  0.3395 -0.0351
  114MOL   H13936525   0.398   0.259   7.603  0.7414 -0.4356 -0.0732
  114MOL   H14036526   0.332   0.031   7.899 -0.6775  1.4497  0.1741
  114MOL   H14136527   0.488   8.297   7.958 -0.1365 -0.1710 -0.4050
  114MOL   H14236528   0.739   8.399   7.618 -0.6631 -0.5056 -2.4066
  114MOL   H14336529   0.574   0.145   7.562 -1.0034  0.8343  0.2721
  114MOL   H14436530   0.206   0.064   7.670 -1.5997  0.5466 -1.8606
  114MOL   H14536531   0.157   0.201   7.761  1.7128  0.2015  0.9834
  114MOL   C14636532   0.150   0.240   7.544 -0.3405  0.1435 -0.1865
  114MOL   C14736533   0.238   0.211   7.419 -0.2402 -0.5275 -0.3868
  114MOL   C14836534   0.243   0.303   7.315  0.2692  0.4680  0.6149
  114MOL   C14936535   0.307   0.277   7.195  0.2887  0.0418  0.0904
  114MOL   C15036536   0.366   0.149   7.177  0.2022  0.2421 -0.0064
  114MOL  Cl15136537   0.469   0.130   7.036  0.0745 -0.0572 -0.0764
  114MOL   C15236538   0.352   0.054   7.274 -0.3197 -0.4947  0.4448
  114MOL   C15336539   0.290   0.080   7.394 -0.3122 -0.2757  0.5946
  114MOL   C15436540   0.011   0.190   7.511 -0.5737 -0.8199 -0.1850
  114MOL   H15536541   0.147   0.349   7.547 -1.1427  0.2393 -2.9177
  114MOL   H15636542   0.202   0.402   7.314 -0.2722  0.2786  2.5661
  114MOL   H15736543   0.308   0.351   7.116 -1.7369  0.6998  0.6502
  114MOL   H15836544   0.387   8.399   7.242  1.6057  0.7210 -1.2959
  114MOL   H15936545   0.285   0.014   7.480 -1.4349  1.6319  2.0441
  114MOL   H16036546   8.426   0.244   7.420 -0.6111  0.6218  0.6664
  114MOL   H16136547   0.019   0.086   7.481  0.7835 -0.5187 -0.9000
  114MOL   C16236548   8.340   0.195   7.614 -0.0361 -0.0583 -0.6534
  114MOL   C16336549   8.320   0.325   7.691 -0.1295 -0.6569  0.1499
  114MOL   C16436550   8.277   0.443   7.619  0.3665 -0.9834 -0.0159
  114MOL   C16536551   8.256   0.561   7.690 -0.2797  0.1980 -0.2768
  114MOL   C16636552   8.291   0.562   7.828 -0.6542 -0.5672 -1.0197
  114MOL  Cl16736553   8.242   0.699   7.931 -0.1553  0.0854  0.4580
  114MOL   C16836554   8.330   0.447   7.897  0.1812 -0.9098 -0.1906
  114MOL   C16936555   8.348   0.322   7.825 -0.1735  0.7643  0.5515
  114MOL   C17036556   8.208   0.147   7.554  0.6472  0.0575 -0.4471
  114MOL   H17136557   8.364   0.113   7.682  1.9797  0.1705 -1.0614
  114MOL   H17236558   8.241   0.439   7.517 -2.2455  2.3710  0.6962
  114MOL   H17336559   8.207   0.642   7.638 -0.3675 -0.1891 -0.8039
  114MOL   H17436560   8.347   0.455   8.004 -0.9237  0.2110 -0.0984
  114MOL   H17536561   8.382   0.239   7.884 -0.6562 -0.0175 -0.2610
  114MOL   H17636562   8.204   0.215   7.468  3.4228 -0.8494 -1.3365
  114MOL   H17736563   8.215   0.051   7.503 -0.5412 -0.7552  0.8981
  114MOL   C17836564   8.076   0.152   7.638 -0.8282  0.4805  0.6156
  114MOL   C17936565   7.959   0.149   7.537  0.4389  0.1227  0.2078
  114MOL   C18036566   7.913   0.039   7.459 -0.5366  0.6061  0.4231
  114MOL   C18136567   7.810   0.044   7.369  0.5300  0.0876 -0.5646
  114MOL   C18236568   7.748   0.166   7.347 -0.7633 -1.1381 -0.5239
  114MOL  Cl18336569   7.615   0.168   7.238 -0.4562 -0.5412 -0.1663
  114MOL   C18436570   7.801   0.281   7.410 -0.2791  0.6346 -0.4134
  114MOL   C18536571   7.907   0.275   7.506  0.8525 -0.2240  0.9151
  114MOL   C18636572   8.070   0.041   7.745  1.0019  0.1066  0.3213
  114MOL   H18736573   8.081   0.243   7.698 -2.9914 -0.3728  2.1624
  114MOL   H18836574   7.958   8.386   7.476  2.4715  1.7471 -0.7238
  114MOL   H18936575   7.787   8.395   7.317  0.1777 -0.5361  0.6782
  114MOL   H19036576   7.748   0.374   7.393 -1.5114 -0.1838 -1.1268
  114MOL   H19136577   7.941   0.365   7.555 -1.0588  0.8721  0.2804
  114MOL   H19236578   8.092   8.391   7.694  0.5831  0.1190  0.1167
  114MOL   H19336579   8.155   0.052   7.812  2.0243 -0.2421 -0.9108
  114MOL   C19436580   7.932   0.035   7.828  0.4294  0.3464 -0.5061
  114MOL   C19536581   7.836   8.365   7.795  0.1304 -0.1610  0.7080
  114MOL   C19636582   7.713   8.389   7.735  0.5095 -0.0600 -0.3774
  114MOL   C19736583   7.616   8.285   7.738  0.7866  0.4491  0.0342
  114MOL   C19836584   7.653   8.152   7.766 -0.5642  0.1915 -0.3178
  114MOL  Cl19936585   7.543   8.027   7.744 -0.0959  0.0737 -0.3523
  114MOL   C20036586   7.787   8.127   7.805 -0.5579  0.7630  0.3004
  114MOL   C20136587   7.880   8.231   7.818  0.3138 -0.2220  0.8478
  114MOL   C20236588   7.963   0.041   7.978  0.0313  0.4703 -0.3253
  114MOL   H20336589   7.877   0.125   7.799 -2.7027 -1.3589  0.0108
  114MOL   H20436590   7.691   0.036   7.680 -2.9015  0.2922  1.4860
  114MOL   H20536591   7.518   8.299   7.695  0.4374  0.3579  0.7903
  114MOL   H20636592   7.812   8.028   7.840 -2.6970  0.0340 -0.1766
  114MOL   H20736593   7.975   8.211   7.867  0.8437  0.4132  0.0915
  114MOL   H20836594   8.011   8.391   8.007  0.3192  0.9237  0.6420
  114MOL   H20936595   8.036   0.117   8.004  1.8554 -1.4462  0.2156
  114MOL   C21036596   7.841   0.048   8.072 -0.2388 -0.0327  0.0600
  114MOL   C21136597   7.871   8.410   8.197 -1.1470 -0.9706 -0.2718
  114MOL   C21236598   7.834   8.269   8.203  0.0699  0.1267 -0.3561
  114MOL   C21336599   7.857   8.195   8.322 -0.3126  0.5515  0.2608
  114MOL   C21436600   7.926   8.252   8.431  0.5284  0.9173 -0.4748
  114MOL  Cl21536601   7.954   8.169   0.135 -0.0501  0.0853  0.3949
  114MOL   C21636602   7.967   8.385   8.424 -0.1539 -0.5968  0.4835
  114MOL   C21736603   7.951   0.017   8.303 -0.0462 -0.2577 -0.0477
  114MOL   C21836604   7.792   0.187   8.096  0.4646  0.6587 -0.7922
  114MOL   H21936605   7.755   0.001   8.024  0.2301 -1.0314  0.2006
  114MOL   H22036606   7.777   8.226   8.123 -1.1184 -0.9404  1.0371
  114MOL   H22136607   7.818   8.094   8.332 -0.7698  0.7371  0.3556
  114MOL   H22236608   8.019   8.433   0.063 -0.8661 -0.9719  1.1676
  114MOL   H22336609   7.984   0.120   8.299  1.3887 -0.7393 -1.2045
  114MOL   H22436610   7.869   0.252   8.138  0.1090 -0.1904  1.2147
  114MOL   H22536611   7.775   0.230   7.997  0.5043 -1.3870 -1.6960
  114MOL   C22636612   7.659   0.206   8.180 -0.4523 -0.4534 -0.0745
  114MOL   C22736613   7.665   0.343   8.228 -0.0936 -0.2937  0.6904
  114MOL   C22836614   7.675   0.366   8.366  0.5148  0.3925 -0.8093
  114MOL   C22936615   7.681   0.495   8.418  1.2304 -0.5966  0.4893
  114MOL   C23036616   7.709   0.595   8.324  0.3891  0.1543 -0.2687
  114MOL  Cl23136617   7.703   0.752   8.389 -0.1567 -0.3395  0.2304
  114MOL   C23236618   7.717   0.569   8.183 -0.3629  0.3531  0.0447
  114MOL   C23336619   7.686   0.447   8.134 -0.8541 -0.2026 -0.7250
  114MOL   C23436620   7.536   0.178   8.096 -0.1347 -0.1274  0.2069
  114MOL   H23536621   7.676   0.138   8.264  1.9604  0.3789  0.1332
  114MOL   H23636622   7.657   0.284   8.434  1.3963  0.2957 -0.6889
  114MOL   H23736623   7.681   0.520   0.080 -0.8309  1.2258  0.1093
  114MOL   H23836624   7.736   0.658   8.124  0.0937  1.2002  1.4459
  114MOL   H23936625   7.698   0.435   8.027  0.6286  0.5286 -0.6619
  114MOL   H24036626   7.493   0.272   8.060  1.4591  0.0333 -1.2784
  114MOL   H24136627   7.564   0.117   8.011 -1.2270 -2.1716  1.2736
  114MOL   C24236628   7.425   0.103   8.175 -0.2593  0.3693 -0.3433
  114MOL   C24336629   7.284   0.137   8.128  0.3914 -0.3409  0.4837
  114MOL   C24436630   7.191   0.188   8.221 -0.2825 -0.1662  0.9294
  114MOL   C24536631   7.054   0.182   8.195  0.4220  0.1707 -0.1270
  114MOL   C24636632   7.005   0.153   8.063  0.0709  0.2120  0.0692
  114MOL  Cl24736633   6.841   0.157   8.005 -0.4157  0.1325  0.0258
  114MOL   C24836634   7.107   0.126   7.966 -0.2238 -0.5892  0.0731
  114MOL   C24936635   7.243   0.103   8.001  0.1972  0.6715  0.0041
  114MOL   C25036636   7.457   8.399   8.195  0.1616  0.3741 -0.1262
  114MOL   H25136637   7.433   0.145   8.275  0.1859  1.8055 -0.9648
  114MOL   H25236638   7.221   0.212   8.322 -0.9350 -2.2017  1.6365
  114MOL   H25336639   6.992   0.217   8.277  1.6289 -2.7161  2.1035
  114MOL   H25436640   7.083   0.096   7.866  2.1036  1.5895 -1.2062
  114MOL   H25536641   7.305   0.078   7.917  0.4434  0.8252  0.1403
  114MOL   H25636642   7.476   8.354   8.098 -0.1847 -0.1690  0.0564
  114MOL   H25736643   7.546   8.392   8.258 -0.7157 -0.0702  1.0712
  114MOL   C25836644   7.357   8.305   8.262  0.3621 -0.4336  0.4439
  114MOL   C25936645   7.255   8.250   8.164 -0.2079 -0.0986 -0.8100
  114MOL   C26036646   7.300   8.197   8.045  0.6300 -0.1099  0.8432
  114MOL   C26136647   7.209   8.175   7.938 -0.1181  0.3574 -0.5721
  114MOL   C26236648   7.070   8.202   7.951  0.1090 -0.8007 -0.2556
  114MOL  Cl26336649   6.959   8.183   7.812  0.4362 -0.4506 -0.1965
  114MOL   C26436650   7.021   8.254   8.073 -0.5424  0.3077  0.7036
  114MOL   C26536651   7.115   8.276   8.180  0.1391 -0.1187 -0.1401
  114MOL   C26636652   7.422   8.196   8.337 -0.3164  0.2022  0.1939
  114MOL   H26736653   7.294   8.356   8.335  1.2805  2.0916 -0.4847
  114MOL   H26836654   7.404   8.177   8.023  0.1223 -1.6342 -0.2128
  114MOL   H26936655   7.232   8.140   7.838 -2.6772 -0.8859 -0.7456
  114MOL   H27036656   6.919   8.281   8.096  0.3905  2.6177  2.4064
  114MOL   H27136657   7.078   8.313   8.274  0.4916 -0.1378  0.0061
  114MOL   H27236658   7.479   8.151   8.255 -0.7202 -0.4941  0.2978
  114MOL   H27336659   7.488   8.233   8.416 -1.5080 -0.9978  1.7922
  114MOL   C27436660   7.334   8.092   8.421  0.2878 -0.3672 -0.2771
  114MOL   C27536661   7.408   7.971   0.034 -0.2621  0.4121 -0.6704
  114MOL   C27636662   7.548   7.966   0.053  0.2430 -0.7589 -0.6533
  114MOL   C27736663   7.610   7.850   0.107  0.0895 -0.0722 -0.1084
  114MOL   C27836664   7.532   7.744   0.150 -0.0676 -0.2552 -0.4444
  114MOL  Cl27936665   7.614   7.607   0.219  0.1899 -0.0365  0.0678
  114MOL   C28036666   7.392   7.742   0.130  0.7049  0.7936 -0.7753
  114MOL   C28136667   7.332   7.858   0.070 -0.3260  0.1559  0.3129
  114MOL   C28236668   7.227   8.159   0.067  0.0857  0.8858 -0.5427
  114MOL   H28336669   7.273   8.047   8.343  3.5556 -0.4359 -2.8827
  114MOL   H28436670   7.615   8.046   0.023  1.0713 -0.5489  1.6692
  114MOL   H28536671   7.715   7.835   0.130  0.0897 -0.5765 -0.4344
  114MOL   H28636672   7.329   7.659   0.156  1.9395 -0.6744 -2.3489
  114MOL   H28736673   7.225   7.859   0.059 -0.2862  1.4356  0.0476
  114MOL   H28836674   7.177   8.242   0.017 -0.5647  1.1503  0.5205
  114MOL   H28936675   7.137   8.100   0.083  0.7311  0.5729  2.2461
  114MOL   C29036676   7.278   8.202   0.209 -0.1990 -0.3679 -0.2000
  114MOL   C29136677   7.394   8.308   0.209  0.3538 -0.6819 -0.9387
  114MOL   C29236678   7.514   8.268   0.278  0.0384  0.4835 -0.2052
  114MOL   C29336679   7.622   8.353   0.282 -0.7797  0.1084  0.2179
  114MOL   C29436680   7.619   0.039   0.226  0.0802  0.1746 -0.9528
  114MOL  Cl29536681   7.751   0.151   0.226  0.1559 -0.0458  0.1879
  114MOL   C29636682   7.502   0.079   0.155  0.8833 -0.5435 -0.3878
  114MOL   C29736683   7.392   8.434   0.146  0.6506 -0.0715 -0.9993
  114MOL   C29836684   7.155   8.243   0.300 -0.6083 -0.2533  0.3313
  114MOL   H29936685   7.321   8.110   0.248 -1.1863 -1.4024 -1.5104
  114MOL   H30036686   7.533   8.172   0.325  1.5230  0.8563 -0.0245
  114MOL   H30136687   7.717   8.317   0.319 -1.1502  0.4296  1.4738
  114MOL   H30236688   7.498   0.175   0.107  1.3167 -0.4758 -0.2888
  114MOL   H30336689   7.300   0.016   0.095 -0.0915 -1.1638 -0.2017
  114MOL   H30436690   7.102   8.320   0.243 -2.1029 -0.2873  1.6480
  114MOL   H30536691   7.087   8.159   0.303 -1.6536  0.5897  0.5776
  114MOL   C30636692   7.190   8.299   0.440 -0.4449 -0.4258  0.7237
  114MOL   C30736693   7.054   8.321   0.502 -0.3938  0.5839 -0.1043
  114MOL   C30836694   6.985   8.224   0.580 -0.2773  0.0704  0.4156
  114MOL   C30936695   6.869   8.252   0.651  0.5157 -0.0987 -0.1899
  114MOL   C31036696   6.813   8.384   0.641  0.3249 -0.0363 -0.2174
  114MOL  Cl31136697   6.668   8.422   0.727 -0.2074  0.1652  0.1886
  114MOL   C31236698   6.884   0.041   0.568  0.1313  0.1785  0.9746
  114MOL   C31336699   6.997   0.004   0.494  0.4090 -0.2639  0.2977
  114MOL   C31436700   7.277   8.216   0.534 -0.6504  0.1901 -0.5382
  114MOL   H31536701   7.245   8.393   0.430 -2.2204  0.5294 -0.2185
  114MOL   H31636702   7.031   8.128   0.600  2.3908  0.8292 -1.6646
  114MOL   H31736703   6.820   8.163   0.690  1.6143 -1.3736 -1.6437
  114MOL   H31836704   6.846   0.141   0.558  1.2495  0.3411 -2.0649
  114MOL   H31936705   7.030   0.074   0.419  3.0049  0.0205  1.6742
  114MOL   H32036706   7.242   8.119   0.569  0.3887 -1.1463 -3.0902
  114MOL   H32136707   7.364   8.188   0.475 -1.9380  1.1976 -2.9864
  114MOL   H32236708   7.306   8.277   0.619 -0.3813 -0.6071 -0.0521
  115MOL     C136709   4.382   5.583   2.706 -0.2705 -0.6210 -0.5737
  115MOL     C236710   4.271   5.543   2.800 -0.4191 -0.7005 -0.0201
  115MOL     C336711   4.296   5.557   2.940  0.3882 -0.3450  0.5747
  115MOL     C436712   4.188   5.536   3.027 -0.1243  0.1043 -0.7197
  115MOL     C536713   4.067   5.488   2.974  0.0363 -0.5030  0.8026
  115MOL    Cl636714   3.942   5.457   3.092 -0.6155 -0.0072  0.1399
  115MOL     C736715   4.040   5.470   2.839 -0.5123 -0.0607  0.3889
  115MOL     C836716   4.153   5.490   2.752 -0.3062 -0.1297 -0.5054
  115MOL     C936717   4.427   5.474   2.609  0.3226  0.5753 -0.8669
  115MOL    H1036718   4.470   5.618   2.759 -2.1902  1.1596  1.5225
  115MOL    H1136719   4.389   5.598   2.976  1.6551  1.8381 -4.6739
  115MOL    H1236720   4.189   5.549   3.135  1.2934  1.2844 -0.8502
  115MOL    H1336721   3.946   5.427   2.809  0.6429  0.3165 -4.1579
  115MOL    H1436722   4.146   5.484   2.644 -0.8681  1.3053 -0.5616
  115MOL    H1536723   4.435   5.382   2.667  0.6488  1.9803  1.3764
  115MOL    H1636724   4.346   5.444   2.542 -0.6293 -0.1977  0.5916
  115MOL    H1736725   4.350   5.662   2.638 -1.0514 -1.1094 -0.7834
  115MOL    C1836726   4.568   5.491   2.550 -0.1817  0.4320 -0.4706
  115MOL    C1936727   4.632   5.368   2.477  0.3491  0.2573  0.0842
  115MOL    C2036728   4.591   5.339   2.347 -0.4041 -0.8786 -0.2325
  115MOL    C2136729   4.652   5.228   2.280  0.5674  0.0248  0.1787
  115MOL    C2236730   4.759   5.160   2.338  0.1873 -0.6439 -0.3435
  115MOL   Cl2336731   4.811   5.016   2.254  0.1024 -0.1019  0.0121
  115MOL    C2436732   4.811   5.196   2.462 -0.2750  0.8208  0.0780
  115MOL    C2536733   4.750   5.302   2.529 -0.3868  0.6102 -0.3715
  115MOL    C2636734   4.573   5.618   2.463  0.2856  0.5144  0.5768
  115MOL    H2736735   4.634   5.505   2.636 -1.6328  0.8288  0.5925
  115MOL    H2836736   4.514   5.400   2.302  1.6535  2.8711  1.0777
  115MOL    H2936737   4.615   5.194   2.184  2.2228 -1.4196  0.0290
  115MOL    H3036738   4.896   5.152   2.511 -0.8662  1.1185  1.4005
  115MOL    H3136739   4.793   5.330   2.624 -0.0247  0.6618 -0.5501
  115MOL    H3236740   4.496   5.618   2.386 -0.6423  0.4589  1.4844
  115MOL    H3336741   4.547   5.707   2.521  1.0760  1.6573 -0.8030
  115MOL    C3436742   4.709   5.640   2.397  0.5257  0.5237  0.9956
  115MOL    C3536743   4.693   5.744   2.280  0.8601  0.2109  0.4602
  115MOL    C3636744   4.702   5.696   2.147 -0.1655 -0.4441  0.3079
  115MOL    C3736745   4.671   5.779   2.037 -0.1390  0.9466 -0.3002
  115MOL    C3836746   4.625   5.911   2.055 -0.1289  0.2002 -0.4505
  115MOL   Cl3936747   4.586   6.017   1.918  0.3441  0.3593 -0.0617
  115MOL    C4036748   4.620   5.961   2.187  0.0346  0.3650 -0.2371
  115MOL    C4136749   4.658   5.880   2.295 -0.3443 -0.2904  0.3117
  115MOL    C4236750   4.816   5.689   2.498  0.2803  0.2370  0.2282
  115MOL    H4336751   4.758   5.550   2.361 -0.8122  0.5751 -1.0821
  115MOL    H4436752   4.730   5.595   2.118 -1.1002 -0.2287 -1.4816
  115MOL    H4536753   4.687   5.745   1.936 -0.7369 -2.7696  0.7584
  115MOL    H4636754   4.584   6.060   2.210 -0.5737 -0.1257  0.9420
  115MOL    H4736755   4.659   5.922   2.394  2.7547  0.8626 -0.1337
  115MOL    H4836756   4.775   5.761   2.568 -0.4519 -2.2910  2.4655
  115MOL    H4936757   4.840   5.598   2.553 -1.1434  1.0180  2.1702
  115MOL    C5036758   4.946   5.751   2.446 -0.1132 -0.4058 -0.2544
  115MOL    C5136759   5.032   5.819   2.550  0.1105 -0.1904  0.1394
  115MOL    C5236760   5.071   5.759   2.674  0.0709 -0.5556 -0.1371
  115MOL    C5336761   5.144   5.837   2.767  0.1820  0.2323  0.7057
  115MOL    C5436762   5.198   5.959   2.727 -0.1341 -0.6173  0.2925
  115MOL   Cl5536763   5.325   6.033   2.826  0.5088  0.1699 -0.0978
  115MOL    C5636764   5.169   6.014   2.608 -0.2009 -0.2747  0.6658
  115MOL    C5736765   5.077   5.951   2.527  0.1658  0.4143  0.7778
  115MOL    C5836766   5.039   5.651   2.365  0.0464  0.4942  0.2468
  115MOL    H5936767   4.911   5.831   2.382  2.6859  1.5611  0.5828
  115MOL    H6036768   5.030   5.663   2.703  1.7227 -1.6646 -1.3638
  115MOL    H6136769   5.172   5.785   2.858 -0.1244 -0.7238  0.2653
  115MOL    H6236770   5.219   6.107   2.584  1.2065 -0.9602  0.9196
  115MOL    H6336771   5.046   5.994   2.433  0.8004 -1.3287 -0.2474
  115MOL    H6436772   5.138   5.635   2.409  0.9514  0.1780 -1.8364
  115MOL    H6536773   4.987   5.556   2.369 -1.0199  1.0743  0.3356
  115MOL    C6636774   5.057   5.702   2.222  0.0917  0.4903  0.6311
  115MOL    C6736775   5.104   5.852   2.202  0.6924  0.2997 -0.1260
  115MOL    C6836776   5.023   5.943   2.131  1.4037  0.0439 -0.3628
  115MOL    C6936777   5.066   6.076   2.112  0.6331  0.6156  0.0346
  115MOL    C7036778   5.191   6.116   2.158 -0.2723 -0.2445  0.3416
  115MOL   Cl7136779   5.258   6.272   2.130 -0.3640  0.2217  0.0389
  115MOL    C7236780   5.271   6.024   2.224  0.4065 -0.1738 -0.0661
  115MOL    C7336781   5.228   5.895   2.248 -0.2171  0.2366  0.7840
  115MOL    C7436782   5.160   5.605   2.153  0.0915  0.8657  0.2759
  115MOL    H7536783   4.962   5.680   2.174 -0.6408  1.2020  1.7123
  115MOL    H7636784   4.920   5.913   2.116  1.2116  0.8752 -0.7666
  115MOL    H7736785   5.001   6.146   2.062  0.7650  0.4643 -0.3526
  115MOL    H7836786   5.366   6.052   2.267  0.1400  0.9069 -0.1647
  115MOL    H7936787   5.300   5.838   2.305  0.7017  1.5445  0.9560
  115MOL    H8036788   5.247   5.623   2.216  1.1851  1.2447 -1.3018
  115MOL    H8136789   5.129   5.501   2.160  2.0133  0.1878 -0.7340
  115MOL    C8236790   5.192   5.627   1.998  0.0670  0.2579 -0.4536
  115MOL    C8336791   5.333   5.602   1.966  0.4941 -0.7569  0.0052
  115MOL    C8436792   5.384   5.473   1.989 -1.2678 -0.3709 -0.2155
  115MOL    C8536793   5.519   5.446   1.962 -0.0026 -0.9539 -0.6569
  115MOL    C8636794   5.606   5.550   1.911 -0.1502  0.1108  0.1120
  115MOL   Cl8736795   5.762   5.515   1.861 -0.2757  0.3573  0.1830
  115MOL    C8836796   5.556   5.678   1.883 -0.3930  0.1527 -0.0439
  115MOL    C8936797   5.421   5.703   1.925 -0.8056 -0.4805 -0.1700
  115MOL    C9036798   5.101   5.541   1.905  0.2776  0.3317  0.1958
  115MOL    H9136799   5.159   5.729   1.977  0.2431  0.3043 -0.5019
  115MOL    H9236800   5.320   5.403   2.040  0.7112 -1.2704  1.0951
  115MOL    H9336801   5.558   5.346   1.972  0.2764 -0.9927 -2.0068
  115MOL    H9436802   5.619   5.754   1.838 -0.1169 -0.0008  0.0860
  115MOL    H9536803   5.386   5.801   1.897 -0.6146 -1.2046 -3.0924
  115MOL    H9636804   5.100   5.435   1.931  1.0135  0.1310 -0.5577
  115MOL    H9736805   5.001   5.577   1.928 -0.1972 -0.2264 -0.9373
  115MOL    C9836806   5.119   5.555   1.748 -0.2841 -0.1704  0.2236
  115MOL    C9936807   5.245   5.497   1.686  0.0283 -1.1967 -0.3171
  115MOL   C10036808   5.344   5.573   1.623 -0.1265 -0.3453 -0.3392
  115MOL   C10136809   5.457   5.506   1.568  0.4241 -0.8441  0.1665
  115MOL   C10236810   5.460   5.366   1.569  0.2508  0.5453  0.0657
  115MOL  Cl10336811   5.587   5.274   1.494 -0.3318 -0.3514 -0.3669
  115MOL   C10436812   5.365   5.288   1.642  0.0942 -0.3914  0.0182
  115MOL   C10536813   5.256   5.360   1.696  0.2723 -0.3357 -0.0707
  115MOL   C10636814   4.989   5.498   1.674  0.0281 -0.7864 -1.0718
  115MOL   H10736815   5.132   5.661   1.728  1.2071 -0.4085 -0.1545
  115MOL   H10836816   5.325   5.679   1.615  1.4352 -0.1382 -1.8957
  115MOL   H10936817   5.529   5.561   1.510  0.8096 -0.8844  0.5957
  115MOL   H11036818   5.369   5.182   1.662 -1.9403 -0.6880 -0.9877
  115MOL   H11136819   5.189   5.293   1.748 -0.2134  0.3910  0.2475
  115MOL   H11236820   4.969   5.399   1.715  0.5626  0.3205  2.0162
  115MOL   H11336821   4.902   5.554   1.710  1.7326  2.5605 -2.0287
  115MOL   C11436822   4.990   5.470   1.524  0.2814  0.0219 -0.3430
  115MOL   C11536823   4.850   5.415   1.484 -0.5614  0.0298  0.3192
  115MOL   C11636824   4.736   5.496   1.467 -0.3828  0.4347 -0.3524
  115MOL   C11736825   4.611   5.442   1.427  0.2442 -0.2804 -0.7481
  115MOL   C11836826   4.597   5.297   1.421  0.3126 -0.1279  0.1590
  115MOL  Cl11936827   4.442   5.230   1.385 -0.2036 -0.1257 -0.2667
  115MOL   C12036828   4.710   5.219   1.435 -0.2406  0.1060  1.4133
  115MOL   C12136829   4.835   5.278   1.465 -0.3387 -0.3848  0.1243
  115MOL   C12236830   5.028   5.595   1.439  0.0980  0.5433 -0.2361
  115MOL   H12336831   5.071   5.398   1.511  0.0269 -0.2992 -0.1518
  115MOL   H12436832   4.742   5.603   1.477 -0.5982  0.4428 -0.3281
  115MOL   H12536833   4.524   5.501   1.402  0.8042  0.6049 -0.6389
  115MOL   H12636834   4.702   5.112   1.424 -0.1016  0.1856  0.5793
  115MOL   H12736835   4.923   5.215   1.467  0.0765  0.2024  0.3765
  115MOL   H12836836   4.960   5.677   1.461 -0.6383  0.8600 -3.4568
  115MOL   H12936837   5.127   5.630   1.468  0.3650 -1.8112  1.8068
  115MOL   C13036838   5.027   5.561   1.290  0.2640  0.7366  0.1919
  115MOL   C13136839   4.966   5.680   1.225  0.5399  0.3706 -0.5614
  115MOL   C13236840   5.028   5.811   1.213 -0.1516  0.2507  0.4598
  115MOL   C13336841   4.971   5.912   1.139 -0.2994 -0.1584 -0.3201
  115MOL   C13436842   4.855   5.889   1.067 -0.0425  0.4544  0.8328
  115MOL  Cl13536843   4.782   5.997   0.948  0.2167 -0.3765  0.0469
  115MOL   C13636844   4.784   5.766   1.085  0.3873  0.0127 -0.1185
  115MOL   C13736845   4.840   5.670   1.168  0.4502  0.0254 -0.2227
  115MOL   C13836846   5.163   5.526   1.235  0.6015  0.4675  0.0729
  115MOL   H13936847   4.957   5.480   1.271 -1.1711  1.7861  0.9200
  115MOL   H14036848   5.123   5.826   1.261  0.5236  0.6640 -0.9755
  115MOL   H14136849   5.027   6.003   1.123  0.4949 -0.9727 -2.3391
  115MOL   H14236850   4.687   5.751   1.040 -0.2343  0.1666  1.1621
  115MOL   H14336851   4.787   5.578   1.188 -0.3132 -0.0330 -2.4083
  115MOL   H14436852   5.228   5.614   1.231 -0.1853  1.0746  0.5778
  115MOL   H14536853   5.211   5.468   1.313  3.8297  1.7861 -0.8284
  115MOL   C14636854   5.165   5.451   1.105  0.5470 -0.3726  0.1242
  115MOL   C14736855   5.122   5.532   0.985  0.5460 -0.2773 -0.3774
  115MOL   C14836856   5.001   5.497   0.917  0.4496 -0.2257  0.0582
  115MOL   C14936857   4.968   5.563   0.798 -0.9284  0.3321 -0.2627
  115MOL   C15036858   5.045   5.668   0.742 -0.0489  0.2609 -0.5767
  115MOL  Cl15136859   5.006   5.749   0.596  0.3018  0.1117  0.4556
  115MOL   C15236860   5.172   5.696   0.801  0.7030 -0.5881 -0.6690
  115MOL   C15336861   5.206   5.634   0.925 -0.4729 -0.8171 -0.8645
  115MOL   C15436862   5.305   5.381   1.072 -0.3511 -0.7295 -0.6088
  115MOL   H15536863   5.091   5.372   1.118  0.9987 -0.3789  2.9819
  115MOL   H15636864   4.945   5.410   0.948 -0.9352  0.6565  0.0606
  115MOL   H15736865   4.874   5.538   0.751 -0.8478 -3.9361  1.6046
  115MOL   H15836866   5.230   5.780   0.766 -2.4295  2.1413  0.4261
  115MOL   H15936867   5.299   5.659   0.973 -0.1818 -1.9766 -0.8104
  115MOL   H16036868   5.308   5.360   0.965 -2.3264  1.1038 -1.0448
  115MOL   H16136869   5.387   5.452   1.080 -0.1899 -1.2287  3.0801
  115MOL   C16236870   5.346   5.261   1.155 -0.0730  0.7344 -0.1182
  115MOL   C16336871   5.236   5.157   1.197 -0.4267 -0.1398  0.2783
  115MOL   C16436872   5.236   5.104   1.330  0.2851  0.4592 -0.7008
  115MOL   C16536873   5.128   5.027   1.371 -0.2602  0.1270  0.4912
  115MOL   C16636874   5.034   4.983   1.279  0.4135 -0.2259  0.8915
  115MOL  Cl16736875   4.916   4.872   1.329  0.3875  0.2514  0.6295
  115MOL   C16836876   5.046   5.016   1.141 -0.0610 -0.1573  0.5979
  115MOL   C16936877   5.143   5.109   1.100 -0.0886  1.1242  0.5448
  115MOL   C17036878   5.480   5.189   1.116 -0.6519 -0.0180  0.4400
  115MOL   H17136879   5.369   5.308   1.250 -1.1104  0.4383  0.2795
  115MOL   H17236880   5.309   5.146   1.398  0.0679  1.8118 -1.3047
  115MOL   H17336881   5.128   4.987   1.471  0.5033 -2.9791 -0.6996
  115MOL   H17436882   4.982   4.969   1.068  1.5415  2.0361 -2.3111
  115MOL   H17536883   5.155   5.143   0.998 -0.4826 -1.2104 -0.2941
  115MOL   H17636884   5.557   5.259   1.147 -0.3745  0.3696 -1.0764
  115MOL   H17736885   5.484   5.099   1.177 -0.6469  0.5653  1.3041
  115MOL   C17836886   5.492   5.151   0.967 -0.4748  0.4266 -0.3963
  115MOL   C17936887   5.512   5.262   0.862 -0.2594 -0.6595  1.0134
  115MOL   C18036888   5.597   5.374   0.892  0.3584 -0.2803  0.3485
  115MOL   C18136889   5.603   5.485   0.801  0.0866  0.3338 -0.4649
  115MOL   C18236890   5.533   5.482   0.681 -0.3678  0.9385 -0.9616
  115MOL  Cl18336891   5.541   5.602   0.562  0.4212 -0.2872  0.2724
  115MOL   C18436892   5.462   5.370   0.649  0.4152 -0.0295  0.4683
  115MOL   C18536893   5.453   5.261   0.736  0.4804 -0.1153  0.4087
  115MOL   C18636894   5.590   5.039   0.936  0.3939 -0.2504  0.7077
  115MOL   H18736895   5.390   5.121   0.940 -0.4771  1.0026 -1.0683
  115MOL   H18836896   5.646   5.372   0.988 -1.4115 -0.4772  1.2589
  115MOL   H18936897   5.664   5.569   0.830 -0.1823 -0.1280  1.5170
  115MOL   H19036898   5.408   5.378   0.556  2.9879 -0.1122 -1.0604
  115MOL   H19136899   5.385   5.183   0.703  0.2895  0.5747 -0.8763
  115MOL   H19236900   5.647   5.052   0.845  0.2081 -0.6551  0.5311
  115MOL   H19336901   5.652   5.040   1.025 -0.4568  1.5527  1.3101
  115MOL   C19436902   5.528   4.903   0.917  0.1246 -0.0271 -0.1746
  115MOL   C19536903   5.438   4.880   0.798 -0.3793  0.3580  0.4559
  115MOL   C19636904   5.301   4.845   0.820  0.3238  0.2959  0.3178
  115MOL   C19736905   5.219   4.816   0.706 -0.5178 -0.0915 -0.4363
  115MOL   C19836906   5.266   4.825   0.574  0.4320 -0.1503 -0.4753
  115MOL  Cl19936907   5.163   4.792   0.438  0.0476 -0.1947 -0.3440
  115MOL   C20036908   5.400   4.857   0.555 -0.6829  0.0507  0.4965
  115MOL   C20136909   5.485   4.888   0.664  0.1306 -0.1067 -0.1235
  115MOL   C20236910   5.627   4.792   0.929  0.0243 -0.0766  0.2444
  115MOL   H20336911   5.454   4.892   0.996 -0.6830  0.5821 -0.8280
  115MOL   H20436912   5.270   4.828   0.922  0.5846 -1.8135  0.0646
  115MOL   H20536913   5.114   4.790   0.707 -1.0194  1.8785 -1.0237
  115MOL   H20636914   5.438   4.855   0.454 -0.7227  0.9901  0.4532
  115MOL   H20736915   5.590   4.898   0.637 -0.0813  0.0171 -0.9032
  115MOL   H20836916   5.589   4.700   0.884 -0.1230  0.7756 -1.4247
  115MOL   H20936917   5.710   4.814   0.862  0.2825 -1.6996  0.0018
  115MOL   C21036918   5.687   4.775   1.064  0.4195 -0.1262 -0.4965
  115MOL   C21136919   5.585   4.765   1.177 -0.2321 -0.4105 -0.8088
  115MOL   C21236920   5.606   4.834   1.303  0.8202 -0.0244 -0.6677
  115MOL   C21336921   5.508   4.828   1.403 -0.0422  0.3813  0.2645
  115MOL   C21436922   5.391   4.752   1.381 -0.1657 -0.4596  0.9664
  115MOL  Cl21536923   5.271   4.746   1.493  0.5178 -0.2649 -0.0151
  115MOL   C21636924   5.368   4.681   1.260 -0.4135 -0.2122  0.1643
  115MOL   C21736925   5.470   4.687   1.162 -0.2300  0.1854  0.2135
  115MOL   C21836926   5.772   4.643   1.080 -0.0645 -0.4462 -0.4709
  115MOL   H21936927   5.752   4.858   1.092 -0.1723 -0.8628  3.4238
  115MOL   H22036928   5.694   4.895   1.314  1.1485 -0.3955 -1.1900
  115MOL   H22136929   5.523   4.869   1.502 -1.8378  0.0882  0.6784
  115MOL   H22236930   5.285   4.613   1.251  1.5169 -2.6465  0.3087
  115MOL   H22336931   5.477   4.614   1.083  1.7845  1.8936 -1.2501
  115MOL   H22436932   5.810   4.639   1.182 -2.2733 -1.2109  0.3526
  115MOL   H22536933   5.708   4.557   1.063  0.9981 -1.1371 -1.0559
  115MOL   C22636934   5.889   4.636   0.982 -0.7675  0.5170  0.0673
  115MOL   C22736935   5.984   4.756   1.001 -0.2686 -0.0414 -0.5733
  115MOL   C22836936   6.025   4.842   0.892  0.0612  0.9067  0.4641
  115MOL   C22936937   6.098   4.960   0.914 -0.2262  0.3314  0.0971
  115MOL   C23036938   6.153   4.993   1.037 -0.2276  0.1710 -0.1972
  115MOL  Cl23136939   6.253   5.131   1.058  0.4226  0.1618 -0.2468
  115MOL   C23236940   6.123   4.910   1.140  0.2088 -0.1512  0.2660
  115MOL   C23336941   6.035   4.799   1.123  0.1484  0.0205 -0.4752
  115MOL   C23436942   5.971   4.503   0.980 -0.2356  0.4442 -0.6330
  115MOL   H23536943   5.843   4.633   0.883  0.7429  0.9541 -0.6599
  115MOL   H23636944   5.981   4.819   0.796  0.1710  1.3040  0.3152
  115MOL   H23736945   6.134   5.021   0.832  2.3191 -2.5278 -1.0003
  115MOL   H23836946   6.157   4.947   1.235 -1.7450  3.0541 -0.2385
  115MOL   H23936947   6.017   4.742   1.213  2.3224  0.9001  0.5628
  115MOL   H24036948   6.057   4.515   1.046  1.1123 -0.7013 -2.1411
  115MOL   H24136949   5.908   4.433   1.034 -0.6984  2.1703  1.1363
  115MOL   C24236950   5.992   4.441   0.840  0.1909  0.6548  0.0213
  115MOL   C24336951   6.071   4.529   0.748  0.5644  0.1116  0.7907
  115MOL   C24436952   6.190   4.594   0.800  0.1133  0.7708  0.1914
  115MOL   C24536953   6.265   4.677   0.713 -0.2946 -0.4162  0.3074
  115MOL   C24636954   6.221   4.699   0.582 -0.3570  0.3825  0.3155
  115MOL  Cl24736955   6.308   4.818   0.490 -0.0317  0.5425 -0.2634
  115MOL   C24836956   6.100   4.653   0.533 -0.6163 -0.0107  0.4511
  115MOL   C24936957   6.028   4.561   0.616  0.1793  0.7156  0.2115
  115MOL   C25036958   6.059   4.301   0.853 -0.0423 -0.2558 -0.2248
  115MOL   H25136959   5.898   4.438   0.785  0.6874 -0.2960 -0.8128
  115MOL   H25236960   6.221   4.581   0.902  0.7752 -1.4032 -0.2485
  115MOL   H25336961   6.355   4.720   0.753 -0.6057 -0.1685  0.7338
  115MOL   H25436962   6.062   4.690   0.439 -0.4087 -1.2534 -0.1363
  115MOL   H25536963   5.933   4.522   0.580  0.4227  0.9497 -0.7066
  115MOL   H25636964   6.154   4.303   0.906 -0.1473 -1.8134  0.0456
  115MOL   H25736965   5.999   4.233   0.913 -0.2730 -0.4770 -0.7007
  115MOL   C25836966   6.063   4.212   0.723 -0.1942  0.3370 -0.1746
  115MOL   C25936967   6.139   4.083   0.750 -0.0513  0.5539  0.5097
  115MOL   C26036968   6.253   4.050   0.675  0.2935  0.1098 -0.1624
  115MOL   C26136969   6.322   3.928   0.696  0.2773 -0.1291 -0.7069
  115MOL   C26236970   6.284   3.848   0.807  0.4529  0.3517 -0.3125
  115MOL  Cl26336971   6.374   3.705   0.837  0.0519  0.7171  0.1715
  115MOL   C26436972   6.160   3.876   0.883 -0.3428  0.0489  0.3533
  115MOL   C26536973   6.093   3.998   0.852  0.1114  0.1741 -0.3856
  115MOL   C26636974   5.926   4.175   0.665 -0.1584  0.2903 -0.0079
  115MOL   H26736975   6.123   4.257   0.644 -2.0612  0.3009 -1.6426
  115MOL   H26836976   6.297   4.108   0.595 -1.6583  1.1719 -0.5123
  115MOL   H26936977   6.409   3.885   0.648  0.2635  1.8165 -2.5086
  115MOL   H27036978   6.126   3.820   0.969  0.5217  0.1836  0.7969
  115MOL   H27136979   6.004   4.022   0.908 -1.4770  0.8365 -3.1089
  115MOL   H27236980   5.855   4.150   0.743 -2.0775  0.7729 -1.5595
  115MOL   H27336981   5.892   4.267   0.619 -1.0768  0.5671  1.2234
  115MOL   C27436982   5.919   4.055   0.571  0.3378 -0.7034  0.5574
  115MOL   C27536983   5.831   3.944   0.637 -0.0853 -0.4205 -0.3484
  115MOL   C27636984   5.880   3.817   0.663 -0.2687  0.3067 -0.4134
  115MOL   C27736985   5.793   3.712   0.711  0.5448  0.1200 -0.0342
  115MOL   C27836986   5.660   3.750   0.749  0.3232  0.3449 -0.6152
  115MOL  Cl27936987   5.560   3.633   0.813 -0.0580 -0.0349 -0.2131
  115MOL   C28036988   5.615   3.883   0.736 -0.2868 -0.9367  0.4726
  115MOL   C28136989   5.695   3.973   0.663  0.1431  0.0256  0.0931
  115MOL   C28236990   5.861   4.080   0.431  0.3258  0.0019  0.1173
  115MOL   H28336991   6.020   4.015   0.557 -0.0510 -1.7672  0.6992
  115MOL   H28436992   5.985   3.794   0.656  0.0923  1.1120  1.7234
  115MOL   H28536993   5.831   3.612   0.725  0.2257  0.2797  2.1935
  115MOL   H28636994   5.515   3.911   0.765 -0.1680 -0.4909  0.4627
  115MOL   H28736995   5.644   4.064   0.634 -2.7678 -1.7860 -0.6577
  115MOL   H28836996   5.823   3.991   0.381 -0.6860 -0.2087  1.2353
  115MOL   H28936997   5.760   4.113   0.454 -0.3282 -2.1499  0.4340
  115MOL   C29036998   5.946   4.174   0.344  0.3044 -0.0578 -0.1369
  115MOL   C29136999   6.085   4.123   0.303  0.1911  0.4983  0.3797
  115MOL   C29237000   6.201   4.196   0.322 -0.9181  0.7778  0.3361
  115MOL   C29337001   6.326   4.153   0.276  0.0609 -0.0276 -0.9014
  115MOL   C29437002   6.339   4.021   0.225 -0.3858 -0.3934  0.3801
  115MOL  Cl29537003   6.498   3.981   0.173  0.0695  0.2991  0.0737
  115MOL   C29637004   6.221   3.948   0.206  0.1159 -0.1295  0.2740
  115MOL   C29737005   6.096   3.995   0.238 -0.5237 -0.2446 -0.3048
  115MOL   C29837006   5.855   4.240   0.241  0.4224  0.5388 -0.6150
  115MOL   H29937007   5.976   4.252   0.414 -0.6534  0.9601 -0.8295
  115MOL   H30037008   6.191   4.297   0.359  0.7455  1.1048 -0.0499
  115MOL   H30137009   6.413   4.216   0.284  1.0467 -1.5659  1.2898
  115MOL   H30237010   6.239   3.849   0.166  1.9770  0.3060 -0.0184
  115MOL   H30337011   6.009   3.935   0.217  0.8018 -2.2875 -0.0806
  115MOL   H30437012   5.822   4.162   0.173 -0.3125  0.3299 -0.0362
  115MOL   H30537013   5.760   4.278   0.281 -0.4423 -1.4184 -0.7618
  115MOL   C30637014   5.915   4.347   0.153  0.2147 -0.3179  0.2172
  115MOL   C30737015   5.799   4.395   0.059 -0.7465 -0.1040  0.1801
  115MOL   C30837016   5.706   4.496   0.099  0.4045 -0.0591 -0.0951
  115MOL   C30937017   5.602   4.537   0.016  0.4177 -0.5271 -0.6194
  115MOL   C31037018   5.596   4.484   8.330 -0.0920 -0.0412 -0.5210
  115MOL  Cl31137019   5.480   4.546   8.228 -0.0572 -0.0838 -0.3145
  115MOL   C31237020   5.684   4.380   8.287 -0.3735  0.2793  0.3057
  115MOL   C31337021   5.784   4.338   8.373 -0.7164  0.4111 -0.5684
  115MOL   C31437022   5.974   4.469   0.232 -0.3477  0.2130  0.5612
  115MOL   H31537023   5.983   4.291   0.090  0.1909 -0.8005  0.6206
  115MOL   H31637024   5.722   4.561   0.184  1.8268  4.1382 -3.4042
  115MOL   H31737025   5.534   4.615   0.046  1.0966 -0.9889  2.2671
  115MOL   H31837026   5.688   4.336   8.188  0.1234  0.6604  0.1499
  115MOL   H31937027   5.865   4.271   8.347  0.7797  2.1220 -0.4348
  115MOL   H32037028   6.010   4.542   0.159  1.8671  0.4665  1.8659
  115MOL   H32137029   5.892   4.516   0.285 -2.0681 -1.7700 -0.2583
  115MOL   H32237030   6.053   4.432   0.296 -1.5252  0.3483  2.1150
  116MOL     C137031   1.674   5.377   2.678 -0.4533  0.5329 -0.3666
  116MOL     C237032   1.722   5.452   2.558  0.5440 -0.5861 -0.8491
  116MOL     C337033   1.626   5.536   2.504 -0.1494  0.1062  0.2050
  116MOL     C437034   1.671   5.627   2.401 -0.0414  0.2674 -0.1747
  116MOL     C537035   1.800   5.625   2.351  0.0827 -0.5848  0.5728
  116MOL    Cl637036   1.840   5.753   2.240 -0.1553 -0.1874 -0.3154
  116MOL     C737037   1.889   5.532   2.403 -0.3485  0.0716  0.4350
  116MOL     C837038   1.851   5.447   2.505 -0.1312 -0.3311 -0.6017
  116MOL     C937039   1.735   5.239   2.695 -0.1352 -0.5607 -0.8419
  116MOL    H1037040   1.565   5.368   2.673 -0.4505 -0.8451  1.5072
  116MOL    H1137041   1.521   5.534   2.531 -0.6107  2.1946 -1.2678
  116MOL    H1237042   1.600   5.696   2.358 -2.3542 -0.7101  1.9374
  116MOL    H1337043   1.990   5.535   2.363 -0.8300 -0.0717 -0.8361
  116MOL    H1437044   1.928   5.379   2.541  1.1569  0.7212 -1.3278
  116MOL    H1537045   1.764   5.210   2.594 -2.4099 -3.0861 -0.8040
  116MOL    H1637046   1.827   5.261   2.750 -0.3008  1.5907 -1.3661
  116MOL    H1737047   1.698   5.449   2.756  2.8710  0.2876 -1.0941
  116MOL    C1837048   1.642   5.134   2.762  0.0893  0.2272 -0.0648
  116MOL    C1937049   1.606   5.158   2.903  0.1577 -0.2140 -0.3733
  116MOL    C2037050   1.510   5.257   2.942 -0.0761 -0.1751 -0.1499
  116MOL    C2137051   1.475   5.262   3.076  0.3796  0.1748 -1.1461
  116MOL    C2237052   1.532   5.177   3.168 -0.0852 -0.0898 -0.6169
  116MOL   Cl2337053   1.477   5.178   3.336 -0.2961 -0.1431  0.4629
  116MOL    C2437054   1.628   5.085   3.132 -0.3892  0.8050  0.6332
  116MOL    C2537055   1.666   5.078   2.998 -0.2246 -0.0384  0.3941
  116MOL    C2637056   1.510   5.092   2.684  0.0977  0.3937 -0.8999
  116MOL    H2737057   1.697   5.040   2.757  0.9534  0.6981  0.3194
  116MOL    H2837058   1.479   5.333   2.871 -1.6740  0.7183  1.4832
  116MOL    H2937059   1.416   5.348   3.105 -0.6311 -0.0387 -2.5492
  116MOL    H3037060   1.682   5.025   3.204 -0.3606  1.1935  0.9330
  116MOL    H3137061   1.742   5.006   2.972 -1.6026 -0.7718 -1.6400
  116MOL    H3237062   1.454   5.010   2.729  0.3632  0.8054  0.1733
  116MOL    H3337063   1.430   5.164   2.699  1.1062  1.3639 -0.1527
  116MOL    C3437064   1.512   5.050   2.536  0.6624  0.2504 -0.4512
  116MOL    C3537065   1.414   4.935   2.505 -0.1227 -0.6314  0.9655
  116MOL    C3637066   1.278   4.936   2.547  0.5284 -0.1597 -0.0445
  116MOL    C3737067   1.192   4.825   2.511  0.7480 -0.1420 -0.1028
  116MOL    C3837068   1.251   4.712   2.449 -0.1727 -0.2825 -0.2646
  116MOL   Cl3937069   1.162   4.572   2.414  0.6736  0.1695 -0.0582
  116MOL    C4037070   1.388   4.709   2.414  0.7307  0.0028 -0.1155
  116MOL    C4137071   1.461   4.825   2.432 -0.1709  1.0356 -0.2019
  116MOL    C4237072   1.484   5.174   2.447 -1.4426  0.6463 -0.1240
  116MOL    H4337073   1.608   5.004   2.511 -0.3458 -0.9560 -2.2639
  116MOL    H4437074   1.243   5.027   2.592  0.3398  0.6687 -1.8076
  116MOL    H4537075   1.090   4.829   2.546  0.1296 -0.5242 -1.8272
  116MOL    H4637076   1.425   4.618   2.368  1.7127  0.2115  0.2558
  116MOL    H4737077   1.562   4.813   2.396  0.5588  3.1959  1.0414
  116MOL    H4837078   1.388   5.210   2.485  0.1608  3.0339  1.8154
  116MOL    H4937079   1.565   5.246   2.452  0.3643 -1.3503  0.3948
  116MOL    C5037080   1.456   5.143   2.296  0.4825 -0.8483 -0.5747
  116MOL    C5137081   1.388   5.265   2.236  0.7201  0.7459 -0.2470
  116MOL    C5237082   1.265   5.246   2.174  0.4355  0.5847 -0.4043
  116MOL    C5337083   1.199   5.356   2.127 -0.1475  0.1806  0.2904
  116MOL    C5437084   1.254   5.484   2.142 -0.1373 -0.3465 -0.0380
  116MOL   Cl5537085   1.170   5.629   2.083 -0.0304 -0.1600 -0.0505
  116MOL    C5637086   1.384   5.499   2.189 -0.2957 -0.2993 -0.5501
  116MOL    C5737087   1.450   5.386   2.236  0.3402 -0.1778 -0.5164
  116MOL    C5837088   1.591   5.105   2.231 -0.3397 -0.2631  0.5546
  116MOL    H5937089   1.394   5.055   2.282 -0.8139 -0.2772  1.3527
  116MOL    H6037090   1.209   5.154   2.166  0.5621  0.6426 -2.0531
  116MOL    H6137091   1.102   5.348   2.082  0.5564 -2.5133 -0.8601
  116MOL    H6237092   1.442   5.590   2.181 -0.1155 -0.3634  0.0027
  116MOL    H6337093   1.546   5.397   2.285  0.2327 -0.9066 -0.1184
  116MOL    H6437094   1.662   5.185   2.253 -1.0187  0.3272  0.5917
  116MOL    H6537095   1.633   5.019   2.284  1.4905  0.7146  0.7260
  116MOL    C6637096   1.596   5.077   2.072 -0.1241 -0.3738 -0.2137
  116MOL    C6737097   1.642   5.202   2.002 -0.1385 -0.1464 -0.4464
  116MOL    C6837098   1.770   5.253   2.017  0.2101  0.0012 -0.1035
  116MOL    C6937099   1.814   5.370   1.952 -0.6805 -0.3081  0.1216
  116MOL    C7037100   1.719   5.441   1.869  0.4022  0.6112  0.4152
  116MOL   Cl7137101   1.756   5.591   1.795 -0.2815 -0.0329 -0.0648
  116MOL    C7237102   1.589   5.386   1.857  0.1666  0.1910  0.0659
  116MOL    C7337103   1.553   5.268   1.921  0.0894 -0.4295 -0.4143
  116MOL    C7437104   1.667   4.951   2.014 -0.5198  0.5668  0.6625
  116MOL    H7537105   1.491   5.065   2.046  0.1458  1.5901 -2.3792
  116MOL    H7637106   1.837   5.212   2.091 -0.1699  1.7663  1.2618
  116MOL    H7737107   1.912   5.411   1.968  0.4816 -2.8895 -0.2291
  116MOL    H7837108   1.523   5.449   1.800  1.7113  1.8079 -0.0080
  116MOL    H7937109   1.451   5.233   1.918 -0.1056 -0.0582  1.4720
  116MOL    H8037110   1.662   4.945   1.905  0.4321 -1.2216  0.6983
  116MOL    H8137111   1.774   4.951   2.035 -0.5543 -0.4630  0.8487
  116MOL    C8237112   1.595   4.824   2.059 -0.1119  0.2269  0.2903
  116MOL    C8337113   1.456   4.818   1.993  0.0295  0.1775  0.0190
  116MOL    C8437114   1.433   4.804   1.853  0.2062  0.0057  0.6912
  116MOL    C8537115   1.301   4.826   1.800 -0.3305  0.1781 -0.1811
  116MOL    C8637116   1.196   4.852   1.891  0.4428  0.7102 -0.0669
  116MOL   Cl8737117   1.037   4.868   1.817  0.1125  0.1272  0.0359
  116MOL    C8837118   1.212   4.870   2.028  0.4303  0.0205  0.1361
  116MOL    C8937119   1.346   4.851   2.074  0.2217  0.9475 -0.1111
  116MOL    C9037120   1.672   4.691   2.023  0.0526 -1.0577 -0.0089
  116MOL    H9137121   1.580   4.824   2.167 -0.8417 -1.4599  0.2087
  116MOL    H9237122   1.514   4.776   1.788  0.6060  1.3815  0.5769
  116MOL    H9337123   1.291   4.825   1.692 -2.2573  1.2044 -0.0174
  116MOL    H9437124   1.134   4.892   2.100  2.5830 -1.8991  3.2066
  116MOL    H9537125   1.354   4.871   2.180  0.4819 -0.8690  0.2279
  116MOL    H9637126   1.668   4.675   1.916 -0.8846  3.9831 -0.8367
  116MOL    H9737127   1.777   4.711   2.043 -0.6433  0.9647  1.9049
  116MOL    C9837128   1.637   4.558   2.104 -0.2367 -0.3843 -0.8537
  116MOL    C9937129   1.545   4.475   2.023 -0.7320 -0.2238 -0.8953
  116MOL   C10037130   1.432   4.421   2.087 -0.2046 -0.3897 -0.7983
  116MOL   C10137131   1.345   4.333   2.017  0.4280 -0.2003 -1.1142
  116MOL   C10237132   1.372   4.300   1.881 -0.4330  0.6574  1.2305
  116MOL  Cl10337133   1.274   4.183   1.803 -0.2071 -0.1189  0.0793
  116MOL   C10437134   1.484   4.366   1.815 -0.2803 -0.2022  0.1145
  116MOL   C10537135   1.577   4.445   1.885 -0.1095  0.5985 -0.0540
  116MOL   C10637136   1.763   4.479   2.143 -0.3802 -0.3374  0.5675
  116MOL   H10737137   1.584   4.595   2.192 -1.8091  0.1740 -2.0140
  116MOL   H10837138   1.410   4.455   2.187  0.5541  0.1770 -0.8189
  116MOL   H10937139   1.252   4.293   2.054 -0.0457 -1.1559 -3.2498
  116MOL   H11037140   1.487   4.342   1.710 -0.2916 -1.9992  0.5129
  116MOL   H11137141   1.670   4.471   1.838 -1.0923  1.3772 -1.6355
  116MOL   H11237142   1.753   4.372   2.124 -0.2390  0.1381 -2.2922
  116MOL   H11337143   1.853   4.508   2.091 -1.1419  0.8287 -0.1079
  116MOL   C11437144   1.797   4.498   2.292 -0.1598 -0.3633  0.2601
  116MOL   C11537145   1.688   4.448   2.393  0.1247  0.0910  0.1542
  116MOL   C11637146   1.651   4.315   2.390  0.1045 -0.0954 -0.2578
  116MOL   C11737147   1.566   4.252   2.483 -0.7505  0.0364  0.5049
  116MOL   C11837148   1.522   4.336   2.590 -0.0355 -0.5527  0.3366
  116MOL  Cl11937149   1.430   4.273   2.717  0.1098  0.0979 -0.1166
  116MOL   C12037150   1.565   4.470   2.605  0.0485  0.3200 -0.0085
  116MOL   C12137151   1.638   4.528   2.500  0.4713  0.0642 -0.3357
  116MOL   C12237152   1.931   4.430   2.324 -0.1052 -0.0087  0.3122
  116MOL   H12337153   1.810   4.604   2.313 -0.2062 -0.4136  0.5448
  116MOL   H12437154   1.705   4.252   2.321  1.8723 -0.0042  1.0104
  116MOL   H12537155   1.535   4.149   2.474  1.9350 -0.7492 -0.1013
  116MOL   H12637156   1.541   4.536   2.687 -0.9884  0.5685 -0.5006
  116MOL   H12737157   1.678   4.627   2.515  0.5757  0.1151 -0.9356
  116MOL   H12837158   1.946   4.429   2.432 -1.1463 -1.0216  0.4565
  116MOL   H12937159   1.929   4.323   2.305 -0.2619 -0.3706  2.2862
  116MOL   C13037160   2.057   4.496   2.245  0.1858  0.1720 -0.4032
  116MOL   C13137161   2.055   4.651   2.276  0.4105  0.8013 -0.2563
  116MOL   C13237162   2.056   4.743   2.170  0.7619 -0.1738 -0.6776
  116MOL   C13337163   2.069   4.879   2.195  0.2600 -0.0806 -0.2948
  116MOL   C13437164   2.078   4.918   2.329  0.5033 -0.5855 -0.1424
  116MOL  Cl13537165   2.084   5.089   2.362 -0.2876 -0.2713 -0.2222
  116MOL   C13637166   2.072   4.825   2.436 -0.4029  0.8946  0.0012
  116MOL   C13737167   2.049   4.689   2.413 -0.6455 -0.4974  0.4253
  116MOL   C13837168   2.194   4.434   2.286  0.1562  0.9690 -0.1614
  116MOL   H13937169   2.051   4.483   2.137  0.7553  2.6625 -0.7772
  116MOL   H14037170   2.036   4.714   2.068  0.7288 -2.0131 -0.1775
  116MOL   H14137171   2.057   4.950   2.115  0.4679 -0.5448 -0.7419
  116MOL   H14237172   2.064   4.859   2.538  0.9535  0.5398  0.2328
  116MOL   H14337173   2.051   4.624   2.499  2.2662 -1.1502 -0.0659
  116MOL   H14437174   2.278   4.469   2.226 -0.0816  2.8363  0.5765
  116MOL   H14537175   2.218   4.453   2.391 -0.3599 -0.9260  0.3293
  116MOL   C14637176   2.207   4.273   2.281  0.0795 -0.1039 -0.0255
  116MOL   C14737177   2.163   4.230   2.141 -0.4835  0.0728 -0.7671
  116MOL   C14837178   2.245   4.256   2.031 -0.0446  0.0821  0.6440
  116MOL   C14937179   2.206   4.220   1.900 -0.1617 -0.3695 -0.9275
  116MOL   C15037180   2.078   4.157   1.885  0.3599  0.0437  0.4028
  116MOL  Cl15137181   2.021   4.100   1.740 -0.0188 -0.0781 -0.3057
  116MOL   C15237182   1.995   4.142   1.993  0.2751 -0.0166  0.1819
  116MOL   C15337183   2.039   4.174   2.119 -0.0949 -0.0863 -0.8454
  116MOL   C15437184   2.342   4.212   2.337  0.7734  1.0035  0.6104
  116MOL   H15537185   2.126   4.225   2.336  0.4179 -1.3902 -0.6291
  116MOL   H15637186   2.343   4.300   2.043 -0.9472  2.1746  0.6365
  116MOL   H15737187   2.275   4.232   1.817  0.7250 -0.7120 -0.2470
  116MOL   H15837188   1.899   4.095   1.980 -0.2197  1.0040  0.0708
  116MOL   H15937189   1.975   4.153   2.204  0.8118  2.1422  0.4351
  116MOL   H16037190   2.308   4.184   2.437 -0.8691  0.1162 -0.1617
  116MOL   H16137191   2.358   4.119   2.282 -1.1042  1.9716 -1.6648
  116MOL   C16237192   2.467   4.299   2.346  0.6258 -0.9118  0.1595
  116MOL   C16337193   2.446   4.391   2.468  0.0731 -0.2517  0.0761
  116MOL   C16437194   2.437   4.338   2.596 -0.1660 -0.1515  0.6363
  116MOL   C16537195   2.424   4.425   2.703 -0.3919 -1.8966  0.7767
  116MOL   C16637196   2.430   4.565   2.684 -0.4104 -0.0700  0.5770
  116MOL  Cl16737197   2.423   4.666   2.819  0.3976  0.4838  0.3051
  116MOL   C16837198   2.453   4.618   2.555  0.0317  0.0272  0.0642
  116MOL   C16937199   2.454   4.529   2.448  0.5161  0.5047  0.2982
  116MOL   C17037200   2.594   4.208   2.374 -0.8232  0.7653  0.4992
  116MOL   H17137201   2.498   4.358   2.259 -1.3392  2.7207  1.8106
  116MOL   H17237202   2.449   4.233   2.615  1.1692 -0.0955  0.1580
  116MOL   H17337203   2.430   4.385   2.803  4.0614  1.9605  2.2518
  116MOL   H17437204   2.473   4.723   2.534  0.2281 -0.2159 -1.0164
  116MOL   H17537205   2.468   4.568   2.348 -1.8634  0.0569 -0.2582
  116MOL   H17637206   2.656   4.260   2.447 -2.7030 -0.7733  3.3090
  116MOL   H17737207   2.555   4.123   2.431 -0.3896 -0.5271 -1.0978
  116MOL   C17837208   2.683   4.165   2.257 -0.3755  0.1328  0.0187
  116MOL   C17937209   2.624   4.097   2.131  0.0458 -0.1615  0.3442
  116MOL   C18037210   2.621   3.957   2.111 -0.0794 -0.0416 -0.2529
  116MOL   C18137211   2.575   3.905   1.988 -0.5257  0.0592 -0.4835
  116MOL   C18237212   2.532   3.986   1.883  0.1678 -0.5311 -0.6090
  116MOL  Cl18337213   2.486   3.922   1.729  0.2643 -0.2165  0.0414
  116MOL   C18437214   2.534   4.125   1.901  0.0212 -1.1555 -0.6237
  116MOL   C18537215   2.578   4.180   2.024  0.4225  0.2178 -0.0476
  116MOL   C18637216   2.795   4.258   2.230  0.2677  0.1084 -0.6134
  116MOL   H18737217   2.733   4.077   2.297 -2.4045 -1.8828 -1.6893
  116MOL   H18837218   2.653   3.890   2.190 -0.9922  0.3881  0.4904
  116MOL   H18937219   2.576   3.798   1.973 -0.9381  0.2792 -2.1469
  116MOL   H19037220   2.514   4.201   1.828  0.9232 -0.8755 -0.5899
  116MOL   H19137221   2.579   4.287   2.035 -0.4083  0.2976 -0.6851
  116MOL   H19237222   2.840   4.226   2.136  0.5574 -0.8141 -0.1663
  116MOL   H19337223   2.737   4.349   2.213 -0.1554  0.1507  1.0005
  116MOL   C19437224   2.904   4.297   2.337  0.0022 -0.3127 -0.1412
  116MOL   C19537225   2.957   4.166   2.397 -0.5475 -1.2904 -0.4452
  116MOL   C19637226   3.023   4.079   2.310  0.7227  0.7509 -0.2298
  116MOL   C19737227   3.056   3.949   2.352 -0.6904 -0.0882  0.6116
  116MOL   C19837228   3.029   3.909   2.483  0.9081 -0.2282 -0.0459
  116MOL  Cl19937229   3.051   3.745   2.541  0.0138 -0.0715 -0.0495
  116MOL   C20037230   2.986   4.006   2.573 -0.6848 -0.0449 -0.4122
  116MOL   C20137231   2.944   4.135   2.534 -0.1483 -0.1307 -0.4520
  116MOL   C20237232   3.023   4.380   2.275 -0.3887 -0.2729  0.5257
  116MOL   H20337233   2.850   4.356   2.411 -1.1733 -2.7989  1.0184
  116MOL   H20437234   3.022   4.097   2.204  0.7297 -0.6082 -0.4759
  116MOL   H20537235   3.099   3.878   2.283 -2.7735 -2.8686  2.0582
  116MOL   H20637236   2.982   3.984   2.679 -1.7576 -0.6693 -0.5713
  116MOL   H20737237   2.898   4.206   2.601  0.6596 -0.9375  0.9868
  116MOL   H20837238   3.085   4.390   2.365 -1.3101  1.7201  0.9502
  116MOL   H20937239   3.072   4.313   2.205  0.4344  1.1135 -0.2503
  116MOL   C21037240   2.987   4.520   2.208  0.0557 -0.6893 -0.0050
  116MOL   C21137241   2.935   4.617   2.313  0.3880 -0.0256  0.5346
  116MOL   C21237242   2.800   4.663   2.310  0.0727  0.5799  0.4439
  116MOL   C21337243   2.740   4.741   2.409 -0.9451 -0.2617 -0.0938
  116MOL   C21437244   2.827   4.786   2.511 -0.1137  0.1868  0.8198
  116MOL  Cl21537245   2.770   4.877   2.644 -0.2907 -0.2032  0.1550
  116MOL   C21637246   2.960   4.745   2.518 -0.2507  0.6051 -0.1475
  116MOL   C21737247   3.016   4.662   2.418  0.6167  0.2694 -0.0384
  116MOL   C21837248   3.120   4.576   2.146 -0.0257 -0.4422 -0.2760
  116MOL   H21937249   2.913   4.509   2.129  1.6304  3.7563 -2.2738
  116MOL   H22037250   2.731   4.626   2.235  0.1555 -2.9555  2.0016
  116MOL   H22137251   2.634   4.761   2.396 -0.9786  1.4237  2.3514
  116MOL   H22237252   3.018   4.782   2.601 -0.3897  0.7124 -0.0976
  116MOL   H22337253   3.122   4.645   2.425  1.2793  3.3880 -1.4146
  116MOL   H22437254   3.112   4.682   2.123  1.1790 -0.7929 -2.5238
  116MOL   H22537255   3.200   4.569   2.220  0.3086 -1.3128 -0.7071
  116MOL   C22637256   3.156   4.501   2.019 -0.9599  0.4371 -0.0156
  116MOL   C22737257   3.051   4.532   1.907 -0.2360 -0.2509  0.0772
  116MOL   C22837258   2.947   4.440   1.876 -0.1673 -0.4710  0.1677
  116MOL   C22937259   2.861   4.467   1.766 -0.1650  0.4039 -0.5426
  116MOL   C23037260   2.876   4.587   1.689  0.7701  0.1982 -0.4203
  116MOL  Cl23137261   2.787   4.616   1.542  0.2642  0.0971 -0.0707
  116MOL   C23237262   2.978   4.677   1.727  0.4989 -0.4811  0.1569
  116MOL   C23337263   3.060   4.655   1.837  0.6989 -0.1172 -0.3063
  116MOL   C23437264   3.308   4.526   1.974  0.0812  0.1827 -0.1624
  116MOL   H23537265   3.147   4.394   2.040 -2.6584  0.5679 -0.0759
  116MOL   H23637266   2.930   4.356   1.941  0.5078 -1.2762 -0.6917
  116MOL   H23737267   2.780   4.399   1.742 -0.1810  0.0394  0.5305
  116MOL   H23837268   2.991   4.769   1.671 -0.2896  0.2155  1.0942
  116MOL   H23937269   3.128   4.731   1.872  2.0681 -1.3347 -0.2889
  116MOL   H24037270   3.321   4.492   1.871 -2.1958  0.3035 -0.5168
  116MOL   H24137271   3.330   4.633   1.968  0.5377  0.1811  1.2004
  116MOL   C24237272   3.415   4.460   2.063  0.1073  0.4239  0.1457
  116MOL   C24337273   3.409   4.307   2.072  0.3574 -1.0292 -0.9792
  116MOL   C24437274   3.405   4.237   1.949 -0.7786  0.1623  0.1025
  116MOL   C24537275   3.389   4.096   1.948 -0.0479 -0.9780 -0.1407
  116MOL   C24637276   3.379   4.034   2.078  0.4534 -0.0365 -0.3135
  116MOL  Cl24737277   3.366   3.870   2.097 -0.0762 -0.1740  0.3255
  116MOL   C24837278   3.395   4.110   2.196  0.8067  0.3963  0.1171
  116MOL   C24937279   3.412   4.247   2.198 -0.1610 -0.9127  0.6403
  116MOL   C25037280   3.564   4.497   2.040  0.1146  0.1457  0.2808
  116MOL   H25137281   3.383   4.495   2.161  0.4160  0.1359  0.3504
  116MOL   H25237282   3.415   4.268   1.846 -0.8512 -0.6343 -0.1485
  116MOL   H25337283   3.394   4.043   1.855  0.0956 -1.5154  0.1762
  116MOL   H25437284   3.397   4.060   2.292 -0.1608  1.5524  0.7496
  116MOL   H25537285   3.416   4.301   2.292 -3.4433  1.0706 -0.2842
  116MOL   H25637286   3.628   4.443   2.110  2.6054 -1.1020 -2.8424
  116MOL   H25737287   3.586   4.457   1.940  1.2615  0.1659  0.5293
  116MOL   C25837288   3.593   4.651   2.048  0.0361  0.6005  0.5189
  116MOL   C25937289   3.566   4.696   2.189  0.2191 -0.3670 -0.3093
  116MOL   C26037290   3.440   4.755   2.226  0.3049  0.2577 -0.1333
  116MOL   C26137291   3.422   4.796   2.358  0.2353 -0.1300  0.1611
  116MOL   C26237292   3.516   4.771   2.460  0.5455 -1.3119  0.0191
  116MOL  Cl26337293   3.485   4.809   2.623 -0.2285  0.2176  0.1203
  116MOL   C26437294   3.638   4.712   2.425  0.7883  0.0168 -0.5338
  116MOL   C26537295   3.660   4.673   2.291  0.4058  0.0017 -0.5134
  116MOL   C26637296   3.742   4.671   2.006  0.0785  0.3890 -0.7909
  116MOL   H26737297   3.524   4.705   1.984 -0.9338 -2.3872 -1.0807
  116MOL   H26837298   3.368   4.773   2.147 -0.0085  1.6436  0.4563
  116MOL   H26937299   3.330   4.847   2.381  0.0764  0.4407 -1.6684
  116MOL   H27037300   3.709   4.714   2.507  1.3624 -1.0372 -0.9952
  116MOL   H27137301   3.746   4.609   2.279 -0.5210 -1.4188  0.1744
  116MOL   H27237302   3.762   4.776   2.027 -1.1339  1.2608 -3.5826
  116MOL   H27337303   3.815   4.617   2.065 -2.2516  1.3117  3.0902
  116MOL   C27437304   3.769   4.660   1.852  0.1106 -0.5077  0.1862
  116MOL   C27537305   3.677   4.750   1.767 -0.1699  0.1841  0.3476
  116MOL   C27637306   3.558   4.698   1.705  0.4670  0.2854 -0.5788
  116MOL   C27737307   3.496   4.780   1.603  0.3452  0.4085 -0.3263
  116MOL   C27837308   3.516   4.914   1.598 -1.4645 -0.2890 -0.9498
  116MOL  Cl27937309   3.417   5.011   1.496 -0.0626 -0.2529  0.1855
  116MOL   C28037310   3.623   4.976   1.671 -0.2260 -0.1461 -0.3488
  116MOL   C28137311   3.709   4.893   1.749 -0.7381 -0.1190 -0.1115
  116MOL   C28237312   3.911   4.687   1.805  0.2910 -0.3299 -0.4710
  116MOL   H28337313   3.749   4.557   1.825  2.0912 -1.1132  0.9450
  116MOL   H28437314   3.533   4.595   1.724 -0.6314  0.9276  1.5525
  116MOL   H28537315   3.408   4.752   1.547  0.6688  1.2725 -1.2633
  116MOL   H28637316   3.640   5.083   1.678 -0.0032 -0.2108  0.1164
  116MOL   H28737317   3.796   4.944   1.790 -1.7447  1.5475  0.0254
  116MOL   H28837318   3.907   4.693   1.696 -1.5256  1.8761 -0.3179
  116MOL   H28937319   3.939   4.789   1.834 -0.0458  0.5510 -3.1496
  116MOL   C29037320   4.014   4.579   1.844 -0.0950  0.5922 -0.2228
  116MOL   C29137321   3.991   4.451   1.766  0.0522 -0.1700 -0.2621
  116MOL   C29237322   3.968   4.327   1.835 -1.0343 -0.1468 -0.0072
  116MOL   C29337323   3.921   4.212   1.766 -0.3654 -0.6127 -1.4330
  116MOL   C29437324   3.909   4.210   1.629  0.4398 -0.0932  0.9112
  116MOL  Cl29537325   3.856   4.065   1.553 -0.0520  0.1930  0.0989
  116MOL   C29637326   3.932   4.332   1.563 -0.5554  0.5467  0.3681
  116MOL   C29737327   3.983   4.450   1.624 -0.1819 -0.2305  0.2359
  116MOL   C29837328   4.162   4.626   1.820 -0.3372 -0.0116  0.0175
  116MOL   H29937329   4.007   4.553   1.949  0.5079 -2.5827 -0.9060
  116MOL   H30037330   3.979   4.320   1.942  1.0078 -0.4703 -0.2182
  116MOL   H30137331   3.901   4.118   1.816  0.8562 -0.1967 -0.1629
  116MOL   H30237332   3.920   4.337   1.456 -1.4669  2.0178  0.5252
  116MOL   H30337333   3.997   4.540   1.566 -2.1714  1.8689  2.8807
  116MOL   H30437334   4.223   4.539   1.794 -1.4485 -1.3003  1.6494
  116MOL   H30537335   4.165   4.684   1.727 -2.4263 -1.3618 -0.9158
  116MOL   C30637336   4.232   4.691   1.940 -0.2576 -0.6585 -0.5270
  116MOL   C30737337   4.383   4.724   1.932  0.8446  0.6229  0.4294
  116MOL   C30837338   4.422   4.857   1.898 -0.2725  1.2459 -0.9037
  116MOL   C30937339   4.561   4.885   1.894  0.2143 -0.4019  0.2414
  116MOL   C31037340   4.660   4.794   1.933 -0.4737 -0.2023 -0.0109
  116MOL  Cl31137341   4.830   4.827   1.931 -0.0871 -0.5004 -0.1576
  116MOL   C31237342   4.620   4.665   1.977  0.1006 -0.4681 -0.3284
  116MOL   C31337343   4.479   4.635   1.980  1.2349 -0.3666  0.1906
  116MOL   C31437344   4.154   4.818   1.996 -0.4624 -0.6264  0.4099
  116MOL   H31537345   4.219   4.620   2.021 -0.0129  1.2133  1.2014
  116MOL   H31637346   4.352   4.928   1.857 -1.8486  0.5480  0.5488
  116MOL   H31737347   4.594   4.987   1.876 -0.8433 -0.1048 -0.0222
  116MOL   H31837348   4.685   4.587   2.015 -1.5790 -1.6471  0.1745
  116MOL   H31937349   4.446   4.541   2.021  0.2175  0.4813  1.3422
  116MOL   H32037350   4.113   4.888   1.924  0.1012 -0.7772 -0.0513
  116MOL   H32137351   4.063   4.784   2.046 -2.0676  0.5768 -1.6239
  116MOL   H32237352   4.217   4.877   2.062 -1.8324  1.0621  0.2502
  117MOL     C137353   2.296   7.073   7.095 -0.1482 -0.3991  0.7996
  117MOL     C237354   2.260   6.962   7.191  0.5566 -0.0898 -0.5971
  117MOL     C337355   2.306   6.947   7.321 -0.1817 -0.5701 -0.2720
  117MOL     C437356   2.279   6.832   7.397  0.3631 -0.5111  0.0914
  117MOL     C537357   2.185   6.736   7.342 -0.2390  0.3238 -0.0034
  117MOL    Cl637358   2.119   6.613   7.442  0.1019  0.3974  0.3284
  117MOL     C737359   2.126   6.756   7.217  0.1472 -0.3655 -0.3100
  117MOL     C837360   2.166   6.867   7.142 -0.2271  0.1595 -0.3160
  117MOL     C937361   2.199   7.197   7.114 -0.1687 -0.1188  0.0336
  117MOL    H1037362   2.284   7.037   6.993 -0.0762  1.2582  0.2039
  117MOL    H1137363   2.361   7.029   7.365 -0.0020 -1.7528  1.7417
  117MOL    H1237364   2.317   6.808   7.496  1.9901 -0.6109 -0.5457
  117MOL    H1337365   2.051   6.694   7.171  1.4133 -2.5251  0.4741
  117MOL    H1437366   2.131   6.876   7.040 -0.4959 -0.3292 -0.2693
  117MOL    H1537367   2.216   7.256   7.024 -0.6931  0.3949  0.2688
  117MOL    H1637368   2.094   7.168   7.111 -0.4563  0.8037  0.8582
  117MOL    H1737369   2.400   7.091   7.121 -0.3262  0.2218  1.0924
  117MOL    C1837370   2.227   7.290   7.236  0.1904 -0.3211 -0.8801
  117MOL    C1937371   2.358   7.369   7.217 -0.2775 -0.3052  0.4505
  117MOL    C2037372   2.364   7.470   7.117 -0.2820  1.1415 -0.5851
  117MOL    C2137373   2.481   7.532   7.083 -0.2975 -0.0643  0.4933
  117MOL    C2237374   2.602   7.486   7.130  0.1966 -0.2453 -0.4117
  117MOL   Cl2337375   2.750   7.556   7.076  0.0102  0.1342 -0.2977
  117MOL    C2437376   2.601   7.388   7.233 -0.4241  0.1100 -0.0696
  117MOL    C2537377   2.478   7.326   7.275 -0.5130 -0.1301  0.0076
  117MOL    C2637378   2.101   7.378   7.275 -0.3969 -0.5710 -0.1934
  117MOL    H2737379   2.248   7.222   7.318 -1.8506  0.6635  0.4848
  117MOL    H2837380   2.266   7.496   7.078 -0.3052 -0.6757 -1.8182
  117MOL    H2937381   2.473   7.617   7.016 -0.8039 -0.7332 -0.3163
  117MOL    H3037382   2.691   7.346   7.275 -2.5502 -2.6043  2.0778
  117MOL    H3137383   2.467   7.242   7.342 -0.4657 -0.3105 -0.2121
  117MOL    H3237384   2.124   7.482   7.299  2.6671 -1.0553 -0.6960
  117MOL    H3337385   2.039   7.391   7.187 -0.1856  3.7591  0.1722
  117MOL    C3437386   2.009   7.321   7.379  0.1059 -0.5122  0.0447
  117MOL    C3537387   1.891   7.419   7.405 -0.2281  0.3198 -0.5285
  117MOL    C3637388   1.747   7.394   7.377 -0.0089  0.2074  0.1213
  117MOL    C3737389   1.649   7.486   7.419 -0.4428  0.2105  0.0275
  117MOL    C3837390   1.680   7.600   7.489 -1.0752  0.2122 -0.4487
  117MOL   Cl3937391   1.562   7.713   7.536 -0.0274 -0.0154 -0.1085
  117MOL    C4037392   1.817   7.620   7.535  0.3941  0.3198  0.5393
  117MOL    C4137393   1.915   7.533   7.489 -0.5815 -0.4051  0.0638
  117MOL    C4237394   1.961   7.176   7.360  0.6951  0.1354 -0.1907
  117MOL    H4337395   2.071   7.321   7.469  0.5094  2.3060 -0.1768
  117MOL    H4437396   1.709   7.311   7.320 -0.8418 -0.9384  2.2968
  117MOL    H4537397   1.546   7.482   7.387 -0.3135  0.6664 -0.4479
  117MOL    H4637398   1.856   7.707   7.586  3.8694 -0.5892 -0.4468
  117MOL    H4737399   2.018   7.544   7.519 -0.2490 -0.3400 -1.0706
  117MOL    H4837400   1.885   7.163   7.283  2.2700  0.8169 -1.8918
  117MOL    H4937401   2.044   7.123   7.313  0.2082  0.6596 -1.6546
  117MOL    C5037402   1.914   7.103   7.492 -0.2360 -0.2025  0.2394
  117MOL    C5137403   1.814   6.994   7.459 -0.0806  0.5752 -0.3499
  117MOL    C5237404   1.856   6.867   7.413 -0.2601 -0.2525 -1.0637
  117MOL    C5337405   1.759   6.769   7.379 -0.3005 -0.1954 -0.4610
  117MOL    C5437406   1.629   6.786   7.415  0.1186  0.0317  0.3393
  117MOL   Cl5537407   1.518   6.650   7.404  0.1095  0.1843  0.0375
  117MOL    C5637408   1.592   6.915   7.463  0.3662 -0.2109 -0.0339
  117MOL    C5737409   1.680   7.022   7.472  0.1367  0.2966 -0.9695
  117MOL    C5837410   2.030   7.055   7.575 -0.4018 -0.5572  1.0246
  117MOL    H5937411   1.865   7.178   7.554  2.2820 -0.9395  3.2241
  117MOL    H6037412   1.961   6.851   7.395  0.3948  0.5343  1.8650
  117MOL    H6137413   1.785   6.671   7.343 -0.3428 -0.3411 -0.0947
  117MOL    H6237414   1.492   6.939   7.497 -0.6485 -0.3184 -2.8316
  117MOL    H6337415   1.641   7.109   7.523  2.6469  0.9139  0.0110
  117MOL    H6437416   2.095   6.998   7.508 -0.5985  0.6088 -0.1619
  117MOL    H6537417   2.092   7.139   7.606  0.6851  0.0317 -2.5190
  117MOL    C6637418   2.004   6.964   7.698  0.8043 -0.7873  0.0647
  117MOL    C6737419   2.123   6.880   7.733 -0.4173  0.3137 -0.0625
  117MOL    C6837420   2.123   6.743   7.742  0.0521 -0.1927 -0.2909
  117MOL    C6937421   2.235   6.667   7.771  0.2308  0.1908  0.2303
  117MOL    C7037422   2.359   6.730   7.784  0.9923  0.1367  0.2362
  117MOL   Cl7137423   2.504   6.644   7.809 -0.2216 -0.0872 -0.1998
  117MOL    C7237424   2.368   6.869   7.768  0.4155  0.3708 -0.5353
  117MOL    C7337425   2.254   6.939   7.742  0.0706 -0.0576 -0.2525
  117MOL    C7437426   1.935   7.032   7.818  0.0727  0.0405 -0.1774
  117MOL    H7537427   1.926   6.895   7.666 -0.0473  1.3808 -2.7180
  117MOL    H7637428   2.024   6.699   7.742 -0.3133  0.6226 -1.2916
  117MOL    H7737429   2.217   6.560   7.764 -3.1979  0.7268 -0.1099
  117MOL    H7837430   2.463   6.918   7.783 -0.4840  2.0363 -0.0742
  117MOL    H7937431   2.262   7.047   7.738 -1.0106  0.1160  1.4573
  117MOL    H8037432   2.011   7.096   7.862  0.0629 -0.0055 -0.0934
  117MOL    H8137433   1.854   7.099   7.790  0.7503  0.7951 -0.3141
  117MOL    C8237434   1.879   6.931   7.920 -0.1128  0.9107  0.3251
  117MOL    C8337435   1.987   6.869   8.011  0.5377 -0.3578 -0.5790
  117MOL    C8437436   2.052   6.960   8.099 -0.0300  0.0625  0.3192
  117MOL    C8537437   2.142   6.908   8.201  0.0613 -0.1951 -0.4979
  117MOL    C8637438   2.165   6.770   8.209  0.6282  0.7340  0.1186
  117MOL   Cl8737439   2.284   6.721   8.326 -0.2531  0.0803 -0.0997
  117MOL    C8837440   2.094   6.683   8.134  0.7803  0.6962  0.2496
  117MOL    C8937441   2.010   6.726   8.029  0.1940 -0.0573  0.8616
  117MOL    C9037442   1.764   6.981   8.008  0.2938  0.1550 -0.7788
  117MOL    H9137443   1.838   6.851   7.859  0.9650 -0.5434  1.4606
  117MOL    H9237444   2.028   7.065   8.094 -0.0705  0.0056 -0.9201
  117MOL    H9337445   2.196   6.980   8.261 -1.8392  0.9767 -0.1459
  117MOL    H9437446   2.104   6.577   8.147  1.3658  0.5853 -1.0699
  117MOL    H9537447   1.950   6.647   7.987  0.7308 -0.8243  1.5236
  117MOL    H9637448   1.803   7.054   8.079 -0.2200 -0.4839  0.1777
  117MOL    H9737449   1.707   7.047   7.943  0.8003 -0.1677 -1.5602
  117MOL    C9837450   1.685   6.870   8.082  0.2098  0.1577 -0.2733
  117MOL    C9937451   1.719   6.857   8.234  0.6842  0.3543 -0.9139
  117MOL   C10037452   1.709   6.974   8.316  0.3386  0.2800 -0.0042
  117MOL   C10137453   1.761   6.977   8.442 -0.2250  1.2298 -0.2162
  117MOL   C10237454   1.826   6.858   0.052  0.4528 -0.6610 -0.8141
  117MOL  Cl10337455   1.881   6.867   0.217 -0.2363  0.2759 -0.3220
  117MOL   C10437456   1.834   6.737   8.414  0.2139 -0.1229  0.1617
  117MOL   C10537457   1.775   6.737   8.284 -0.0050  0.1664  0.5335
  117MOL   C10637458   1.541   6.903   8.062 -0.1664  0.4398 -0.0017
  117MOL   H10737459   1.711   6.772   8.042  0.7126 -0.2204  0.9405
  117MOL   H10837460   1.672   7.062   8.266 -2.1282 -1.4309 -1.2605
  117MOL   H10937461   1.758   7.063   0.064  2.2833  0.8131  0.5232
  117MOL   H11037462   1.878   6.647   0.011 -0.2094 -1.6127 -2.5875
  117MOL   H11137463   1.784   6.656   8.214  0.1573  0.0331  0.7112
  117MOL   H11237464   1.487   6.839   8.132  1.8277  1.3889  2.4865
  117MOL   H11337465   1.525   7.007   8.090 -2.7008  0.4538 -1.3146
  117MOL   C11437466   1.493   6.873   7.911 -0.7028  1.1916  1.1163
  117MOL   C11537467   1.519   6.724   7.888  0.1696  0.1193  0.1857
  117MOL   C11637468   1.464   6.612   7.959  0.1546  0.1758  0.1624
  117MOL   C11737469   1.493   6.480   7.930 -0.5047  0.9523 -0.0096
  117MOL   C11837470   1.547   6.450   7.806  0.0966  0.6786 -1.1570
  117MOL  Cl11937471   1.558   6.284   7.769  0.1408 -0.1315  0.0002
  117MOL   C12037472   1.590   6.555   7.724 -0.4758  0.7311 -0.0246
  117MOL   C12137473   1.575   6.691   7.764 -0.0862  1.1410  0.6399
  117MOL   C12237474   1.352   6.919   7.873  1.1675 -0.5320 -0.2586
  117MOL   H12337475   1.560   6.931   7.847 -1.2082 -1.2629 -1.7708
  117MOL   H12437476   1.425   6.625   8.059 -1.7576 -0.2309 -0.5197
  117MOL   H12537477   1.465   6.407   8.004 -0.7084 -1.5415 -2.4531
  117MOL   H12637478   1.645   6.534   7.634  1.1808  3.4826  0.2956
  117MOL   H12737479   1.622   6.760   7.696 -1.2499  1.0981 -0.2408
  117MOL   H12837480   1.347   6.915   7.764  0.5817  1.2473 -0.3133
  117MOL   H12937481   1.290   6.839   7.912 -1.0414  2.1979  1.9732
  117MOL   C13037482   1.293   7.049   7.924  0.2771  0.2052 -0.2036
  117MOL   C13137483   1.389   7.164   7.906  0.2231  0.9847 -0.4578
  117MOL   C13237484   1.466   7.182   7.789  0.1407 -0.1847  0.2139
  117MOL   C13337485   1.554   7.291   7.777  0.0337  0.3135  0.3025
  117MOL   C13437486   1.560   7.378   7.880  0.1125 -0.6227 -0.5426
  117MOL  Cl13537487   1.662   7.515   7.874  0.3326  0.6418 -0.1516
  117MOL   C13637488   1.485   7.362   8.003  0.2248 -0.4616 -0.3652
  117MOL   C13737489   1.401   7.252   8.014  0.1556  0.2384  0.0919
  117MOL   C13837490   1.157   7.071   7.865  0.0003 -0.5399  0.3313
  117MOL   H13937491   1.286   7.035   8.032 -0.6633 -0.0552 -0.2997
  117MOL   H14037492   1.462   7.111   7.707 -0.5027  0.4127 -0.2726
  117MOL   H14137493   1.614   7.309   7.690 -0.2766 -0.0557  0.0121
  117MOL   H14237494   1.503   7.433   8.082  2.4638 -0.6094 -0.6984
  117MOL   H14337495   1.334   7.245   8.099  1.3964 -0.3727  1.0345
  117MOL   H14437496   1.170   7.059   7.758  1.5683  0.3564  0.4032
  117MOL   H14537497   1.085   6.994   7.892  2.4601 -2.3637  1.8968
  117MOL   C14637498   1.087   7.207   7.893 -0.1398  0.5573 -0.0792
  117MOL   C14737499   0.980   7.232   7.789  0.4418 -0.5957 -0.0741
  117MOL   C14837500   0.848   7.180   7.800 -0.2060 -0.0237  0.0811
  117MOL   C14937501   0.748   7.196   7.695  0.0189 -0.1684 -0.8788
  117MOL   C15037502   0.779   7.268   7.582 -0.2494  0.0548 -0.2841
  117MOL  Cl15137503   0.662   7.287   7.459  0.0003 -0.2428  0.2277
  117MOL   C15237504   0.907   7.323   7.569  0.2829 -0.5311 -0.3887
  117MOL   C15337505   1.009   7.294   7.671 -0.9551  0.8913  0.0136
  117MOL   C15437506   1.031   7.212   8.037 -0.4486 -0.4350 -0.4766
  117MOL   H15537507   1.162   7.286   7.888  0.7158 -0.1627  1.0758
  117MOL   H15637508   0.821   7.107   7.875  0.0671  0.7072  0.8966
  117MOL   H15737509   0.650   7.151   7.704 -0.7657  2.0381  2.5161
  117MOL   H15837510   0.937   7.378   7.481  1.6559  0.9482  0.9507
  117MOL   H15937511   1.107   7.335   7.655  0.1102 -1.4750  0.3065
  117MOL   H16037512   0.957   7.135   8.058 -0.3944  0.2415  2.3483
  117MOL   H16137513   1.108   7.183   8.108 -0.9311 -0.3129  0.0994
  117MOL   C16237514   0.976   7.348   8.091  0.0353  0.2602  0.0328
  117MOL   C16337515   0.879   7.346   8.215 -0.4994  0.0730  0.2119
  117MOL   C16437516   0.751   7.402   8.206  0.0778  0.1430 -0.5687
  117MOL   C16537517   0.660   7.392   8.308  0.3474  0.3143  0.2346
  117MOL   C16637518   0.698   7.331   8.431  0.3535 -0.2364 -0.2908
  117MOL  Cl16737519   0.585   7.342   0.115  0.1838 -0.3314  0.1691
  117MOL   C16837520   0.828   7.281   0.005 -0.6405 -0.2764  0.8244
  117MOL   C16937521   0.912   7.282   8.338  0.0544  0.4996  0.3913
  117MOL   C17037522   1.083   7.462   8.107  0.1976 -0.7299  0.1470
  117MOL   H17137523   0.909   7.384   8.013  0.1922 -1.6815 -1.0401
  117MOL   H17237524   0.719   7.445   8.112 -1.6346 -0.4167 -0.2499
  117MOL   H17337525   0.564   7.427   8.271 -0.6837 -2.1160  0.5586
  117MOL   H17437526   0.858   7.241   0.101 -1.3420 -1.1035  0.7073
  117MOL   H17537527   1.012   7.244   8.355  0.1435  0.2549 -0.6401
  117MOL   H17637528   1.152   7.435   8.186  1.1335  2.9382  0.6790
  117MOL   H17737529   1.149   7.468   8.021 -0.3296  3.8963 -0.0679
  117MOL   C17837530   1.033   7.602   8.145 -0.3504 -1.0691  0.5891
  117MOL   C17937531   1.073   7.634   8.283 -0.0452 -0.4305  0.4418
  117MOL   C18037532   1.206   7.675   8.312 -0.4767 -0.0641 -0.2646
  117MOL   C18137533   1.237   7.698   0.005  0.3153  0.1935  0.7335
  117MOL   C18237534   1.143   7.690   0.110 -0.5815 -0.1993  0.3985
  117MOL  Cl18337535   1.194   7.719   0.267 -0.2775 -0.1924 -0.0557
  117MOL   C18437536   1.010   7.663   0.080  0.4673 -0.9248 -0.1126
  117MOL   C18537537   0.977   7.627   8.388 -0.4540  0.7731 -0.2157
  117MOL   C18637538   1.076   7.713   8.050 -0.1972 -0.5565  0.3661
  117MOL   H18737539   0.925   7.606   8.153 -0.3722 -0.3413 -0.0148
  117MOL   H18837540   1.282   7.674   8.236  1.3379  1.0968  1.4610
  117MOL   H18937541   1.335   7.734   0.034  0.7943 -1.8465  1.7098
  117MOL   H19037542   0.934   7.645   0.155 -0.2390 -1.4492 -0.9427
  117MOL   H19137543   0.877   7.594   8.365 -0.1425  0.5905 -1.3271
  117MOL   H19237544   1.040   7.809   8.089  2.5201  0.5640  0.1810
  117MOL   H19337545   1.183   7.728   8.040 -0.5129  2.2331  0.7942
  117MOL   C19437546   1.013   7.709   7.914 -0.0598  0.2519 -1.2285
  117MOL   C19537547   0.860   7.720   7.906 -0.6628 -0.0590  0.6745
  117MOL   C19637548   0.782   7.608   7.872 -0.7887  0.0797  0.1351
  117MOL   C19737549   0.641   7.620   7.869  0.6658  0.6399  0.2259
  117MOL   C19837550   0.580   7.733   7.916  0.2351 -0.1662 -0.1667
  117MOL  Cl19937551   0.404   7.740   7.910 -0.1685 -0.1006  0.1506
  117MOL   C20037552   0.656   7.843   7.959  0.4786 -1.1025  0.7626
  117MOL   C20137553   0.797   7.836   7.951  0.6332 -0.5918 -0.4738
  117MOL   C20237554   1.078   7.814   7.824  1.3634 -0.4154  0.4109
  117MOL   H20337555   1.039   7.611   7.873 -1.0779 -1.0090  1.0188
  117MOL   H20437556   0.824   7.512   7.844 -1.1687  0.3866 -1.5582
  117MOL   H20537557   0.588   7.538   7.822 -0.8968  0.7209  1.8382
  117MOL   H20637558   0.598   7.927   7.995  1.0925 -0.0716 -0.6131
  117MOL   H20737559   0.851   7.916   7.998 -0.2889  0.9075 -1.9025
  117MOL   H20837560   1.005   7.838   7.746  0.2591 -1.0965  1.2263
  117MOL   H20937561   1.077   7.898   7.895 -0.5904 -0.5830  0.6175
  117MOL   C21037562   1.215   7.797   7.760 -0.3798  0.4760 -1.0219
  117MOL   C21137563   1.212   7.709   7.644  1.0680 -0.7148  0.1081
  117MOL   C21237564   1.266   7.580   7.646 -0.2979 -0.3408  0.7348
  117MOL   C21337565   1.255   7.496   7.533  0.2868 -0.2533 -0.6982
  117MOL   C21437566   1.183   7.541   7.425  0.5919  0.2729  0.6401
  117MOL  Cl21537567   1.175   7.425   7.294  0.0237  0.2011 -0.3335
  117MOL   C21637568   1.141   7.675   7.414  0.4616  0.5179 -0.1692
  117MOL   C21737569   1.151   7.754   7.524 -0.2768  0.3549 -0.4276
  117MOL   C21837570   1.300   7.924   7.726  0.1013 -0.3222 -0.3639
  117MOL   H21937571   1.282   7.744   7.828 -0.1685 -1.1140 -2.4295
  117MOL   H22037572   1.321   7.544   7.732 -0.1155 -1.0991  0.3044
  117MOL   H22137573   1.289   7.394   7.532 -2.2097 -1.1989  1.9426
  117MOL   H22237574   1.086   7.714   7.330  0.2214  1.5540  0.4672
  117MOL   H22337575   1.121   7.858   7.513  0.6213  0.7243  0.4634
  117MOL   H22437576   1.395   7.886   7.688  0.8945 -0.0154  1.2739
  117MOL   H22537577   1.252   7.969   7.639 -0.0948  0.3582  0.0942
  117MOL   C22637578   1.334   8.030   7.834 -0.3787 -0.1447 -0.5705
  117MOL   C22737579   1.416   7.972   7.949  0.1224 -1.0183 -0.4977
  117MOL   C22837580   1.551   7.927   7.947 -0.2583 -0.4155 -0.0190
  117MOL   C22937581   1.609   7.869   8.065 -0.7786 -0.5871  0.0183
  117MOL   C23037582   1.539   7.867   8.190  0.1109  0.1770 -0.2249
  117MOL  Cl23137583   1.606   7.809   8.340  0.1317  0.0101  0.0821
  117MOL   C23237584   1.409   7.919   8.187 -0.9350  1.1074  0.5730
  117MOL   C23337585   1.347   7.963   8.071 -0.1262  0.0955 -0.0587
  117MOL   C23437586   1.407   8.140   7.769 -0.5098 -0.1906  0.1011
  117MOL   H23537587   1.240   8.070   7.873 -0.2238  0.8285 -1.1832
  117MOL   H23637588   1.607   7.939   7.855  0.2774 -0.1199  0.3425
  117MOL   H23737589   1.713   7.841   8.061 -0.7532 -0.4204 -0.5050
  117MOL   H23837590   1.341   7.914   8.271 -2.0666 -0.0782 -0.3866
  117MOL   H23937591   1.246   8.000   8.086 -0.2847 -0.0826 -0.6864
  117MOL   H24037592   1.485   8.094   7.708  0.3469  0.5948  0.5872
  117MOL   H24137593   1.339   8.193   7.703  1.9883  1.4878 -1.2310
  117MOL   C24237594   1.475   8.242   7.862 -1.0027 -0.1139  0.4696
  117MOL   C24337595   1.557   8.344   7.787  0.0971  0.2605 -0.2917
  117MOL   C24437596   1.698   8.326   7.776 -0.1447  0.2394  0.3352
  117MOL   C24537597   1.779   8.407   7.698 -0.1997  0.5259  0.3879
  117MOL   C24637598   1.707   0.062   7.625  0.0416  0.0293  0.6773
  117MOL  Cl24737599   1.799   0.167   7.518  0.1738  0.2517 -0.4283
  117MOL   C24837600   1.568   0.088   7.638  0.7046  0.2693 -0.6695
  117MOL   C24937601   1.494   0.006   7.720 -0.4288 -0.6272 -0.3876
  117MOL   C25037602   1.372   8.317   7.956 -0.0566  0.7574 -0.4050
  117MOL   H25137603   1.543   8.189   7.928 -0.3110 -0.6157 -0.6438
  117MOL   H25237604   1.730   8.251   7.847 -2.4317  0.0271  1.1976
  117MOL   H25337605   1.886   8.398   7.688 -0.3196  1.1642 -1.5797
  117MOL   H25437606   1.514   0.158   7.576 -0.2703  0.5501  0.4673
  117MOL   H25537607   1.386   0.014   7.716 -0.3836  0.1441 -0.1082
  117MOL   H25637608   1.298   8.372   7.898  0.1270  0.7225 -0.6711
  117MOL   H25737609   1.302   8.248   8.003 -1.1500  0.4367 -2.4405
  117MOL   C25837610   1.430   8.401   8.076 -0.2250  0.4233 -0.0728
  117MOL   C25937611   1.527   8.321   8.162  0.4976  0.1874  0.4974
  117MOL   C26037612   1.476   8.253   8.269 -0.6199 -0.4910 -0.3755
  117MOL   C26137613   1.566   8.185   8.352 -0.1440  0.8538 -0.2299
  117MOL   C26237614   1.699   8.179   8.310 -0.2310  0.2951 -0.9569
  117MOL  Cl26337615   1.801   8.106   8.426  0.2130  0.0594  0.4273
  117MOL   C26437616   1.755   8.237   8.198 -0.4603 -0.0941 -0.1225
  117MOL   C26537617   1.668   8.316   8.126  0.2376  0.0806 -0.2004
  117MOL   C26637618   1.491   0.097   8.057 -0.0124  0.8426  0.1478
  117MOL   H26737619   1.342   8.419   8.139  0.8642 -0.8577  1.8616
  117MOL   H26837620   1.377   8.260   8.310 -0.5082  1.4306 -0.3659
  117MOL   H26937621   1.539   8.151   0.008 -0.5298 -1.3947 -1.0674
  117MOL   H27037622   1.863   8.239   8.194 -0.3169 -0.0626  2.8548
  117MOL   H27137623   1.703   8.371   8.040  1.4350 -0.7309 -0.2427
  117MOL   H27237624   1.563   0.124   8.135  0.4034  1.8267 -0.5643
  117MOL   H27337625   1.562   0.081   7.976 -0.9456  1.8658 -0.9000
  117MOL   C27437626   1.405   0.208   7.996  0.2755 -0.4636  0.2427
  117MOL   C27537627   1.312   0.277   8.089 -0.5961  0.1514  0.6365
  117MOL   C27637628   1.354   0.355   8.194 -0.0729 -0.0614  0.0052
  117MOL   C27737629   1.264   0.424   8.284 -0.1318  0.1462  0.0032
  117MOL   C27837630   1.121   0.399   8.265 -0.3474 -0.6577 -0.3288
  117MOL  Cl27937631   1.004   0.458   8.371  0.3059  0.0814 -0.1430
  117MOL   C28037632   1.080   0.327   8.154  0.3735  0.0703 -0.5524
  117MOL   C28137633   1.175   0.263   8.068 -0.6082  0.6068  0.8900
  117MOL   C28237634   1.491   0.314   7.925 -0.0745  0.5769  0.9316
  117MOL   H28337635   1.348   0.154   7.921 -1.7763  1.3010  0.4662
  117MOL   H28437636   1.459   0.375   8.208  0.0796  0.0742 -1.2863
  117MOL   H28537637   1.307   0.497   8.352  2.0588 -0.5327 -0.6466
  117MOL   H28637638   0.974   0.322   8.132  0.4321 -1.0778 -0.6107
  117MOL   H28737639   1.130   0.209   7.986 -2.3123  1.7039  1.0764
  117MOL   H28837640   1.553   0.362   7.999 -0.0915  0.4411  1.0340
  117MOL   H28937641   1.569   0.274   7.860 -1.8776  0.1779 -1.0555
  117MOL   C29037642   1.414   0.429   7.861  0.4418 -0.0011  0.4270
  117MOL   C29137643   1.491   0.563   7.844  0.4701 -0.0738 -0.4151
  117MOL   C29237644   1.619   0.552   7.788  0.1121 -0.0861  0.0368
  117MOL   C29337645   1.696   0.673   7.778  0.1251 -0.6798  0.0209
  117MOL   C29437646   1.642   0.791   7.822  0.0569 -0.2767 -0.1174
  117MOL  Cl29537647   1.719   0.940   7.789  0.1755  0.0897 -0.4055
  117MOL   C29637648   1.513   0.802   7.886 -0.4090  0.1379  0.4615
  117MOL   C29737649   1.429   0.690   7.885 -0.5716 -0.0292  0.3772
  117MOL   C29837650   1.358   0.384   7.721 -0.1105  0.1389 -0.5790
  117MOL   H29937651   1.325   0.459   7.916  0.3560 -0.1240  0.3561
  117MOL   H30037652   1.642   0.452   7.756 -1.7955 -1.7575  3.6005
  117MOL   H30137653   1.787   0.672   7.719  0.2473  0.2678  0.1879
  117MOL   H30237654   1.471   0.896   7.919 -1.0922  0.2167 -0.6221
  117MOL   H30337655   1.330   0.697   7.928  1.0250  0.9998  4.0147
  117MOL   H30437656   1.447   0.382   7.657  0.3160  1.5264 -0.0563
  117MOL   H30537657   1.336   0.278   7.710  1.5371 -0.1282 -1.5830
  117MOL   C30637658   1.269   0.481   7.657  0.3086 -0.7282 -0.5059
  117MOL   C30737659   1.259   0.460   7.505 -0.0293 -0.1989  0.8147
  117MOL   C30837660   1.329   0.560   7.433 -0.5611  0.5295 -0.0308
  117MOL   C30937661   1.332   0.552   7.298  0.3530  1.2173  0.1790
  117MOL   C31037662   1.267   0.446   7.233  0.8566  0.0116 -0.0206
  117MOL  Cl31137663   1.281   0.422   7.060 -0.1084  0.3591 -0.3542
  117MOL   C31237664   1.191   0.355   7.305  0.2500  0.2246  0.1848
  117MOL   C31337665   1.202   0.349   7.444 -0.2608  0.4381  0.5530
  117MOL   C31437666   1.127   0.476   7.712  0.7153  0.1700  0.1382
  117MOL   H31537667   1.309   0.580   7.675 -2.5767  0.2753  0.6275
  117MOL   H31637668   1.378   0.640   7.486  0.2198 -0.5668  0.9337
  117MOL   H31737669   1.391   0.620   7.238 -1.1883  3.0346  0.6683
  117MOL   H31837670   1.126   0.288   7.251  0.0451  1.5227 -1.2082
  117MOL   H31937671   1.165   0.269   7.506 -0.1596 -1.1336 -1.3925
  117MOL   H32037672   1.089   0.376   7.734  0.0272  0.1395 -1.1671
  117MOL   H32137673   1.123   0.538   7.802  1.0306  1.2647 -0.5889
  117MOL   H32237674   1.057   0.521   7.642 -0.7439 -1.3706  0.5692
  118MOL     C137675   2.154   4.879   0.096 -0.2302 -0.0519 -0.5163
  118MOL     C237676   2.195   4.821   8.403 -0.3119 -0.2625  0.1425
  118MOL     C337677   2.238   4.896   8.294  0.1304  0.3367  0.5473
  118MOL     C437678   2.285   4.834   8.172 -0.2165 -0.2343  0.4528
  118MOL     C537679   2.278   4.694   8.164 -0.2008  0.1912 -0.5239
  118MOL    Cl637680   2.301   4.606   8.020 -0.0928  0.1666 -0.0398
  118MOL     C737681   2.239   4.621   8.273 -0.3039 -0.5234  0.1402
  118MOL     C837682   2.201   4.680   8.394  0.2732 -0.7650  0.0707
  118MOL     C937683   2.260   4.851   0.199  0.4007  0.2206  0.7740
  118MOL    H1037684   2.053   4.842   0.115  0.0815 -1.0400 -0.7365
  118MOL    H1137685   2.231   5.003   8.309  1.5801  0.4900  0.2324
  118MOL    H1237686   2.313   4.891   8.084 -1.1142 -2.2994 -1.2186
  118MOL    H1337687   2.238   4.514   8.262 -0.1529 -0.3593 -1.5935
  118MOL    H1437688   2.191   4.617   0.038  0.1039 -0.3771  0.3315
  118MOL    H1537689   2.222   4.858   0.301  0.8971  0.4789  0.9415
  118MOL    H1637690   2.301   4.751   0.182 -0.9815 -0.3110  0.4694
  118MOL    H1737691   2.141   4.983   0.068  0.1293 -0.3041 -1.6263
  118MOL    C1837692   2.390   4.934   0.191 -0.5831  0.8027  0.3875
  118MOL    C1937693   2.355   5.081   0.228 -0.0022  0.0696 -0.0740
  118MOL    C2037694   2.363   5.170   0.116 -0.1618 -0.7047 -0.0926
  118MOL    C2137695   2.325   5.305   0.130 -0.5673  0.4693  0.1326
  118MOL    C2237696   2.287   5.351   0.258 -0.1038 -0.4197 -0.3722
  118MOL   Cl2337697   2.232   5.515   0.274 -0.2515 -0.1494 -0.1420
  118MOL    C2437698   2.278   5.260   0.367 -0.7946  0.0447  0.1268
  118MOL    C2537699   2.309   5.123   0.355 -0.7604 -0.3770  0.0869
  118MOL    C2637700   2.507   4.895   0.282 -0.6480  0.0928  0.2534
  118MOL    H2737701   2.419   4.933   0.086 -2.3984  1.1255 -0.1291
  118MOL    H2837702   2.401   5.139   0.020  0.4149 -1.3010  0.3257
  118MOL    H2937703   2.342   5.362   0.041  0.5910 -0.8446 -0.5061
  118MOL    H3037704   2.256   5.305   0.462 -0.2867  1.7292 -0.5281
  118MOL    H3137705   2.298   5.056   0.439  2.8007  1.2216  1.9470
  118MOL    H3237706   2.591   4.964   0.273  1.3083 -2.2934 -0.4843
  118MOL    H3337707   2.465   4.897   0.383 -2.3070  1.7455 -0.4282
  118MOL    C3437708   2.559   4.757   0.255 -0.7917 -0.0905 -0.3901
  118MOL    C3537709   2.581   4.731   0.106  0.0256 -0.3498 -0.9588
  118MOL    C3637710   2.671   4.812   0.027  0.4622 -0.7548  0.1442
  118MOL    C3737711   2.696   4.782   8.336 -0.0942 -0.4998 -0.2767
  118MOL    C3837712   2.646   4.666   8.280  0.0157  0.2964  0.1083
  118MOL   Cl3937713   2.681   4.612   8.126  0.1057 -0.3446 -0.3237
  118MOL    C4037714   2.554   4.589   8.354 -0.2857 -0.3305 -0.0047
  118MOL    C4137715   2.523   4.619   0.046  0.2689  0.2541  0.3736
  118MOL    C4237716   2.682   4.719   0.340  0.4516  0.2855  0.3130
  118MOL    H4337717   2.485   4.692   0.300 -1.4996  0.3014 -0.9694
  118MOL    H4437718   2.716   4.901   0.067 -2.0900  0.6132  0.0830
  118MOL    H4537719   2.766   4.843   8.280 -1.1609 -0.2635 -1.3730
  118MOL    H4637720   2.508   4.504   8.306 -1.0938 -0.3552  0.7915
  118MOL    H4737721   2.454   4.559   0.103 -0.0561  0.2332 -0.0446
  118MOL    H4837722   2.713   4.620   0.308 -0.6117  0.9115 -2.8275
  118MOL    H4937723   2.763   4.786   0.314  0.7930 -0.1733  0.1897
  118MOL    C5037724   2.667   4.711   0.493 -0.4872 -0.3172 -1.0312
  118MOL    C5137725   2.584   4.591   0.538  0.7506  0.1653  0.2130
  118MOL    C5237726   2.463   4.617   0.609 -0.3209 -0.1810  0.7871
  118MOL    C5337727   2.385   4.507   0.633 -0.3790 -0.8320 -1.1801
  118MOL    C5437728   2.428   4.375   0.611 -0.6443  0.1573 -0.2379
  118MOL   Cl5537729   2.323   4.252   0.667  0.0825 -0.4649  0.2356
  118MOL    C5637730   2.549   4.350   0.546  0.0623 -0.1519 -0.0430
  118MOL    C5737731   2.622   4.456   0.497  0.5731 -0.3186 -0.1080
  118MOL    C5837732   2.803   4.705   0.564  0.0909 -0.3401 -0.4482
  118MOL    H5937733   2.633   4.809   0.526  0.6439 -0.4399  0.5750
  118MOL    H6037734   2.419   4.713   0.631 -1.7703 -0.1737 -1.8634
  118MOL    H6137735   2.286   4.518   0.675  0.5942 -1.3489  1.3601
  118MOL    H6237736   2.575   4.248   0.523 -0.9042 -0.9391  2.2048
  118MOL    H6337737   2.707   4.436   0.433 -0.8926  1.4026 -2.7128
  118MOL    H6437738   2.790   4.661   0.663 -0.4369  0.1930 -0.2760
  118MOL    H6537739   2.864   4.626   0.519  1.5752 -0.5180  1.8183
  118MOL    C6637740   2.882   4.843   0.566  0.0545  0.9703 -0.2461
  118MOL    C6737741   2.797   4.959   0.608  0.6619  0.0997 -0.3496
  118MOL    C6837742   2.761   5.057   0.513 -0.1397 -0.2731 -0.5678
  118MOL    C6937743   2.662   5.154   0.542  0.4152  0.5882 -0.4889
  118MOL    C7037744   2.594   5.151   0.664 -0.5159 -0.5595 -0.1504
  118MOL   Cl7137745   2.453   5.255   0.698  0.1659  0.1278 -0.4891
  118MOL    C7237746   2.619   5.047   0.767 -0.1968 -0.1251  0.5749
  118MOL    C7337747   2.726   4.957   0.733 -0.2377  0.3293  0.7027
  118MOL    C7437748   3.011   4.830   0.654  0.3694 -0.3280 -0.7176
  118MOL    H7537749   2.921   4.851   0.465 -2.1929  0.3551 -1.1816
  118MOL    H7637750   2.822   5.050   0.424 -0.6939  1.0349 -1.0611
  118MOL    H7737751   2.628   5.228   0.471  2.1711  0.7624 -1.1590
  118MOL    H7837752   2.566   5.051   0.861  1.2439  1.9252  1.3368
  118MOL    H7937753   2.744   4.879   0.805  1.5161  1.2677  1.3079
  118MOL    H8037754   2.975   4.807   0.754  0.2019 -1.2747 -0.9871
  118MOL    H8137755   3.075   4.747   0.624 -0.1980  0.0691 -3.1792
  118MOL    C8237756   3.099   4.953   0.675  0.4221  0.5296  0.4306
  118MOL    C8337757   3.156   5.003   0.537 -0.1320  0.0004 -0.7097
  118MOL    C8437758   3.267   4.946   0.484  0.2584  0.0753  0.4105
  118MOL    C8537759   3.317   4.978   0.355 -0.0630  0.5697 -0.4303
  118MOL    C8637760   3.242   5.071   0.274 -0.2128  0.4686 -0.0081
  118MOL   Cl8737761   3.288   5.098   0.110  0.0578  0.0612  0.3027
  118MOL    C8837762   3.131   5.138   0.324 -0.3359  0.3586 -0.9213
  118MOL    C8937763   3.090   5.103   0.459  0.2195 -0.2794  0.2188
  118MOL    C9037764   3.047   5.071   0.759  0.4939 -0.3698  0.0784
  118MOL    H9137765   3.187   4.908   0.721 -1.9794 -3.7593  1.1674
  118MOL    H9237766   3.321   4.866   0.533 -0.0824 -0.2507  0.2561
  118MOL    H9337767   3.391   4.913   0.310 -1.2679 -0.1072 -1.4599
  118MOL    H9437768   3.079   5.211   0.263  2.5757  1.9278 -1.6105
  118MOL    H9537769   3.001   5.146   0.503 -0.1472 -1.6186  0.7991
  118MOL    H9637770   2.972   5.142   0.725  1.1806  0.5594  0.4707
  118MOL    H9737771   3.000   5.011   0.837  1.0525 -1.0251 -0.0870
  118MOL    C9837772   3.167   5.146   0.824  0.4014  0.3936 -0.1804
  118MOL    C9937773   3.213   5.258   0.739  0.4733 -0.2970 -0.2428
  118MOL   C10037774   3.348   5.260   0.696 -0.5935 -0.0865 -1.1089
  118MOL   C10137775   3.394   5.351   0.603 -0.1559  0.5165 -0.6845
  118MOL   C10237776   3.300   5.449   0.561 -0.2485 -0.2362  0.3226
  118MOL  Cl10337777   3.355   5.546   0.437 -0.2848 -0.0867  0.4890
  118MOL   C10437778   3.162   5.442   0.590 -0.7740  0.4273 -0.0475
  118MOL   C10537779   3.120   5.345   0.682 -0.0838  0.3589 -0.6312
  118MOL   C10637780   3.138   5.196   0.973 -0.0016  0.5577  0.5625
  118MOL   H10737781   3.243   5.070   0.838 -0.1875  0.1670  2.0782
  118MOL   H10837782   3.415   5.185   0.737 -0.3051  0.0539 -1.3244
  118MOL   H10937783   3.495   5.348   0.565  0.9809 -1.5425  2.3109
  118MOL   H11037784   3.086   5.507   0.549  0.1634 -0.4544 -3.3181
  118MOL   H11137785   3.019   5.346   0.721 -0.0905  1.6499 -0.6473
  118MOL   H11237786   3.050   5.259   0.959 -0.4028 -0.0707  0.2354
  118MOL   H11337787   3.102   5.117   1.039 -0.4582  0.9669  0.8037
  118MOL   C11437788   3.252   5.264   1.052 -0.0607 -0.8178  0.7061
  118MOL   C11537789   3.188   5.295   1.191 -0.4352 -0.6728  0.5588
  118MOL   C11637790   3.185   5.200   1.296  0.8265  0.4820  0.1221
  118MOL   C11737791   3.125   5.225   1.420 -0.2141  0.2950 -0.6907
  118MOL   C11837792   3.060   5.350   1.429 -0.5463 -0.0662  0.4704
  118MOL  Cl11937793   2.977   5.387   1.573 -0.3712 -0.3828 -0.0685
  118MOL   C12037794   3.057   5.449   1.330  0.2973 -0.1457  0.0395
  118MOL   C12137795   3.125   5.424   1.215  0.4902 -0.1783  0.9123
  118MOL   C12237796   3.384   5.179   1.059  0.3842 -0.3728  0.5281
  118MOL   H12337797   3.265   5.363   1.007  0.5772 -1.5376 -0.7272
  118MOL   H12437798   3.240   5.108   1.286  0.0825  0.2771 -2.2799
  118MOL   H12537799   3.135   5.161   1.507 -2.4793  1.9576  0.8442
  118MOL   H12637800   2.999   5.538   1.350 -0.8461 -0.9284  0.2841
  118MOL   H12737801   3.141   5.507   1.148 -0.1790 -0.9141 -0.1763
  118MOL   H12837802   3.344   5.080   1.085 -1.0379  0.1476  0.3829
  118MOL   H12937803   3.421   5.173   0.956 -1.4557 -0.3400 -0.1573
  118MOL   C13037804   3.494   5.224   1.160 -0.5435  1.0075 -0.3891
  118MOL   C13137805   3.612   5.119   1.149 -0.6530  0.7218  0.2383
  118MOL   C13237806   3.665   5.083   1.021  0.9746  0.2114  0.5649
  118MOL   C13337807   3.778   4.999   1.006  0.5887  0.3843  0.3349
  118MOL   C13437808   3.837   4.952   1.125 -0.2236 -0.2277  0.5806
  118MOL  Cl13537809   3.970   4.848   1.116  0.2837 -0.3754 -0.0141
  118MOL   C13637810   3.784   4.979   1.252 -0.2068 -0.7696  0.6615
  118MOL   C13737811   3.670   5.065   1.265 -0.2538 -0.0380 -0.5531
  118MOL   C13837812   3.547   5.366   1.123  0.4459 -0.9312  0.0886
  118MOL   H13937813   3.461   5.214   1.263 -0.8992 -1.0959 -0.6758
  118MOL   H14037814   3.619   5.123   0.932  0.9946  0.6736  0.7574
  118MOL   H14137815   3.818   4.971   0.910 -0.9151  0.1799 -0.2432
  118MOL   H14237816   3.836   4.944   1.339  1.9515  1.1592  0.1843
  118MOL   H14337817   3.622   5.100   1.355  0.5859  2.5224 -1.0542
  118MOL   H14437818   3.656   5.364   1.133  0.5583 -1.5615 -1.1200
  118MOL   H14537819   3.528   5.387   1.017 -0.3365  1.4017  0.6645
  118MOL   C14637820   3.501   5.481   1.222 -0.0727  0.4255  0.1637
  118MOL   C14737821   3.520   5.456   1.375 -0.1518 -0.4792 -0.1091
  118MOL   C14837822   3.413   5.463   1.469 -0.6969  0.2933  0.0355
  118MOL   C14937823   3.436   5.426   1.600  0.1815 -0.2540  0.2114
  118MOL   C15037824   3.557   5.368   1.639  0.0267 -0.2365 -0.0814
  118MOL  Cl15137825   3.560   5.302   1.800 -0.4713  0.5908 -0.1655
  118MOL   C15237826   3.664   5.362   1.550 -0.2696 -0.4263 -0.1155
  118MOL   C15337827   3.645   5.415   1.419 -0.1274 -0.7129 -0.4662
  118MOL   C15437828   3.557   5.611   1.168 -0.1928 -1.1865 -0.2757
  118MOL   H15537829   3.392   5.484   1.220 -0.0423  1.3599 -0.1275
  118MOL   H15637830   3.311   5.489   1.445 -1.9788 -2.2311  2.4579
  118MOL   H15737831   3.357   5.420   1.673  1.0945  1.1056  1.3394
  118MOL   H15837832   3.763   5.331   1.580 -0.0051  1.9204  1.5324
  118MOL   H15937833   3.730   5.422   1.353  1.0061  2.1823  1.2145
  118MOL   H16037834   3.666   5.608   1.163 -0.0445  2.4820 -0.5632
  118MOL   H16137835   3.522   5.617   1.065 -2.9094 -0.2901  0.6329
  118MOL   C16237836   3.520   5.746   1.233  0.3315  0.1844 -0.0796
  118MOL   C16337837   3.631   5.845   1.204  0.4033 -1.1778 -0.1627
  118MOL   C16437838   3.759   5.825   1.254 -0.3597 -0.1046 -0.1539
  118MOL   C16537839   3.867   5.908   1.235 -0.6814  0.5307  0.4201
  118MOL   C16637840   3.853   6.017   1.145  0.3269 -0.0751  0.3466
  118MOL  Cl16737841   3.982   6.113   1.095 -0.0982  0.5471 -0.1889
  118MOL   C16837842   3.724   6.038   1.088  0.1260 -0.2134 -0.4139
  118MOL   C16937843   3.613   5.959   1.122 -0.0619 -0.1090  0.3000
  118MOL   C17037844   3.372   5.790   1.209 -0.2254  0.8502  0.2975
  118MOL   H17137845   3.524   5.746   1.341  0.1873 -0.3157 -0.0699
  118MOL   H17237846   3.778   5.742   1.321  0.0160 -0.3766 -0.5947
  118MOL   H17337847   3.961   5.881   1.282  0.3711  1.4411 -1.0999
  118MOL   H17437848   3.698   6.123   1.026 -2.2893 -0.6393 -0.0586
  118MOL   H17537849   3.512   5.984   1.091 -0.9789 -0.8623  2.5777
  118MOL   H17637850   3.362   5.814   1.103  0.5230  1.8810  0.4459
  118MOL   H17737851   3.312   5.700   1.215 -0.1994  0.8428  0.4522
  118MOL   C17837852   3.314   5.894   1.298 -0.4881  0.1528 -0.1960
  118MOL   C17937853   3.180   5.940   1.242 -0.2586  0.0404  0.0674
  118MOL   C18037854   3.078   5.848   1.228 -0.0760  0.3306 -0.0158
  118MOL   C18137855   2.957   5.879   1.167 -0.2229 -0.7969 -0.4388
  118MOL   C18237856   2.937   6.013   1.120  0.7625 -0.2571 -0.7228
  118MOL  Cl18337857   2.790   6.049   1.048 -0.0297 -0.0142 -0.4030
  118MOL   C18437858   3.029   6.113   1.151  0.4298  0.5018  0.6031
  118MOL   C18537859   3.156   6.072   1.203 -0.3482 -0.5262 -0.0999
  118MOL   C18637860   3.302   5.846   1.446  0.3977  0.4944  0.1989
  118MOL   H18737861   3.374   5.983   1.280 -1.0308  0.6223  0.2804
  118MOL   H18837862   3.097   5.747   1.261  0.6688  0.4229 -0.1458
  118MOL   H18937863   2.874   5.810   1.159 -0.8785  0.1942 -2.7477
  118MOL   H19037864   3.010   6.211   1.109 -2.3795 -1.9972 -4.2955
  118MOL   H19137865   3.236   6.144   1.213 -0.4001 -0.6024  0.9796
  118MOL   H19237866   3.246   5.754   1.429  0.3168  0.7096 -0.7408
  118MOL   H19337867   3.393   5.803   1.488 -0.2130  1.8326  3.0134
  118MOL   C19437868   3.229   5.940   1.543  0.3172  0.0823  0.0378
  118MOL   C19537869   3.183   5.861   1.666  0.0214 -0.3302 -0.4575
  118MOL   C19637870   3.071   5.783   1.656  0.4600  0.6293 -0.2954
  118MOL   C19737871   3.038   5.694   1.759  0.4765  0.0090 -0.4746
  118MOL   C19837872   3.110   5.697   1.880  0.0468 -0.2554 -0.1593
  118MOL  Cl19937873   3.064   5.597   2.013  0.3022  0.0366 -0.4710
  118MOL   C20037874   3.219   5.784   1.889 -0.1637 -0.1191  0.1225
  118MOL   C20137875   3.263   5.864   1.783  0.3542 -0.0970 -0.3118
  118MOL   C20237876   3.302   6.076   1.565  0.6598  0.0066 -0.2279
  118MOL   H20337877   3.139   5.974   1.491  0.2760 -0.9151 -0.5552
  118MOL   H20437878   3.015   5.786   1.564 -1.5542  0.0845  0.8735
  118MOL   H20537879   2.959   5.621   1.751 -0.0110  0.6135 -1.3285
  118MOL   H20637880   3.258   5.787   1.990 -0.6057 -1.6679  0.3599
  118MOL   H20737881   3.361   5.910   1.786  0.2888 -0.0498  2.3965
  118MOL   H20837882   3.397   6.056   1.615  0.5726  0.2761  0.0435
  118MOL   H20937883   3.349   6.108   1.472  0.8635 -0.6184 -0.3427
  118MOL   C21037884   3.236   6.193   1.646  0.5122 -0.0131 -0.0514
  118MOL   C21137885   3.348   6.283   1.706  0.3332 -0.7731  0.6960
  118MOL   C21237886   3.404   6.261   1.835  0.4613  0.2912  0.1919
  118MOL   C21337887   3.500   6.350   1.883 -0.4214  0.2738  0.4313
  118MOL   C21437888   3.543   6.448   1.809 -0.0337 -0.3780 -0.0332
  118MOL  Cl21537889   3.661   6.553   1.888 -0.2102  0.0199 -0.0954
  118MOL   C21637890   3.484   6.488   1.688 -0.2534 -0.1112 -0.1309
  118MOL   C21737891   3.384   6.402   1.636 -0.2093  0.2506 -0.9303
  118MOL   C21837892   3.115   6.271   1.594 -0.5829 -0.2214 -0.0364
  118MOL   H21937893   3.206   6.149   1.742  1.0097 -2.3006 -0.9189
  118MOL   H22037894   3.370   6.183   1.901 -1.9381 -1.1089 -2.5820
  118MOL   H22137895   3.538   6.330   1.982 -1.3388 -1.4588  0.4612
  118MOL   H22237896   3.514   6.577   1.635  1.2988 -0.1499  0.6515
  118MOL   H22337897   3.338   6.426   1.542 -1.0074 -1.9006 -1.1234
  118MOL   H22437898   3.094   6.353   1.663  1.9179 -1.1504  1.9176
  118MOL   H22537899   3.131   6.313   1.495  2.3743  0.3553  0.6513
  118MOL   C22637900   2.981   6.200   1.581 -0.0350 -0.1450  0.6319
  118MOL   C22737901   2.927   6.149   1.715 -0.3090 -0.1834  0.8418
  118MOL   C22837902   2.847   6.035   1.709 -0.4603  0.9905 -0.3220
  118MOL   C22937903   2.793   5.973   1.820  0.5839 -0.5176 -0.2086
  118MOL   C23037904   2.827   6.027   1.945  0.1406  0.1141 -0.1752
  118MOL  Cl23137905   2.799   5.933   2.087  0.1381 -0.2447 -0.2382
  118MOL   C23237906   2.913   6.142   1.959  0.0866 -0.4678  0.3483
  118MOL   C23337907   2.958   6.205   1.842  0.3557  0.1360 -0.2043
  118MOL   C23437908   2.872   6.278   1.513  0.5744 -0.1230 -0.4230
  118MOL   H23537909   2.997   6.122   1.507 -0.1233  0.7413 -0.3303
  118MOL   H23637910   2.828   5.981   1.618  1.1066 -1.2115  0.6276
  118MOL   H23737911   2.729   5.887   1.807 -0.2344  0.6174 -4.3162
  118MOL   H23837912   2.936   6.189   2.053 -2.2384  0.1052  0.6494
  118MOL   H23937913   3.028   6.287   1.850  0.9781 -0.1474 -2.3811
  118MOL   H24037914   2.905   6.282   1.409  0.8349 -2.3550 -0.4640
  118MOL   H24137915   2.785   6.213   1.510  2.3474 -2.5231 -2.3751
  118MOL   C24237916   2.843   6.424   1.554 -0.4653 -0.1901  0.2039
  118MOL   C24337917   2.908   6.526   1.461  0.4380  0.1503 -0.6391
  118MOL   C24437918   2.862   6.534   1.328 -0.2704 -0.3675  1.0130
  118MOL   C24537919   2.935   6.620   1.237 -0.2635 -0.5622 -0.3981
  118MOL   C24637920   3.028   6.709   1.292 -0.2046  0.2990  0.7966
  118MOL  Cl24737921   3.082   6.843   1.200  0.0719  0.1209 -0.1197
  118MOL   C24837922   3.071   6.703   1.421 -0.3212 -0.3943 -0.1092
  118MOL   C24937923   3.013   6.616   1.506  0.3812  0.2408  0.6440
  118MOL   C25037924   2.684   6.447   1.550  0.8436  0.6912  0.2459
  118MOL   H25137925   2.883   6.440   1.654 -1.1885 -0.5343  0.5547
  118MOL   H25237926   2.795   6.458   1.291 -0.2828 -0.4349  1.1706
  118MOL   H25337927   2.913   6.635   1.132  2.8158  0.9211 -0.8885
  118MOL   H25437928   3.142   6.772   1.465 -0.6856 -0.2112  0.1857
  118MOL   H25537929   3.053   6.615   1.607 -1.0092  0.0828  1.2025
  118MOL   H25637930   2.664   6.552   1.531 -1.1204  0.5926  1.6554
  118MOL   H25737931   2.643   6.389   1.468  1.6989 -1.2386  1.1394
  118MOL   C25837932   2.625   6.409   1.688 -0.6467 -0.2012 -0.0926
  118MOL   C25937933   2.664   6.497   1.801  0.1515  1.0949 -0.8780
  118MOL   C26037934   2.641   6.638   1.804  0.0104  0.1452  0.0483
  118MOL   C26137935   2.684   6.716   1.915  0.3843 -0.1629 -0.0394
  118MOL   C26237936   2.743   6.659   2.029  0.3072  0.0661 -0.9746
  118MOL  Cl26337937   2.761   6.749   2.169  0.3378 -0.0520 -0.1003
  118MOL   C26437938   2.762   6.519   2.029  0.9355  0.7181 -0.3985
  118MOL   C26537939   2.725   6.437   1.920 -0.8252 -0.4493 -0.3924
  118MOL   C26637940   2.473   6.381   1.680 -0.1422  0.8999  0.0184
  118MOL   H26737941   2.658   6.306   1.706 -0.8024 -0.0566  1.0222
  118MOL   H26837942   2.594   6.674   1.714  0.8947  1.1514 -0.0327
  118MOL   H26937943   2.672   6.824   1.917  0.4258 -0.1528 -0.4159
  118MOL   H27037944   2.811   6.464   2.108  1.8362  2.2919  0.1632
  118MOL   H27137945   2.744   6.331   1.908 -1.1638 -0.5775  0.1554
  118MOL   H27237946   2.430   6.473   1.640 -0.7842  1.0998  1.1559
  118MOL   H27337947   2.453   6.306   1.603  1.4925 -0.4734  0.8994
  118MOL   C27437948   2.404   6.349   1.817  0.4759  0.0117  0.1519
  118MOL   C27537949   2.259   6.390   1.817  0.5952  0.0454  0.3213
  118MOL   C27637950   2.159   6.298   1.779  0.8831  0.4760  0.0575
  118MOL   C27737951   2.020   6.335   1.788  0.1213  0.1177 -0.0278
  118MOL   C27837952   1.988   6.468   1.825 -0.7236 -0.5065  0.5376
  118MOL  Cl27937953   1.826   6.520   1.833 -0.2707  0.0307  0.2211
  118MOL   C28037954   2.089   6.558   1.854  0.6370 -0.2762  0.3045
  118MOL   C28137955   2.223   6.522   1.852 -0.3542  0.0834 -0.0173
  118MOL   C28237956   2.423   6.195   1.862 -0.0997 -0.1730 -0.4699
  118MOL   H28337957   2.448   6.413   1.895  1.3088 -0.0106 -0.2976
  118MOL   H28437958   2.182   6.196   1.754  1.6108  0.8763 -0.9788
  118MOL   H28537959   1.949   6.266   1.744 -0.1603  0.3776  0.0164
  118MOL   H28637960   2.064   6.659   1.883  0.3419 -0.2655  0.0101
  118MOL   H28737961   2.294   6.602   1.869 -1.4768  1.6097 -2.1668
  118MOL   H28837962   2.362   6.144   1.787  0.7754 -0.7528 -0.7940
  118MOL   H28937963   2.527   6.167   1.844  0.6354  0.4313  2.5346
  118MOL   C29037964   2.383   6.155   2.004 -0.6792 -0.4817  0.0513
  118MOL   C29137965   2.328   6.013   2.007  0.2836  0.5264  0.1311
  118MOL   C29237966   2.413   5.909   2.037  0.2806  0.5035  0.6951
  118MOL   C29337967   2.366   5.782   2.031  0.3563  0.0510  0.2181
  118MOL   C29437968   2.229   5.751   2.011  0.0911 -0.0677  0.3437
  118MOL  Cl29537969   2.175   5.581   2.024 -0.0558 -0.4514 -0.0350
  118MOL   C29637970   2.139   5.857   1.998  0.3345 -0.1588  0.0859
  118MOL   C29737971   2.193   5.987   1.983 -0.1233  0.4279  0.2734
  118MOL   C29837972   2.500   6.194   2.100  0.2122 -0.6272 -0.9126
  118MOL   H29937973   2.301   6.222   2.031  1.3132  2.2580 -0.5091
  118MOL   H30037974   2.517   5.927   2.061  1.1899 -0.6001 -2.1397
  118MOL   H30137975   2.434   5.702   2.058  0.7595  0.4701  0.4505
  118MOL   H30237976   2.034   5.833   1.994  0.0526  0.7075  1.7479
  118MOL   H30337977   2.133   6.076   1.968  1.7455  1.8624  1.0590
  118MOL   H30437978   2.589   6.138   2.073 -0.4586 -2.8020  1.2806
  118MOL   H30537979   2.506   6.303   2.095 -1.2210 -0.4274  1.0263
  118MOL   C30637980   2.495   6.162   2.254 -0.1309  0.1075 -0.2727
  118MOL   C30737981   2.629   6.166   2.325  0.0138 -0.0865 -0.5671
  118MOL   C30837982   2.685   6.065   2.410 -0.0220  0.5853 -0.2400
  118MOL   C30937983   2.817   6.078   2.464 -0.5904  0.4592 -0.3821
  118MOL   C31037984   2.892   6.195   2.444  0.5684 -0.2827 -0.5836
  118MOL  Cl31137985   3.044   6.222   2.519  0.2215  0.0014 -0.4310
  118MOL   C31237986   2.837   6.298   2.361  0.5643  0.9450 -0.6470
  118MOL   C31337987   2.716   6.274   2.300 -0.0329  0.2162 -0.0641
  118MOL   C31437988   2.381   6.232   2.321 -0.2989  0.6558 -0.4749
  118MOL   H31537989   2.467   6.057   2.261 -0.2870  0.1018 -0.9846
  118MOL   H31637990   2.638   5.970   2.429  0.1087  0.3845 -0.9175
  118MOL   H31737991   2.854   5.997   2.525 -1.8732  0.5936  0.5743
  118MOL   H31837992   2.896   6.381   2.325  0.6343  0.7430 -1.0061
  118MOL   H31937993   2.685   6.347   2.227  0.0289 -0.1423 -0.4518
  118MOL   H32037994   2.378   6.206   2.427  1.5141 -0.4757 -0.6742
  118MOL   H32137995   2.397   6.339   2.321 -1.7943  0.9018 -1.6395
  118MOL   H32237996   2.287   6.216   2.268  0.3818 -2.8126 -0.7806
  119MOL     C137997   6.174   1.389   3.983 -0.5417 -0.0823  0.4063
  119MOL     C237998   6.120   1.509   4.054  0.1767 -0.0258 -1.0326
  119MOL     C337999   6.194   1.612   4.116 -0.1891  0.2704  0.0571
  119MOL     C438000   6.132   1.724   4.177  0.2047  0.0311 -0.1797
  119MOL     C538001   5.989   1.716   4.196 -0.0234 -0.3293 -0.6574
  119MOL    Cl638002   5.913   1.843   4.280 -0.0449  0.1638  0.0174
  119MOL     C738003   5.915   1.611   4.150  0.7964  0.9314 -0.7771
  119MOL     C838004   5.979   1.512   4.076 -0.0193  0.5060 -0.5530
  119MOL     C938005   6.304   1.412   3.904 -0.2358  0.2038  1.0828
  119MOL    H1038006   6.100   1.346   3.916  2.5754 -1.7859 -2.0863
  119MOL    H1138007   6.301   1.615   4.111 -0.2441  0.5147 -1.0506
  119MOL    H1238008   6.187   1.807   4.218  0.3123 -0.7399  1.2642
  119MOL    H1338009   5.809   1.619   4.171  0.9152 -1.3882  0.8717
  119MOL    H1438010   5.911   1.439   4.034 -2.2457  0.6902  2.5610
  119MOL    H1538011   6.286   1.486   3.825 -0.7982  0.4597  1.4461
  119MOL    H1638012   6.376   1.450   3.976 -0.1918  0.8686  0.6990
  119MOL    H1738013   6.199   1.316   4.060 -2.4405  0.1783  1.2884
  119MOL    C1838014   6.368   1.294   3.838  0.5818 -0.3115  0.5015
  119MOL    C1938015   6.487   1.330   3.750  0.7676  0.3459  0.0781
  119MOL    C2038016   6.483   1.294   3.613  0.0314  0.1091 -0.3283
  119MOL    C2138017   6.595   1.323   3.530  0.1215 -0.5460  0.1676
  119MOL    C2238018   6.706   1.395   3.585 -0.6602 -0.0691  0.5666
  119MOL   Cl2338019   6.837   1.445   3.488 -0.2131  0.2163 -0.5308
  119MOL    C2438020   6.711   1.422   3.725  0.4614  0.5572 -0.0914
  119MOL    C2538021   6.596   1.405   3.799 -0.3385  0.6668 -0.6644
  119MOL    C2638022   6.411   1.178   3.931 -0.2642  0.4414  0.5719
  119MOL    H2738023   6.300   1.258   3.760  1.1324  3.4287 -1.8172
  119MOL    H2838024   6.394   1.248   3.571 -0.1211 -1.1807  1.3115
  119MOL    H2938025   6.594   1.304   3.423  0.7033  2.6810 -0.4600
  119MOL    H3038026   6.802   1.462   3.767  1.1844  0.9105 -1.9565
  119MOL    H3138027   6.584   1.431   3.904 -0.3544  0.4224 -0.6054
  119MOL    H3238028   6.502   1.141   3.884 -0.7082 -0.2657  0.2748
  119MOL    H3338029   6.452   1.225   4.021  1.4820  2.2487 -1.1152
  119MOL    C3438030   6.319   1.062   3.961 -0.3481 -0.1807 -0.4150
  119MOL    C3538031   6.272   0.996   3.833  0.2418  0.2836  0.1998
  119MOL    C3638032   6.365   0.956   3.729  0.7592 -0.2120 -0.6794
  119MOL    C3738033   6.317   0.884   3.616 -0.1480 -0.3049 -0.0461
  119MOL    C3838034   6.186   0.837   3.617  0.0198 -0.2590  0.0286
  119MOL   Cl3938035   6.123   0.738   3.485 -0.1430  0.0262  0.2459
  119MOL    C4038036   6.096   0.872   3.722  0.1875 -0.7802 -0.0157
  119MOL    C4138037   6.139   0.956   3.827 -0.3597  0.3471  0.5911
  119MOL    C4238038   6.390   0.964   4.058  0.0694 -0.0713  0.2495
  119MOL    H4338039   6.231   1.105   4.009  0.1416  2.5032 -1.8188
  119MOL    H4438040   6.464   0.998   3.733  0.4259  0.6552 -1.3973
  119MOL    H4538041   6.376   0.865   3.527  2.6997 -0.6153  1.8567
  119MOL    H4638042   5.994   0.838   3.710  0.1990 -0.6838 -0.3992
  119MOL    H4738043   6.061   0.979   3.899  0.5814 -0.1516  1.7801
  119MOL    H4838044   6.339   0.867   4.062 -0.6552  0.2702 -0.7655
  119MOL    H4938045   6.491   0.944   4.021  0.0345  0.1198  0.0556
  119MOL    C5038046   6.400   1.017   4.203  0.6531  0.1260 -0.6289
  119MOL    C5138047   6.277   1.093   4.252 -0.7647  0.3412 -0.5145
  119MOL    C5238048   6.290   1.228   4.287 -0.4839 -0.3234 -0.1309
  119MOL    C5338049   6.181   1.300   4.343 -0.6233  0.2538 -0.0806
  119MOL    C5438050   6.051   1.240   4.356 -0.1865  0.0208  0.0892
  119MOL   Cl5538051   5.925   1.330   4.410 -0.3862  0.1995  0.0935
  119MOL    C5638052   6.038   1.103   4.321  0.4004 -0.0368  0.1174
  119MOL    C5738053   6.146   1.035   4.263  0.1817 -0.5158  0.2197
  119MOL    C5838054   6.434   0.903   4.303  0.2143  0.0127 -0.5901
  119MOL    H5938055   6.483   1.088   4.199  0.8754 -0.1883 -1.6394
  119MOL    H6038056   6.389   1.269   4.274 -0.7935  0.8313  1.0794
  119MOL    H6138057   6.183   1.407   4.357 -0.6018  0.3520 -0.8111
  119MOL    H6238058   5.946   1.049   4.340  0.4322 -0.7255 -1.5303
  119MOL    H6338059   6.139   0.935   4.225 -1.4045 -1.0018  1.7400
  119MOL    H6438060   6.426   0.945   4.403  2.8360  0.7377 -0.6567
  119MOL    H6538061   6.358   0.825   4.305 -0.3591  0.5995  2.2550
  119MOL    C6638062   6.556   0.818   4.282 -0.2807  0.1699 -1.0176
  119MOL    C6738063   6.686   0.890   4.268  0.6168 -0.7021 -0.2125
  119MOL    C6838064   6.782   0.856   4.174 -0.2261  0.3112  0.1069
  119MOL    C6938065   6.900   0.935   4.152 -0.1588  0.2631 -0.3791
  119MOL    C7038066   6.923   1.048   4.231  0.0941 -0.0031 -0.0150
  119MOL   Cl7138067   7.057   1.141   4.203 -0.4200  0.2743  0.2321
  119MOL    C7238068   6.831   1.087   4.328 -0.4600 -0.2859  0.3490
  119MOL    C7338069   6.713   1.003   4.349 -0.1266  0.2075 -0.3622
  119MOL    C7438070   6.563   0.703   4.392  0.0389 -0.2107  0.1067
  119MOL    H7538071   6.536   0.775   4.183 -1.8781 -0.2422 -0.5461
  119MOL    H7638072   6.754   0.777   4.106 -1.3104 -0.0574  0.9721
  119MOL    H7738073   6.967   0.911   4.070  0.6788  1.0644  0.0599
  119MOL    H7838074   6.844   1.178   4.384  1.7039  0.7364 -1.6977
  119MOL    H7938075   6.644   1.021   4.430 -1.6409 -0.8238 -1.3875
  119MOL    H8038076   6.665   0.674   4.414  0.1934 -1.5267 -2.1918
  119MOL    H8138077   6.517   0.741   4.483 -1.3383 -0.8618 -0.3081
  119MOL    C8238078   6.478   0.576   4.337  0.3094  0.0800 -0.4614
  119MOL    C8338079   6.554   0.513   4.214  0.2885  0.2778 -0.1036
  119MOL    C8438080   6.683   0.458   4.234 -0.4454 -0.4816 -0.8019
  119MOL    C8538081   6.745   0.399   4.127 -0.5292 -0.8625  0.6387
  119MOL    C8638082   6.688   0.401   3.995 -0.3842  0.3077 -0.0992
  119MOL   Cl8738083   6.772   0.318   3.863 -0.0964 -0.1983  0.0993
  119MOL    C8838084   6.558   0.452   3.978  0.1502 -0.4994 -0.1732
  119MOL    C8938085   6.490   0.507   4.088  0.7771  0.2406  0.3780
  119MOL    C9038086   6.444   0.483   4.461 -0.3816 -0.5849  0.1025
  119MOL    H9138087   6.383   0.606   4.293  0.0598  0.1119  0.0835
  119MOL    H9238088   6.723   0.464   4.334  0.8442 -0.5902 -1.3038
  119MOL    H9338089   6.844   0.356   4.140  0.0939  0.5573  0.7282
  119MOL    H9438090   6.511   0.460   3.881 -1.3783  1.4550  0.6819
  119MOL    H9538091   6.387   0.539   4.075  0.6251 -0.1743  0.5610
  119MOL    H9638092   6.420   0.384   4.422  0.0518 -0.4049 -0.6398
  119MOL    H9738093   6.535   0.477   4.521 -0.3322 -1.4969 -0.0431
  119MOL    C9838094   6.330   0.534   4.544  0.6910  0.0773 -0.1983
  119MOL    C9938095   6.200   0.540   4.469  0.1453  0.2023 -0.1799
  119MOL   C10038096   6.131   0.659   4.448 -0.1651 -0.7451  0.7287
  119MOL   C10138097   6.004   0.655   4.386  0.1238  0.3113  0.0844
  119MOL   C10238098   5.941   0.533   4.350 -0.4629 -0.2951 -0.4852
  119MOL  Cl10338099   5.791   0.531   4.272  0.1553 -0.0659  0.2124
  119MOL   C10438100   6.006   0.413   4.377 -0.2435 -0.4038 -0.2790
  119MOL   C10538101   6.132   0.417   4.437 -0.1898 -0.0407 -0.2716
  119MOL   C10638102   6.320   0.477   4.692 -0.4905  0.5965 -0.0306
  119MOL   H10738103   6.356   0.638   4.565  0.4699 -0.0988  0.9788
  119MOL   H10838104   6.179   0.754   4.464 -0.6024 -0.1688 -1.2886
  119MOL   H10938105   5.935   0.738   4.377 -1.4705 -1.0892 -0.9232
  119MOL   H11038106   5.954   0.320   4.360 -0.3780 -0.3518 -0.1523
  119MOL   H11138107   6.160   0.319   4.471  1.0250 -0.7087 -3.0386
  119MOL   H11238108   6.290   0.372   4.698  0.2144  0.4156  0.3719
  119MOL   H11338109   6.425   0.463   4.719 -0.8043 -1.2185  0.2967
  119MOL   C11438110   6.235   0.552   4.797 -0.1780 -0.5091  0.0160
  119MOL   C11538111   6.080   0.551   4.785 -0.3771 -0.2972 -0.3841
  119MOL   C11638112   6.005   0.661   4.754  0.1684 -0.2872  0.5728
  119MOL   C11738113   5.867   0.646   4.725 -0.8126 -0.5911  0.3960
  119MOL   C11838114   5.803   0.521   4.730 -0.1668 -0.1444 -0.4812
  119MOL  Cl11938115   5.634   0.505   4.695 -0.3911 -0.2711 -0.2776
  119MOL   C12038116   5.877   0.410   4.770  0.2874  0.0990 -0.4573
  119MOL   C12138117   6.015   0.425   4.797 -0.4201 -0.0618  1.1694
  119MOL   C12238118   6.269   0.504   4.936 -0.1965  0.3155 -0.2715
  119MOL   H12338119   6.275   0.652   4.785  2.8118 -1.0678  4.3381
  119MOL   H12438120   6.054   0.752   4.727 -1.0033  0.1349 -0.1753
  119MOL   H12538121   5.805   0.733   4.706 -2.2378 -1.8612 -0.9241
  119MOL   H12638122   5.832   0.313   4.784  0.3621  0.0724 -0.4014
  119MOL   H12738123   6.070   0.336   4.824  2.2961  1.3627  0.4682
  119MOL   H12838124   6.205   0.422   4.969  0.6486 -0.8626 -1.5498
  119MOL   H12938125   6.357   0.441   4.928 -0.6556 -0.4465  0.6179
  119MOL   C13038126   6.288   0.609   5.048  0.9585  0.9006  0.1816
  119MOL   C13138127   6.164   0.702   5.053 -0.4629 -0.7018 -0.3823
  119MOL   C13238128   6.037   0.652   5.094  0.3815 -0.1148 -0.5032
  119MOL   C13338129   5.921   0.730   5.104 -0.2031 -0.2059 -0.8456
  119MOL   C13438130   5.932   0.860   5.069 -0.0175 -0.4805 -0.7655
  119MOL  Cl13538131   5.786   0.956   5.047  0.2154 -0.2338 -0.3488
  119MOL   C13638132   6.056   0.922   5.032 -0.6884 -0.1004 -0.6868
  119MOL   C13738133   6.171   0.838   5.016 -0.3212 -0.4387  0.3424
  119MOL   C13838134   6.333   0.564   5.194 -0.3596 -0.3234  0.3286
  119MOL   H13938135   6.359   0.673   4.997  0.5250  0.7205 -0.6606
  119MOL   H14038136   6.035   0.548   5.120 -3.2997 -0.4685 -1.9289
  119MOL   H14138137   5.827   0.690   5.140  0.2468  0.1559  0.7561
  119MOL   H14238138   6.057   1.029   5.020 -0.7059  0.1067  1.0298
  119MOL   H14338139   6.264   0.885   4.987 -0.3376 -1.0359 -0.7106
  119MOL   H14438140   6.349   0.653   5.256 -2.2752 -0.2669  0.7780
  119MOL   H14538141   6.252   0.509   5.241  0.1758 -1.2146  0.2293
  119MOL   C14638142   6.453   0.476   5.195  0.4121 -0.2071  0.1437
  119MOL   C14738143   6.577   0.530   5.106 -0.1094 -0.0288  0.4396
  119MOL   C14838144   6.644   0.442   5.020 -0.0981  0.4623  0.0528
  119MOL   C14938145   6.762   0.484   4.951  0.7883 -0.5854  0.0401
  119MOL   C15038146   6.805   0.619   4.962 -0.1363  0.1836  0.2721
  119MOL  Cl15138147   6.947   0.679   4.886 -0.3993  0.4746  0.0617
  119MOL   C15238148   6.725   0.711   5.040  0.2148  0.1627 -0.4627
  119MOL   C15338149   6.620   0.658   5.120  0.1611  0.7959  1.2320
  119MOL   C15438150   6.490   0.434   5.327 -0.0548  0.1940 -0.1853
  119MOL   H15538151   6.427   0.391   5.132  0.1634 -0.1697  0.1963
  119MOL   H15638152   6.613   0.339   5.023 -0.0060  0.3846 -1.4737
  119MOL   H15738153   6.823   0.421   4.888  0.9450 -0.4443  0.0512
  119MOL   H15838154   6.748   0.816   5.051 -2.1168  0.4715  2.1135
  119MOL   H15938155   6.571   0.727   5.187 -0.2935  1.3862  0.3028
  119MOL   H16038156   6.560   0.502   5.375  0.1457  0.4910 -0.8896
  119MOL   H16138157   6.404   0.452   5.391 -0.2489 -0.9090 -0.1216
  119MOL   C16238158   6.530   0.283   5.322 -0.2139  0.0441 -0.7105
  119MOL   C16338159   6.673   0.272   5.368 -0.2728 -0.3106 -0.1051
  119MOL   C16438160   6.773   0.264   5.279  0.0464  0.2418  0.2976
  119MOL   C16538161   6.903   0.232   5.312  0.3264  0.4415 -0.2107
  119MOL   C16638162   6.935   0.196   5.440 -0.6194  0.0572 -0.2103
  119MOL  Cl16738163   7.096   0.151   5.486  0.3290 -0.0564  0.0440
  119MOL   C16838164   6.834   0.212   5.539 -1.1261 -0.3143  0.3936
  119MOL   C16938165   6.703   0.255   5.503  0.4806 -1.1627 -0.1194
  119MOL   C17038166   6.431   0.184   5.393 -0.5376 -0.7094 -0.0514
  119MOL   H17138167   6.539   0.246   5.220  0.4735 -1.9689  0.0616
  119MOL   H17238168   6.766   0.282   5.173  2.3932  1.4082  0.3054
  119MOL   H17338169   6.978   0.215   5.236  1.8009  1.0263  1.0960
  119MOL   H17438170   6.857   0.185   5.641 -1.7453  0.3700  0.7186
  119MOL   H17538171   6.624   0.274   5.575  0.5026  1.7366 -0.7906
  119MOL   H17638172   6.433   0.222   5.495 -0.6772  1.1857 -0.7409
  119MOL   H17738173   6.331   0.196   5.351 -0.9752 -3.4932  0.0815
  119MOL   C17838174   6.468   0.035   5.401  0.5681  0.2143  0.1488
  119MOL   C17938175   6.369   8.412   5.496  0.5682  0.0334  0.5372
  119MOL   C18038176   6.233   8.378   5.458 -0.0451 -0.8494 -0.0877
  119MOL   C18138177   6.148   8.321   5.552 -0.4961  0.1063 -0.0439
  119MOL   C18238178   6.191   8.296   5.682  0.2733  0.2930 -1.0325
  119MOL  Cl18338179   6.088   8.213   5.787 -0.1627 -0.4269 -0.0135
  119MOL   C18438180   6.319   8.331   5.729  0.0437 -0.0462 -0.9920
  119MOL   C18538181   6.406   8.396   5.633  0.2065  0.0618 -0.9123
  119MOL   C18638182   6.480   8.412   5.261 -0.1741  0.0848  0.3140
  119MOL   H18738183   6.568   0.021   5.442  0.3113  1.2041  1.1263
  119MOL   H18838184   6.199   8.404   5.359 -0.5973 -0.0280  0.3197
  119MOL   H18938185   6.047   8.293   5.527 -0.8190  1.7736 -0.6363
  119MOL   H19038186   6.340   8.321   5.835  0.4535 -0.8277 -1.1397
  119MOL   H19138187   6.506   8.430   5.657 -0.3795  1.4517 -0.3802
  119MOL   H19238188   6.388   0.003   5.213  0.4067  0.1321 -0.7803
  119MOL   H19338189   6.544   0.029   5.197 -2.8509  1.1120 -1.4738
  119MOL   C19438190   6.517   8.261   5.247 -0.6683 -0.0126 -0.0353
  119MOL   C19538191   6.422   8.160   5.303  0.2636 -0.4766 -0.0010
  119MOL   C19638192   6.306   8.124   5.228 -0.2368 -0.2543  0.3240
  119MOL   C19738193   6.212   8.029   5.286 -0.1985  0.0034  0.5618
  119MOL   C19838194   6.241   7.971   5.406 -0.0637  0.9197 -0.5873
  119MOL  Cl19938195   6.144   7.847   5.485  0.0430 -0.4165 -0.2001
  119MOL   C20038196   6.353   8.009   5.480 -0.1001 -0.3213  0.3000
  119MOL   C20138197   6.449   8.097   5.424 -0.4535  0.4373 -0.2646
  119MOL   C20238198   6.543   8.238   5.093 -1.2231  0.4850 -0.0881
  119MOL   H20338199   6.607   8.241   5.307 -1.6184  0.0954  1.4571
  119MOL   H20438200   6.276   8.171   5.136 -2.8642  0.7043  1.6011
  119MOL   H20538201   6.120   8.001   5.237  0.1660 -1.7821  0.8872
  119MOL   H20638202   6.379   7.952   5.568  0.6300 -2.0677 -0.9924
  119MOL   H20738203   6.531   8.130   5.485 -1.2447  1.8231  0.0832
  119MOL   H20838204   6.446   8.219   5.045 -1.6768  0.7569  0.7039
  119MOL   H20938205   6.573   8.331   5.044  2.1177  0.1722  1.2359
  119MOL   C21038206   6.645   8.134   5.053 -0.6845 -0.3054 -0.1125
  119MOL   C21138207   6.593   8.000   5.090  0.4750 -0.2671 -0.0431
  119MOL   C21238208   6.489   7.932   5.017  0.4525 -0.9197  0.1327
  119MOL   C21338209   6.447   7.803   5.054 -0.0818 -0.0897  0.3997
  119MOL   C21438210   6.515   7.728   5.146  0.5738 -0.1309 -0.9516
  119MOL  Cl21538211   6.468   7.568   5.187  0.4143 -0.0810  0.0221
  119MOL   C21638212   6.614   7.796   5.223  0.1867  0.3118  0.0355
  119MOL   C21738213   6.658   7.925   5.192  0.0955 -0.0960 -0.4200
  119MOL   C21838214   6.690   8.154   4.901  0.1700  0.3607 -0.5115
  119MOL   H21938215   6.729   8.153   5.120 -1.8210  1.2260  0.9174
  119MOL   H22038216   6.435   7.978   4.935  1.5180  0.8850  0.4301
  119MOL   H22138217   6.361   7.766   5.001  0.6858  1.2296 -1.8495
  119MOL   H22238218   6.659   7.733   5.298 -0.0453  1.0802  0.8306
  119MOL   H22338219   6.731   7.973   5.255  1.2738 -1.7178 -0.5194
  119MOL   H22438220   6.599   8.152   4.841  0.0143  1.4795 -0.3125
  119MOL   H22538221   6.719   8.256   4.876 -1.8146  0.9220 -0.6085
  119MOL   C22638222   6.785   8.049   4.846  0.2128  0.4609 -0.2185
  119MOL   C22738223   6.766   8.018   4.696 -0.7023 -0.6192 -0.1614
  119MOL   C22838224   6.767   8.127   4.605  0.4224  0.3789 -0.2080
  119MOL   C22938225   6.725   8.103   4.467 -0.0059 -0.1703  0.2601
  119MOL   C23038226   6.705   7.976   4.423  0.1768  0.1564  0.0972
  119MOL  Cl23138227   6.678   7.936   4.257  0.2046 -0.3371 -0.0438
  119MOL   C23238228   6.718   7.867   4.514  0.1291  0.3736 -0.0669
  119MOL   C23338229   6.747   7.888   4.651 -0.0951 -1.4035 -0.0816
  119MOL   C23438230   6.931   8.083   4.889  0.0373 -0.8145 -0.1302
  119MOL   H23538231   6.753   7.957   4.894  0.4334 -0.5756 -2.0293
  119MOL   H23638232   6.786   8.228   4.637 -1.7833  0.1718  2.0062
  119MOL   H23738233   6.713   8.184   4.397  0.3372 -0.9590 -0.7050
  119MOL   H23838234   6.680   7.769   4.489 -2.8367  1.4076  0.1629
  119MOL   H23938235   6.747   7.805   4.720  2.4682  0.6040  2.4390
  119MOL   H24038236   6.962   8.184   4.860 -0.8285 -0.3041  0.6741
  119MOL   H24138237   6.942   8.083   4.998 -4.9226  2.0900  0.5253
  119MOL   C24238238   7.038   7.992   4.834  0.3877 -0.3444  0.4696
  119MOL   C24338239   7.125   8.070   4.735  0.8565 -0.0678  0.7620
  119MOL   C24438240   7.224   8.163   4.782 -0.3351 -0.0517  0.9898
  119MOL   C24538241   7.308   8.228   4.695 -0.3203  0.0417  0.1371
  119MOL   C24638242   7.303   8.200   4.559 -0.4435 -0.2701  0.4161
  119MOL  Cl24738243   7.413   8.268   4.447  0.0668  0.0561 -0.3428
  119MOL   C24838244   7.207   8.101   4.512 -0.0346 -0.3799 -0.3273
  119MOL   C24938245   7.121   8.041   4.601 -0.6274  0.5100  0.4422
  119MOL   C25038246   7.129   7.932   4.934  0.1095  0.2580 -0.8433
  119MOL   H25138247   6.994   7.907   4.782  1.0382 -0.7783  0.6261
  119MOL   H25238248   7.227   8.203   4.883  0.4791 -0.8256  1.2750
  119MOL   H25338249   7.374   8.309   4.723  1.5999 -0.6764 -2.1568
  119MOL   H25438250   7.199   8.085   4.405 -3.6500  1.1602 -0.3709
  119MOL   H25538251   7.047   7.976   4.557  0.4575  0.4129 -1.3023
  119MOL   H25638252   7.219   7.887   4.892 -0.0772  0.0204 -0.9882
  119MOL   H25738253   7.174   8.008   4.998 -0.8138  0.2279 -0.1507
  119MOL   C25838254   7.062   7.825   5.027 -0.2067  0.0811 -0.0967
  119MOL   C25938255   7.005   7.712   4.937  0.4946  0.4335 -0.2955
  119MOL   C26038256   6.862   7.686   4.932  0.0958  0.4305  0.5307
  119MOL   C26138257   6.807   7.594   4.842  0.5926 -0.1782  0.2934
  119MOL   C26238258   6.892   7.516   4.758 -0.1208 -0.5288  0.8759
  119MOL  Cl26338259   6.826   7.408   4.648 -0.1627 -0.0231 -0.4002
  119MOL   C26438260   7.037   7.532   4.766 -0.2443 -0.1069  0.5356
  119MOL   C26538261   7.089   7.637   4.848  0.4352  0.1609  0.2826
  119MOL   C26638262   7.160   7.770   5.127 -0.5240 -0.0897  0.1585
  119MOL   H26738263   6.977   7.864   5.082 -0.4814 -0.8188  0.1233
  119MOL   H26838264   6.793   7.749   4.986  0.2160 -0.4765  1.7532
  119MOL   H26938265   6.700   7.584   4.830  0.5212 -0.8358  1.4030
  119MOL   H27038266   7.113   7.471   4.721  0.4714  1.9923 -1.1744
  119MOL   H27138267   7.194   7.661   4.843  0.5636 -0.6764 -1.5120
  119MOL   H27238268   7.222   7.695   5.079 -1.1480 -1.3281  1.2518
  119MOL   H27338269   7.229   7.845   5.166  0.1248  0.2093 -1.5312
  119MOL   C27438270   7.089   7.710   5.252  0.4324 -0.5914  0.5430
  119MOL   C27538271   7.174   7.599   5.307  0.3909 -0.1909  0.1723
  119MOL   C27638272   7.122   7.469   5.302  0.4440 -0.0186  0.2811
  119MOL   C27738273   7.190   7.355   5.352 -0.1769  0.8131  0.5592
  119MOL   C27838274   7.308   7.381   5.428 -0.6517  0.2969  0.6254
  119MOL  Cl27938275   7.386   7.252   5.513  0.0246 -0.1135  0.2420
  119MOL   C28038276   7.363   7.509   5.429  0.3620  0.9637  0.1364
  119MOL   C28138277   7.302   7.615   5.366  0.8056  0.1595  0.3000
  119MOL   C28238278   7.049   7.811   5.361  0.5159  0.0677 -0.4978
  119MOL   H28338279   7.000   7.667   5.207 -0.6313 -0.2082  2.2075
  119MOL   H28438280   7.027   7.446   5.257  0.9480  0.8251 -1.2204
  119MOL   H28538281   7.149   7.255   5.347 -2.2764  1.7268 -1.7472
  119MOL   H28638282   7.452   7.519   5.490  1.0843  1.0690 -0.9250
  119MOL   H28738283   7.337   7.715   5.386 -1.6533  0.9744  0.6276
  119MOL   H28838284   7.140   7.854   5.404 -0.4589  2.1776 -0.4759
  119MOL   H28938285   7.004   7.892   5.305  0.2219  2.5163  3.0993
  119MOL   C29038286   6.949   7.765   5.478  0.1677  0.3070  0.0293
  119MOL   C29138287   7.012   7.682   5.592 -0.2799  0.3220  0.0299
  119MOL   C29238288   6.984   7.540   5.605 -0.5139 -0.4030 -0.5976
  119MOL   C29338289   7.038   7.474   5.720 -0.1058 -0.9021  0.1934
  119MOL   C29438290   7.119   7.532   5.820 -0.4989 -0.1740 -0.0023
  119MOL  Cl29538291   7.159   7.441   5.963 -0.2647 -0.0139  0.2741
  119MOL   C29638292   7.144   7.666   5.813 -0.2175  0.6165  0.3842
  119MOL   C29738293   7.094   7.739   5.700 -0.4525 -0.7000  0.8782
  119MOL   C29838294   6.892   7.907   5.531 -0.3170 -0.0441 -0.8271
  119MOL   H29938295   6.862   7.707   5.449  0.1504 -0.2980  1.2940
  119MOL   H30038296   6.911   7.487   5.544 -1.9387 -0.5089  1.1664
  119MOL   H30138297   7.012   7.370   5.732 -1.4510 -0.7554 -1.2498
  119MOL   H30238298   7.211   7.708   5.887 -0.3106 -0.6725  1.2218
  119MOL   H30338299   7.110   7.845   5.686 -1.3665 -0.7403 -0.4914
  119MOL   H30438300   6.980   7.958   5.569 -1.8943  1.6553  0.6534
  119MOL   H30538301   6.860   7.974   5.452 -1.8064  1.3613  0.9287
  119MOL   C30638302   6.779   7.901   5.638 -0.2416 -0.0503 -0.1903
  119MOL   C30738303   6.754   8.040   5.695  0.9050 -0.0929 -0.3997
  119MOL   C30838304   6.707   8.052   5.823 -0.6768 -0.2876 -0.1897
  119MOL   C30938305   6.673   8.176   5.880 -0.1042 -0.0682 -0.3152
  119MOL   C31038306   6.706   8.290   5.812  0.1660 -0.2153 -0.2770
  119MOL  Cl31138307   6.677   8.436   5.892 -0.0895 -0.3726  0.0836
  119MOL   C31238308   6.752   8.282   5.678 -0.4000 -0.0611  0.8706
  119MOL   C31338309   6.772   8.157   5.618 -0.3153 -0.1268 -0.2476
  119MOL   C31438310   6.653   7.838   5.590 -0.3319  0.4608 -0.1101
  119MOL   H31538311   6.814   7.839   5.721 -1.7680  1.4057  1.5870
  119MOL   H31638312   6.676   7.963   5.876  1.5351 -0.2888  1.1312
  119MOL   H31738313   6.631   8.183   5.980  1.7719  1.2555  0.3974
  119MOL   H31838314   6.765   8.370   5.618  1.5714 -0.8342  0.1306
  119MOL   H31938315   6.803   8.154   5.515  1.4924 -0.1485  0.2910
  119MOL   H32038316   6.579   7.831   5.670  0.4826 -1.0329  0.5250
  119MOL   H32138317   6.602   7.901   5.516 -0.1993  0.0796 -0.5279
  119MOL   H32238318   6.662   7.735   5.555 -1.1898  0.0869  0.7584
  120MOL     C138319   0.463   7.957   1.132 -0.0134 -0.3219  0.0925
  120MOL     C238320   0.423   7.826   1.198 -0.0853  0.4587 -0.2392
  120MOL     C338321   0.287   7.806   1.241 -0.6271 -0.3479 -0.1907
  120MOL     C438322   0.257   7.693   1.316  0.1861 -0.5278  0.9245
  120MOL     C538323   0.351   7.599   1.349 -0.9085  0.4877 -0.1613
  120MOL    Cl638324   0.311   7.460   1.436 -0.4936  0.0849 -0.1573
  120MOL     C738325   0.488   7.616   1.304  0.6204 -0.3515  0.0434
  120MOL     C838326   0.522   7.730   1.227  0.7661  0.8744  0.3154
  120MOL     C938327   0.426   8.089   1.199  0.3473  0.6449  0.0533
  120MOL    H1038328   0.421   7.950   1.031 -1.8981  0.1385  0.8298
  120MOL    H1138329   0.212   7.879   1.214  0.8095  0.6622 -1.6403
  120MOL    H1238330   0.155   7.670   1.344  0.0527 -1.9242 -0.6176
  120MOL    H1338331   0.557   7.537   1.327 -0.4062 -0.3126  3.5327
  120MOL    H1438332   0.622   7.753   1.194  1.3286 -1.0591  0.6183
  120MOL    H1538333   0.351   8.068   1.275  1.3190 -1.9492  0.3482
  120MOL    H1638334   0.518   8.114   1.252  0.2963 -0.0823  0.4859
  120MOL    H1738335   0.572   7.962   1.126 -0.0919 -0.7571 -2.2850
  120MOL    C1838336   0.390   8.207   1.097 -0.3305  0.6575 -0.2838
  120MOL    C1938337   0.273   8.166   1.003  0.3159 -0.4499  0.6667
  120MOL    C2038338   0.148   8.129   1.055 -0.2633 -0.3061  0.0134
  120MOL    C2138339   0.041   8.078   0.970 -0.1139  0.2959  0.5431
  120MOL    C2238340   0.065   8.080   0.830 -0.2427  1.0039  0.2326
  120MOL   Cl2338341   8.392   8.025   0.712 -0.2286  0.3434 -0.1840
  120MOL    C2438342   0.182   8.133   0.772  0.3632 -0.2204 -1.2647
  120MOL    C2538343   0.287   8.176   0.862 -0.4676  0.0868 -0.5150
  120MOL    C2638344   0.347   8.327   1.185  0.0375  0.0648 -0.2529
  120MOL    H2738345   0.483   8.220   1.043 -0.0666 -2.7359 -0.7608
  120MOL    H2838346   0.133   8.145   1.161  1.6211  1.6703  0.0266
  120MOL    H2938347   8.389   8.048   1.010 -2.8931  1.0696 -5.0220
  120MOL    H3038348   0.191   8.151   0.666  1.1614  0.5937 -1.0572
  120MOL    H3138349   0.377   8.219   0.822 -0.5012  0.7016  0.0647
  120MOL    H3238350   0.253   8.305   1.236  0.0458 -2.0134 -1.1042
  120MOL    H3338351   0.412   8.325   1.272 -0.3435 -3.0767  0.0135
  120MOL    C3438352   0.342   0.021   1.110  0.5656 -0.4980 -0.1651
  120MOL    C3538353   0.219   0.017   1.021  0.0380  0.4519 -0.7781
  120MOL    C3638354   0.088   0.014   1.068 -0.2907 -0.6509  0.4652
  120MOL    C3738355   8.424   0.001   0.977  0.0786  0.2954 -0.4146
  120MOL    C3838356   8.441   0.013   0.839  0.3668  0.2197 -0.0168
  120MOL   Cl3938357   8.300   0.012   0.737 -0.1362  0.4451 -0.2735
  120MOL    C4038358   0.129   0.037   0.794  0.1247  0.8773  0.5957
  120MOL    C4138359   0.238   0.036   0.883  0.1219 -1.2480  0.7727
  120MOL    C4238360   0.334   0.140   1.211 -0.7455 -0.0571 -0.4074
  120MOL    H4338361   0.426   0.039   1.043 -0.6372  1.3921 -1.2073
  120MOL    H4438362   0.074   0.009   1.175  0.2122 -2.5729  0.4567
  120MOL    H4538363   8.323   8.437   1.015  0.5439 -0.0151  0.8188
  120MOL    H4638364   0.146   0.059   0.690  0.9199 -0.8095  0.3402
  120MOL    H4738365   0.339   0.047   0.847 -0.1570  1.3339  0.6374
  120MOL    H4838366   0.291   0.225   1.158  0.6682  1.8654  1.4714
  120MOL    H4938367   0.263   0.113   1.289 -1.7753  0.7195 -1.0630
  120MOL    C5038368   0.473   0.186   1.265 -0.3525  0.1113  0.2628
  120MOL    C5138369   0.582   0.210   1.163 -0.0170 -0.0393  1.2029
  120MOL    C5238370   0.702   0.136   1.167 -0.0743  0.1940  0.2933
  120MOL    C5338371   0.803   0.152   1.069  0.3556 -0.0534  0.4088
  120MOL    C5438372   0.778   0.232   0.957 -0.1503 -0.1559 -0.1842
  120MOL   Cl5538373   0.905   0.237   0.836  0.2545 -0.3353 -0.0207
  120MOL    C5638374   0.666   0.312   0.959 -0.5307 -0.4933  0.4317
  120MOL    C5738375   0.563   0.301   1.055  0.3487  0.1772  0.5121
  120MOL    C5838376   0.456   0.300   1.359  0.1711 -0.1754 -0.4434
  120MOL    H5938377   0.500   0.093   1.316 -0.2774  0.0419  0.0932
  120MOL    H6038378   0.720   0.068   1.249  0.3517 -1.3595 -1.0626
  120MOL    H6138379   0.889   0.087   1.072  0.1803 -0.4673 -2.3254
  120MOL    H6238380   0.657   0.375   0.871 -0.0515 -1.6514 -0.4616
  120MOL    H6338381   0.468   0.350   1.039  1.1533  1.2035 -1.2026
  120MOL    H6438382   0.548   0.358   1.356  0.4205 -0.5065  0.6139
  120MOL    H6538383   0.371   0.353   1.317  0.1743 -0.3948 -0.7232
  120MOL    C6638384   0.447   0.256   1.504  0.0608 -0.9655  0.3393
  120MOL    C6738385   0.582   0.211   1.562 -0.4013 -0.2256 -0.0829
  120MOL    C6838386   0.611   0.072   1.577  0.1232  0.6908  0.2528
  120MOL    C6938387   0.736   0.031   1.614  0.2391  0.1380  0.6768
  120MOL    C7038388   0.831   0.130   1.647 -0.2388 -0.1348  0.0503
  120MOL   Cl7138389   0.986   0.084   1.702 -0.4277 -0.1659 -0.2995
  120MOL    C7238390   0.805   0.266   1.641 -0.4444  0.0761 -0.2014
  120MOL    C7338391   0.681   0.307   1.596  0.9075  0.2422 -0.4188
  120MOL    C7438392   0.389   0.362   1.600 -0.0535  0.0097  0.3536
  120MOL    H7538393   0.384   0.169   1.522 -0.3349 -1.1707 -1.9253
  120MOL    H7638394   0.547   8.432   1.551 -0.1246  0.8655  0.3147
  120MOL    H7738395   0.753   8.368   1.624 -1.3413 -0.1825  0.1004
  120MOL    H7838396   0.871   0.344   1.676  0.3475 -0.6867  0.0012
  120MOL    H7938397   0.645   0.409   1.600  0.6305  0.1076  0.6166
  120MOL    H8038398   0.423   0.344   1.702 -1.5387  0.4828  0.9562
  120MOL    H8138399   0.421   0.461   1.566  0.7696 -1.0365 -1.9280
  120MOL    C8238400   0.235   0.365   1.632  0.2069 -0.0862 -0.2096
  120MOL    C8338401   0.190   0.239   1.705 -0.0440 -0.0757  0.3145
  120MOL    C8438402   0.118   0.147   1.635  0.7077 -0.3401 -0.1146
  120MOL    C8538403   0.081   0.032   1.703  1.0315  0.2301 -0.3812
  120MOL    C8638404   0.134   8.435   1.828 -0.2230  0.4542 -0.1078
  120MOL   Cl8738405   0.095   8.276   1.901 -0.0675 -0.2395  0.2265
  120MOL    C8838406   0.231   0.074   1.883  0.9751  0.0367 -0.9970
  120MOL    C8938407   0.250   0.202   1.830  1.2509 -0.3143 -0.2000
  120MOL    C9038408   0.186   0.497   1.701  0.5670  0.0913 -0.8648
  120MOL    H9138409   0.190   0.356   1.534 -1.4321  0.6286  0.4651
  120MOL    H9238410   0.079   0.165   1.536  2.4654 -0.7138 -0.8921
  120MOL    H9338411   0.016   8.408   1.648 -0.3104 -0.3004  1.7629
  120MOL    H9438412   0.293   0.043   1.966  0.4901 -2.5644 -1.5641
  120MOL    H9538413   0.314   0.269   1.886  1.3709  1.5525 -2.4796
  120MOL    H9638414   0.100   0.480   1.765  1.1685 -3.6811 -0.9202
  120MOL    H9738415   0.268   0.522   1.769 -0.3677  1.0598 -0.0645
  120MOL    C9838416   0.142   0.619   1.609 -0.4983 -0.5777 -0.1585
  120MOL    C9938417   0.029   0.599   1.505  0.5217  0.5962 -0.2151
  120MOL   C10038418   8.334   0.611   1.544 -0.2002  0.3543  0.0979
  120MOL   C10138419   8.232   0.571   1.454  0.0065  0.2950 -0.3876
  120MOL   C10238420   8.269   0.533   1.324  0.8097  0.4853  0.7807
  120MOL  Cl10338421   8.148   0.487   1.212  0.1767  0.3641 -0.0120
  120MOL   C10438422   8.407   0.526   1.287 -0.5788  0.2134  0.1502
  120MOL   C10538423   0.066   0.560   1.376  0.0483 -0.0109  0.7500
  120MOL   C10638424   0.115   0.741   1.705 -0.1441 -0.0649 -0.8919
  120MOL   H10738425   0.234   0.648   1.557 -0.0575  1.1473  1.5415
  120MOL   H10838426   8.290   0.636   1.640 -0.0090  2.0404 -0.2335
  120MOL   H10938427   8.127   0.579   1.479 -0.0581 -0.7356 -0.3199
  120MOL   H11038428   8.442   0.482   1.195  0.8617  2.3526 -0.3383
  120MOL   H11138429   0.169   0.528   1.365  0.4333  1.2609  0.5433
  120MOL   H11238430   0.030   0.724   1.771  0.6100  0.5336  0.2423
  120MOL   H11338431   0.192   0.759   1.780 -0.4955 -1.5488 -0.1582
  120MOL   C11438432   0.099   0.888   1.647 -0.0317  0.1199  0.0545
  120MOL   C11538433   0.077   0.988   1.760 -0.7864  0.2771  0.1923
  120MOL   C11638434   0.178   1.001   1.862  0.3627  0.3605 -0.1830
  120MOL   C11738435   0.154   1.097   1.963 -0.1446  0.6102 -0.4537
  120MOL   C11838436   0.040   1.185   1.962  0.2302  0.7717 -0.3280
  120MOL  Cl11938437   0.015   1.304   2.084  0.1489 -0.2814 -0.0613
  120MOL   C12038438   8.390   1.173   1.860 -0.0254 -0.0291  0.2049
  120MOL   C12138439   8.409   1.074   1.760 -0.0833 -0.0738  0.2596
  120MOL   C12238440   0.200   0.935   1.545  0.4187 -0.2779  0.1445
  120MOL   H12338441   0.006   0.882   1.589  0.3362 -1.1744 -0.4118
  120MOL   H12438442   0.270   0.946   1.853  0.8486  1.1732 -0.1465
  120MOL   H12538443   0.228   1.107   2.041 -0.8217 -1.9930  0.5603
  120MOL   H12638444   8.312   1.245   1.844  0.2004  0.4548  1.2797
  120MOL   H12738445   8.338   1.068   1.678  0.4106 -0.9049 -0.1072
  120MOL   H12838446   0.297   0.897   1.577  0.8223 -0.6798 -1.4771
  120MOL   H12938447   0.179   0.892   1.447  0.1669 -2.5866  1.1865
  120MOL   C13038448   0.223   1.091   1.518 -0.8796 -0.1205 -0.3603
  120MOL   C13138449   0.364   1.106   1.452 -0.1216 -0.6711 -0.2217
  120MOL   C13238450   0.383   1.052   1.320  0.4388  0.2282  1.1387
  120MOL   C13338451   0.514   1.048   1.263  0.6178 -0.4285 -0.1012
  120MOL   C13438452   0.613   1.116   1.327 -0.0715 -0.0342 -0.3141
  120MOL  Cl13538453   0.753   1.151   1.231  0.1191  0.1210  0.0390
  120MOL   C13638454   0.592   1.178   1.451 -0.6650  0.3102  0.3615
  120MOL   C13738455   0.472   1.160   1.520 -0.3581 -0.2644 -0.4323
  120MOL   C13838456   0.109   1.165   1.435 -0.1656  0.0215 -0.1397
  120MOL   H13938457   0.229   1.143   1.614  0.4226 -0.1052 -0.4435
  120MOL   H14038458   0.302   1.009   1.262  1.2049 -0.4531  0.5426
  120MOL   H14138459   0.522   1.008   1.163  0.3129 -0.8942  0.0587
  120MOL   H14238460   0.682   1.213   1.498  0.7401 -0.9554 -1.3281
  120MOL   H14338461   0.462   1.185   1.625  0.3658  0.3085 -0.4975
  120MOL   H14438462   0.091   1.124   1.336  0.0048 -1.0851  0.2826
  120MOL   H14538463   0.017   1.136   1.487  0.2457 -0.6373  0.2271
  120MOL   C14638464   0.113   1.316   1.423  0.6526 -0.5604 -0.2664
  120MOL   C14738465   0.234   1.353   1.338  0.4133  0.0085 -0.2290
  120MOL   C14838466   0.332   1.432   1.398  0.5780 -1.0269 -0.1963
  120MOL   C14938467   0.448   1.469   1.332  0.0876 -0.7158 -0.2682
  120MOL   C15038468   0.464   1.438   1.195  0.7003 -0.1385 -0.5767
  120MOL  Cl15138469   0.604   1.481   1.105 -0.4016  0.5776 -0.0844
  120MOL   C15238470   0.365   1.359   1.132  0.0609  0.1405  0.5092
  120MOL   C15338471   0.248   1.317   1.204 -0.5281  0.1143 -0.8494
  120MOL   C15438472   8.426   1.380   1.374 -0.2319 -0.7126 -0.0226
  120MOL   H15538473   0.125   1.351   1.526 -1.4988  0.9821 -0.4918
  120MOL   H15638474   0.310   1.467   1.497 -1.9306  1.4983 -1.5722
  120MOL   H15738475   0.526   1.524   1.383  1.0575 -2.4698  0.1823
  120MOL   H15838476   0.358   1.339   1.026 -1.6269 -1.7171  0.9463
  120MOL   H15938477   0.174   1.258   1.152  0.9001 -1.8026 -0.7612
  120MOL   H16038478   8.395   1.332   1.282 -1.8382 -0.8216  0.5430
  120MOL   H16138479   8.345   1.351   1.442  0.8544  0.8943  2.0198
  120MOL   C16238480   8.429   1.529   1.359 -0.6788  0.0058  0.1464
  120MOL   C16338481   0.052   1.571   1.215 -0.0047  0.7087  0.1143
  120MOL   C16438482   0.167   1.652   1.220 -0.3303 -0.1247 -0.0248
  120MOL   C16538483   0.233   1.697   1.107  0.9478 -0.0416 -0.3901
  120MOL   C16638484   0.171   1.663   0.983  0.1793  0.3451 -0.1195
  120MOL  Cl16738485   0.243   1.729   0.844 -0.1970 -0.0008  0.0939
  120MOL   C16838486   0.046   1.598   0.975 -0.2425 -0.4591 -0.5418
  120MOL   C16938487   8.425   1.548   1.090 -0.1562 -0.2772 -0.2447
  120MOL   C17038488   8.288   1.595   1.385 -0.3025 -0.2596  0.0967
  120MOL   H17138489   0.054   1.563   1.437 -0.6413 -0.3532  0.2691
  120MOL   H17238490   0.202   1.667   1.321 -0.5871 -1.7628  0.3233
  120MOL   H17338491   0.319   1.762   1.105  1.8157 -1.1282  0.6880
  120MOL   H17438492   0.012   1.586   0.874  1.8623  0.6582 -1.4057
  120MOL   H17538493   8.336   1.487   1.087 -1.2992  1.3094  0.6583
  120MOL   H17638494   8.212   1.555   1.317 -0.8059 -0.0354  0.5170
  120MOL   H17738495   8.267   1.573   1.490  0.1450  0.3595  0.3147
  120MOL   C17838496   8.270   1.749   1.370  0.2859 -0.5626 -0.4342
  120MOL   C17938497   8.133   1.789   1.407 -0.3289 -0.5081  0.0445
  120MOL   C18038498   8.053   1.867   1.315  0.2634  0.0268 -1.1190
  120MOL   C18138499   7.921   1.899   1.363  0.2098 -0.3626 -0.4900
  120MOL   C18238500   7.868   1.862   1.493  0.3966 -0.5203 -0.4999
  120MOL  Cl18338501   7.705   1.907   1.533 -0.0801 -0.0545  0.1212
  120MOL   C18438502   7.951   1.791   1.575  0.4696  0.4409 -0.2882
  120MOL   C18538503   8.082   1.760   1.541 -0.5644 -0.7703 -0.3892
  120MOL   C18638504   8.378   1.844   1.435  0.2865  0.4284 -0.2156
  120MOL   H18738505   8.275   1.772   1.263 -0.8204 -0.2890 -0.4339
  120MOL   H18838506   8.089   1.898   1.218  0.5507 -0.7768 -1.2709
  120MOL   H18938507   7.859   1.957   1.296  1.0423  3.2680  1.7387
  120MOL   H19038508   7.919   1.769   1.676 -0.3242  0.5114 -0.5244
  120MOL   H19138509   8.136   1.702   1.614 -0.4037 -0.8117 -0.5414
  120MOL   H19238510   0.029   1.796   1.410 -0.2058 -1.5986  1.6366
  120MOL   H19338511   8.378   1.935   1.375  0.1629  0.4786 -0.1414
  120MOL   C19438512   8.391   1.858   1.586 -0.1965 -0.0955  0.0581
  120MOL   C19538513   0.027   1.738   1.644 -0.0305 -0.1266  0.1457
  120MOL   C19638514   0.170   1.741   1.636 -0.1109  0.6870 -0.5843
  120MOL   C19738515   0.243   1.628   1.677 -0.2726 -0.7096 -0.0132
  120MOL   C19838516   0.176   1.527   1.751 -0.5375  0.0852  0.0162
  120MOL  Cl19938517   0.273   1.384   1.804 -0.2785  0.0926  0.2383
  120MOL   C20038518   0.037   1.526   1.765 -0.3411  0.0065 -0.4058
  120MOL   C20138519   8.406   1.629   1.713 -0.2967 -0.0041  0.7476
  120MOL   C20238520   0.015   1.992   1.628  0.8137 -0.5871 -0.4210
  120MOL   H20338521   8.289   1.863   1.625  0.5262 -2.2154  2.3789
  120MOL   H20438522   0.224   1.822   1.589  1.3041  1.1069  1.6874
  120MOL   H20538523   0.350   1.623   1.663 -0.2727  2.0072 -1.0946
  120MOL   H20638524   8.424   1.452   1.820  0.1157 -0.1570 -0.1612
  120MOL   H20738525   8.298   1.627   1.724 -0.4535  0.6989 -0.6031
  120MOL   H20838526   0.085   1.980   1.712  2.6865  0.7745 -1.7477
  120MOL   H20938527   0.083   2.025   1.550  0.5191  2.8108  0.6806
  120MOL   C21038528   8.357   2.102   1.668 -0.0148  0.1472  0.0101
  120MOL   C21138529   8.430   2.203   1.753 -0.1614  0.0128 -0.3155
  120MOL   C21238530   8.429   2.192   1.897  0.0332  0.0354 -0.0606
  120MOL   C21338531   0.049   2.294   1.971  0.1257 -0.2173  0.1235
  120MOL   C21438532   0.102   2.412   1.913  0.4127 -0.2028 -0.6101
  120MOL  Cl21538533   0.145   2.545   2.007 -0.2245 -0.1115 -0.3030
  120MOL   C21638534   0.117   2.411   1.770  0.5012  0.6651 -0.0988
  120MOL   C21738535   0.064   2.307   1.697 -0.0254 -0.0669  0.6533
  120MOL   C21838536   8.274   2.155   1.549  0.8233  0.1612  0.5261
  120MOL   H21938537   8.291   2.050   1.737  2.0129  0.0610  1.9344
  120MOL   H22038538   8.381   2.108   1.945  1.6847 -0.3659  0.9221
  120MOL   H22138539   0.042   2.287   2.078  1.6833  1.5221  0.3599
  120MOL   H22238540   0.157   2.497   1.719 -0.4356  0.5391 -1.0787
  120MOL   H22338541   0.064   2.325   1.590  0.2883  4.6470  1.3284
  120MOL   H22438542   8.344   2.196   1.476  0.9938 -2.5180 -0.8558
  120MOL   H22538543   8.248   2.062   1.498  1.3611 -0.0496  0.6327
  120MOL   C22638544   8.149   2.245   1.577  0.6414 -0.4359  0.5910
  120MOL   C22738545   8.070   2.205   1.703 -0.3076 -0.4921  0.3967
  120MOL   C22838546   8.098   2.272   1.824 -0.4277  0.7681  0.4739
  120MOL   C22938547   8.033   2.231   1.939  0.0414  0.8544 -0.2562
  120MOL   C23038548   7.930   2.132   1.944  0.1862 -0.2534  0.7662
  120MOL  Cl23138549   7.862   2.071   2.090 -0.1126 -0.0549 -0.0990
  120MOL   C23238550   7.904   2.070   1.822 -0.2712  0.6349  0.3460
  120MOL   C23338551   7.967   2.107   1.702  0.0832  0.0047 -0.2101
  120MOL   C23438552   8.193   2.397   1.577 -0.1105  1.0797  0.1488
  120MOL   H23538553   8.090   2.239   1.485  4.5006  0.8307 -2.1031
  120MOL   H23638554   8.175   2.347   1.831  0.8349 -0.4332 -0.2906
  120MOL   H23738555   8.067   2.276   2.031  0.0724 -0.0059  0.1615
  120MOL   H23838556   7.833   1.990   1.810 -0.5710  0.8708  0.5425
  120MOL   H23938557   7.947   2.060   1.607 -1.6185  0.6441 -0.1776
  120MOL   H24038558   8.118   2.465   1.618 -0.9564 -0.7107  1.6317
  120MOL   H24138559   8.278   2.402   1.644  0.0167 -0.0929  0.0859
  120MOL   C24238560   8.240   2.460   1.445 -0.7500 -0.4274 -0.3691
  120MOL   C24338561   8.117   2.476   1.357 -0.6283 -0.5677  0.0268
  120MOL   C24438562   8.109   2.413   1.233  0.1122 -0.5436  0.4390
  120MOL   C24538563   8.017   2.447   1.136 -0.1095 -1.4151  0.0187
  120MOL   C24638564   7.923   2.548   1.167 -0.9600  0.0162  0.1177
  120MOL  Cl24738565   7.806   2.589   1.044 -0.1035  0.2754 -0.0844
  120MOL   C24838566   7.924   2.615   1.288 -0.3787  0.0929  0.6062
  120MOL   C24938567   8.036   2.593   1.375  0.4016 -0.1664  0.3792
  120MOL   C25038568   8.324   2.589   1.476 -0.0083  0.0841 -0.3986
  120MOL   H25138569   8.307   2.390   1.395 -1.3106  0.2126 -2.0658
  120MOL   H25238570   8.183   2.335   1.223  2.1913  1.2193  1.6399
  120MOL   H25338571   8.022   2.399   1.039 -1.7451  0.7653 -1.2190
  120MOL   H25438572   7.850   2.690   1.313 -0.3120  0.3526  0.0374
  120MOL   H25538573   8.041   2.649   1.468  1.6726  0.1605  0.1312
  120MOL   H25638574   8.255   2.655   1.528  0.1639 -1.2795  1.6244
  120MOL   H25738575   8.393   2.565   1.557 -0.4800  0.2986  0.0733
  120MOL   C25838576   8.399   2.665   1.361 -0.5963  0.3986  0.2607
  120MOL   C25938577   0.092   2.597   1.323 -0.1675  0.0318 -0.3103
  120MOL   C26038578   0.100   2.479   1.256 -0.1189  0.9512  0.2718
  120MOL   C26138579   0.221   2.409   1.240  0.1388  0.2774 -0.4214
  120MOL   C26238580   0.336   2.454   1.303 -0.3259  0.2816 -0.4654
  120MOL  Cl26338581   0.481   2.358   1.292 -0.4636  0.4738 -0.1494
  120MOL   C26438582   0.333   2.567   1.381 -0.1880  0.2066 -0.2832
  120MOL   C26538583   0.210   2.635   1.397  0.2015  0.1934 -0.0626
  120MOL   C26638584   8.323   2.707   1.235 -0.3471 -0.0818  0.2409
  120MOL   H26738585   8.430   2.758   1.407 -0.8121  0.5734  0.0511
  120MOL   H26838586   0.007   2.432   1.226 -0.9486  0.9336  2.6933
  120MOL   H26938587   0.224   2.306   1.208  1.9534  0.4884 -0.9938
  120MOL   H27038588   0.420   2.601   1.434  0.7480  4.0911 -3.9667
  120MOL   H27138589   0.204   2.712   1.473  1.8067 -0.2304  0.5006
  120MOL   H27238590   8.249   2.632   1.206 -2.4934  1.4128  1.6720
  120MOL   H27338591   8.264   2.789   1.275  0.3289  0.5799 -0.1072
  120MOL   C27438592   8.407   2.750   1.109  0.4596  1.2204  0.2511
  120MOL   C27538593   8.396   2.641   0.995 -0.1092 -0.4575  0.6677
  120MOL   C27638594   8.277   2.618   0.926 -0.3953 -0.3637  0.2153
  120MOL   C27738595   8.267   2.511   0.833 -0.2421  0.2406  0.2608
  120MOL   C27838596   8.386   2.438   0.802 -0.5052  0.3242  0.5648
  120MOL  Cl27938597   8.374   2.300   0.695 -0.2647 -0.1605 -0.1302
  120MOL   C28038598   0.068   2.476   0.852 -0.1491 -0.3652 -0.8092
  120MOL   C28138599   0.073   2.577   0.951 -0.3280  0.8029 -0.1970
  120MOL   C28238600   8.372   2.887   1.055  0.0175  0.3158 -0.3182
  120MOL   H28338601   0.067   2.763   1.142  1.3800 -2.2708 -1.0734
  120MOL   H28438602   8.194   2.685   0.942 -0.3056 -0.6861  2.1624
  120MOL   H28538603   8.170   2.490   0.790 -0.6704  0.2765  1.2058
  120MOL   H28638604   0.152   2.415   0.822 -0.3711 -1.4773  0.7756
  120MOL   H28738605   0.163   2.601   1.006 -1.4311 -1.0946  2.5053
  120MOL   H28838606   8.419   2.900   0.957 -0.3350  1.4043 -0.3569
  120MOL   H28938607   8.264   2.888   1.040 -0.2635  1.9085  1.5645
  120MOL   C29038608   8.414   3.003   1.154 -1.1675  0.1337  0.4025
  120MOL   C29138609   0.119   3.001   1.199  0.8332  0.3578 -0.5895
  120MOL   C29238610   0.225   3.030   1.105 -0.3537 -0.5549  0.4420
  120MOL   C29338611   0.356   3.033   1.143 -0.0853  0.5048 -0.2483
  120MOL   C29438612   0.389   3.005   1.281 -0.2936 -0.2879  1.0759
  120MOL  Cl29538613   0.550   2.998   1.335 -0.2600  0.0163  0.0884
  120MOL   C29638614   0.289   2.971   1.376 -0.2691 -0.5884 -0.0646
  120MOL   C29738615   0.150   2.979   1.336  0.1930 -0.5916 -0.7539
  120MOL   C29838616   8.368   3.140   1.096  0.5683 -0.7038  0.9596
  120MOL   H29938617   8.358   2.997   1.248 -0.9684  2.1681  0.6660
  120MOL   H30038618   0.212   3.056   1.001 -0.7294  2.7724  1.2605
  120MOL   H30138619   0.436   3.046   1.072  0.0301  1.9327  0.1168
  120MOL   H30238620   0.297   2.947   1.481  0.2375 -1.4946 -0.3101
  120MOL   H30338621   0.078   2.959   1.414  0.0340  0.6944 -0.5703
  120MOL   H30438622   8.407   3.142   0.995  0.2707  0.1655  0.8539
  120MOL   H30538623   8.260   3.144   1.088  0.7495  0.7050 -1.0996
  120MOL   C30638624   8.418   3.264   1.160 -0.0221  0.3651 -0.0072
  120MOL   C30738625   8.368   3.389   1.090  0.2009 -0.5285 -0.5524
  120MOL   C30838626   8.235   3.431   1.089  1.2626  0.4847  0.7877
  120MOL   C30938627   8.199   3.548   1.032  0.1305 -0.9890  0.7379
  120MOL   C31038628   8.291   3.623   0.955 -0.2925 -0.3715  0.1768
  120MOL  Cl31138629   8.234   3.780   0.912  0.4040  0.1071 -0.2586
  120MOL   C31238630   8.424   3.583   0.949 -0.6270 -0.2809 -0.0655
  120MOL   C31338631   0.018   3.464   1.018 -0.7354  0.4567 -0.5872
  120MOL   C31438632   8.374   3.281   1.315 -0.2640 -0.5544 -0.6844
  120MOL   H31538633   0.083   3.262   1.153 -0.0903 -0.4740 -0.8232
  120MOL   H31638634   8.164   3.370   1.143 -1.2333  1.4172 -1.2922
  120MOL   H31738635   8.098   3.585   1.039  0.1293 -1.0207  0.8719
  120MOL   H31838636   0.051   3.637   0.887 -2.1170  1.1118 -0.5686
  120MOL   H31938637   0.119   3.429   1.010 -0.8572  0.6587 -3.6197
  120MOL   H32038638   8.266   3.281   1.331 -0.1471  0.5698  0.1788
  120MOL   H32138639   8.416   3.207   1.382  1.0099 -0.2078 -1.0858
  120MOL   H32238640   8.419   3.374   1.349 -0.2007 -1.1204  0.8082
  121MOL     C138641   5.070   2.700   3.585  0.4121  0.4166  0.2642
  121MOL     C238642   5.082   2.550   3.559  0.9375  0.0584 -0.1733
  121MOL     C338643   5.146   2.505   3.442 -0.0207  0.4469 -0.2952
  121MOL     C438644   5.164   2.367   3.421  0.3524  0.8624 -0.4373
  121MOL     C538645   5.119   2.274   3.515  0.3678  0.7045 -0.6324
  121MOL    Cl638646   5.136   2.102   3.494  0.2630 -0.0976 -0.2155
  121MOL     C738647   5.049   2.317   3.632 -0.5207  0.7095  0.3917
  121MOL     C838648   5.036   2.457   3.660  1.0219  0.1455  0.3617
  121MOL     C938649   5.115   2.746   3.725 -0.1874 -0.6052 -0.0999
  121MOL    H1038650   4.968   2.731   3.562  0.1800  0.5586  1.4311
  121MOL    H1138651   5.182   2.568   3.362 -0.3152  2.8736  1.4615
  121MOL    H1238652   5.223   2.332   3.338  1.3964 -1.3652  1.1887
  121MOL    H1338653   5.005   2.237   3.689 -3.5487  0.1034 -2.6528
  121MOL    H1438654   4.980   2.495   3.744  3.7554  0.1161  2.2580
  121MOL    H1538655   5.056   2.681   3.791 -0.1620  0.3581  0.8911
  121MOL    H1638656   5.220   2.731   3.752  0.2390  1.8510 -0.2817
  121MOL    H1738657   5.133   2.752   3.513  3.0448 -0.4213  1.8748
  121MOL    C1838658   5.073   2.895   3.763  0.9474 -0.6463 -0.1302
  121MOL    C1938659   5.054   2.904   3.915 -0.0135 -0.0806 -0.2450
  121MOL    C2038660   4.949   2.981   3.967  0.2969  0.0829 -0.0719
  121MOL    C2138661   4.922   2.969   4.104 -0.3487  0.6472 -0.4411
  121MOL    C2238662   5.005   2.892   4.195 -0.1121 -0.5022  0.0310
  121MOL   Cl2338663   4.974   2.887   4.363  0.5251  0.0513 -0.1155
  121MOL    C2438664   5.117   2.832   4.140  0.7195  0.4985 -0.2281
  121MOL    C2538665   5.136   2.833   4.003 -0.5614  0.1676  0.1665
  121MOL    C2638666   5.179   2.997   3.720  0.2104 -0.1387  0.0338
  121MOL    H2738667   4.976   2.921   3.721  0.9439 -0.0327  0.2479
  121MOL    H2838668   4.882   3.036   3.902 -0.7851  0.7800  1.6105
  121MOL    H2938669   4.837   3.023   4.143 -2.3496 -1.1629 -2.2042
  121MOL    H3038670   5.193   2.785   4.201 -0.2204  0.2613  0.7807
  121MOL    H3138671   5.226   2.793   3.958 -1.7189 -0.1180 -1.9336
  121MOL    H3238672   5.158   3.089   3.776  0.0159  0.6192 -1.2617
  121MOL    H3338673   5.274   2.959   3.755 -0.3230 -1.5294 -0.0072
  121MOL    C3438674   5.170   3.029   3.568 -0.2718 -0.5251  0.2336
  121MOL    C3538675   5.032   3.079   3.534  0.4661 -0.2357  0.0482
  121MOL    C3638676   4.987   3.207   3.582 -0.3021  0.0078 -0.2275
  121MOL    C3738677   4.861   3.252   3.530 -0.2940 -0.4463  0.5388
  121MOL    C3838678   4.792   3.185   3.423  0.3852 -1.0287 -0.4643
  121MOL   Cl3938679   4.656   3.254   3.346 -0.4573 -0.4632  0.0513
  121MOL    C4038680   4.841   3.060   3.383  0.3305  0.6324 -0.0840
  121MOL    C4138681   4.965   3.006   3.430 -0.0960  0.6673  0.1314
  121MOL    C4238682   5.283   3.128   3.521  1.0936  0.4815  0.3814
  121MOL    H4338683   5.175   2.942   3.502  0.2658 -1.2989  1.2615
  121MOL    H4438684   5.046   3.248   3.663 -0.2004 -1.5157  0.4783
  121MOL    H4538685   4.827   3.344   3.576 -0.8105  0.6701 -1.9781
  121MOL    H4638686   4.792   3.001   3.308  1.4241 -0.7533  0.2699
  121MOL    H4738687   5.007   2.915   3.390 -0.8517 -0.2161  1.3095
  121MOL    H4838688   5.270   3.141   3.413 -1.3095 -1.8167  0.3422
  121MOL    H4938689   5.272   3.228   3.563  2.3525 -1.0694  4.6666
  121MOL    C5038690   5.426   3.078   3.535 -0.4077 -0.1967 -0.5409
  121MOL    C5138691   5.435   2.933   3.504 -0.1740 -0.1064  0.0188
  121MOL    C5238692   5.481   2.844   3.603  0.2369  0.3032 -0.1015
  121MOL    C5338693   5.484   2.707   3.570  0.4684  0.2116 -0.3080
  121MOL    C5438694   5.456   2.660   3.442  0.3186  0.0003 -0.1865
  121MOL   Cl5538695   5.482   2.504   3.395 -0.2718  0.4408 -0.2249
  121MOL    C5638696   5.433   2.749   3.342  0.0626 -0.1836 -0.0199
  121MOL    C5738697   5.401   2.881   3.377 -0.0647  0.9696  0.4807
  121MOL    C5838698   5.525   3.163   3.443 -0.4711 -0.6100 -0.7365
  121MOL    H5938699   5.459   3.100   3.637  0.3704 -0.8052 -0.6614
  121MOL    H6038700   5.505   2.875   3.703  0.7702 -1.2877  0.2770
  121MOL    H6138701   5.508   2.636   3.648 -1.1581 -0.0291 -0.0073
  121MOL    H6238702   5.437   2.717   3.238 -1.5250 -1.4948  0.3028
  121MOL    H6338703   5.374   2.951   3.300 -0.8537 -2.2924 -2.3527
  121MOL    H6438704   5.488   3.157   3.340 -2.9749  2.0420 -0.0454
  121MOL    H6538705   5.512   3.268   3.468  1.7585 -1.0123  2.4539
  121MOL    C6638706   5.677   3.114   3.435 -0.7357  0.3196  0.2600
  121MOL    C6738707   5.742   3.171   3.311 -0.4171  0.5413 -0.4875
  121MOL    C6838708   5.755   3.312   3.299  0.3826  0.3539  0.9607
  121MOL    C6938709   5.829   3.376   3.193  0.1004  1.3453 -0.3317
  121MOL    C7038710   5.905   3.290   3.110  0.3558 -0.3123  0.7590
  121MOL   Cl7138711   6.012   3.356   2.991 -0.0883  0.1165  0.0154
  121MOL    C7238712   5.895   3.152   3.126 -0.6927 -0.2896  0.2856
  121MOL    C7338713   5.813   3.092   3.222 -0.0664 -0.5057  0.3580
  121MOL    C7438714   5.757   3.151   3.560 -0.0297  0.8990 -0.1949
  121MOL    H7538715   5.687   3.011   3.403  0.9235  1.1743 -2.1555
  121MOL    H7638716   5.710   3.373   3.375 -0.0442  1.8154 -0.4424
  121MOL    H7738717   5.840   3.483   3.184  0.2930  1.4190  0.7246
  121MOL    H7838718   5.954   3.089   3.062 -0.5224  0.0756  0.0829
  121MOL    H7938719   5.818   2.985   3.234  0.8341 -0.3569  1.4211
  121MOL    H8038720   5.730   3.256   3.573  1.2684  1.5652 -2.5771
  121MOL    H8138721   5.710   3.122   3.654  0.2941 -0.1254 -0.3395
  121MOL    C8238722   5.912   3.128   3.554  0.5005 -0.2219 -0.2822
  121MOL    C8338723   5.985   3.259   3.582 -0.0775 -0.7838 -0.1936
  121MOL    C8438724   6.058   3.322   3.484  1.1919 -0.1440 -0.0176
  121MOL    C8538725   6.113   3.453   3.513  0.4123 -0.0127 -0.4447
  121MOL    C8638726   6.108   3.508   3.644 -0.3958 -0.2656 -0.3488
  121MOL   Cl8738727   6.202   3.645   3.679  0.4054  0.1603 -0.5151
  121MOL    C8838728   6.037   3.441   3.746 -0.0678  0.3813  0.3989
  121MOL    C8938729   5.972   3.316   3.714 -0.6310 -0.6377  0.0075
  121MOL    C9038730   5.966   3.018   3.640  0.4879 -0.1640  0.1340
  121MOL    H9138731   5.937   3.103   3.451  0.4200  1.4007 -0.7077
  121MOL    H9238732   6.067   3.270   3.389 -0.1723 -0.7606  0.1819
  121MOL    H9338733   6.166   3.519   3.445 -1.1671 -0.1415 -1.8105
  121MOL    H9438734   6.031   3.482   3.845  0.6263  1.8722 -0.1647
  121MOL    H9538735   5.914   3.273   3.794 -0.6248  0.5039  0.6372
  121MOL    H9638736   6.075   3.028   3.639  0.6283 -0.9863  2.9835
  121MOL    H9738737   5.933   3.033   3.742 -1.4880 -0.1807 -0.4897
  121MOL    C9838738   5.927   2.871   3.602  0.3401 -0.1523  0.2494
  121MOL    C9938739   5.948   2.837   3.463 -0.3910 -0.1715  0.3408
  121MOL   C10038740   5.855   2.750   3.404  0.0332 -0.3776  0.1403
  121MOL   C10138741   5.867   2.715   3.269  0.6081 -0.6772 -0.1166
  121MOL   C10238742   5.972   2.767   3.198 -0.6764  0.7234  0.5613
  121MOL  Cl10338743   5.975   2.721   3.029 -0.0665 -0.0956  0.4180
  121MOL   C10438744   6.070   2.841   3.261  0.1041 -0.5403  0.3980
  121MOL   C10538745   6.068   2.866   3.396 -0.3507 -0.2582 -0.2046
  121MOL   C10638746   6.016   2.775   3.691  0.4541  0.5211  0.6118
  121MOL   H10738747   5.825   2.857   3.636  0.3197 -2.6684 -0.7683
  121MOL   H10838748   5.765   2.712   3.452  0.1646 -1.5014 -0.4837
  121MOL   H10938749   5.789   2.657   3.222 -0.5819  0.1278  0.8551
  121MOL   H11038750   6.162   2.882   3.222 -0.9371  1.6071  0.0773
  121MOL   H11138751   6.148   2.922   3.443  1.2958 -3.2487  0.7064
  121MOL   H11238752   5.982   2.674   3.666 -0.7914  0.5046  2.2909
  121MOL   H11338753   6.119   2.773   3.656  0.6576 -0.6796  1.2382
  121MOL   C11438754   6.003   2.796   3.837  0.1023 -0.1932  0.6775
  121MOL   C11538755   5.860   2.820   3.894 -0.9128  0.5383  0.2203
  121MOL   C11638756   5.753   2.734   3.866  0.4359  0.6141 -0.0723
  121MOL   C11738757   5.632   2.757   3.934  0.1203 -0.0478 -0.5657
  121MOL   C11838758   5.619   2.860   4.034  0.0080 -0.1399 -0.9265
  121MOL  Cl11938759   5.473   2.876   4.126 -0.3353 -0.0550  0.4967
  121MOL   C12038760   5.728   2.952   4.057 -0.2757 -0.2773  0.1330
  121MOL   C12138761   5.843   2.935   3.979 -0.1939 -0.0993  0.0817
  121MOL   C12238762   6.066   2.669   3.907 -0.8710  0.0225  0.3054
  121MOL   H12338763   6.059   2.888   3.854 -0.0103  0.2854 -1.4674
  121MOL   H12438764   5.761   2.651   3.796 -1.7138  0.3128  0.0119
  121MOL   H12538765   5.557   2.679   3.927  0.4240 -0.3875 -0.0687
  121MOL   H12638766   5.720   3.028   4.134  1.2007 -1.0212  1.0320
  121MOL   H12738767   5.929   2.998   3.997 -0.1612 -0.4233  1.0836
  121MOL   H12838768   5.997   2.586   3.900  0.6001 -1.1136 -1.1035
  121MOL   H12938769   6.153   2.636   3.851 -0.3064 -0.4540  1.4489
  121MOL   C13038770   6.123   2.680   4.048  0.4213  0.3960  0.2125
  121MOL   C13138771   6.126   2.546   4.107  1.0494  0.4161 -0.1350
  121MOL   C13238772   6.206   2.442   4.055  0.2325  0.0206 -0.0629
  121MOL   C13338773   6.202   2.313   4.114 -0.0562 -0.5867 -0.3975
  121MOL   C13438774   6.123   2.285   4.221 -0.1640  0.2960 -0.2300
  121MOL  Cl13538775   6.120   2.128   4.291 -0.2098 -0.1901 -0.4280
  121MOL   C13638776   6.039   2.388   4.272 -0.0056  0.1099 -0.7803
  121MOL   C13738777   6.036   2.513   4.212  0.2491  0.4248 -0.4737
  121MOL   C13838778   6.263   2.742   4.049  0.6512 -0.3776  0.0566
  121MOL   H13938779   6.048   2.733   4.107 -0.3732 -1.1215  0.6028
  121MOL   H14038780   6.268   2.460   3.968  0.1473  0.0751 -0.1125
  121MOL   H14138781   6.263   2.231   4.080  0.0428 -0.1635 -1.2539
  121MOL   H14238782   5.988   2.364   4.364  1.4498  2.3131  0.6561
  121MOL   H14338783   5.963   2.585   4.246 -1.3983 -1.5073  0.1360
  121MOL   H14438784   6.336   2.683   3.993  0.5508  1.4780 -2.0759
  121MOL   H14538785   6.262   2.838   3.997 -0.9635 -0.5652 -0.2984
  121MOL   C14638786   6.324   2.755   4.186  0.4877  0.0843 -1.1543
  121MOL   C14738787   6.462   2.824   4.165 -0.2653 -0.4304 -0.0567
  121MOL   C14838788   6.563   2.737   4.131  0.1741 -0.1214  0.6693
  121MOL   C14938789   6.692   2.792   4.128 -0.9229  0.5127  0.0462
  121MOL   C15038790   6.717   2.927   4.146 -0.0264  0.2169 -0.1296
  121MOL  Cl15138791   6.874   2.979   4.176 -0.0889  0.4394 -0.5604
  121MOL   C15238792   6.608   3.015   4.155  0.1252 -0.0093  0.1987
  121MOL   C15338793   6.477   2.964   4.167 -1.2400 -0.1645  0.2589
  121MOL   C15438794   6.229   2.826   4.292 -0.0220  0.6520  0.0398
  121MOL   H15538795   6.346   2.657   4.229  0.1721  0.4915 -0.0379
  121MOL   H15638796   6.562   2.629   4.131 -0.1636 -0.1187  1.8639
  121MOL   H15738797   6.780   2.734   4.106 -2.2014 -1.4991  0.0707
  121MOL   H15838798   6.626   3.121   4.156  1.8741 -0.2804 -0.9333
  121MOL   H15938799   6.398   3.037   4.181 -0.6553  0.6558 -0.6336
  121MOL   H16038800   6.184   2.918   4.255  0.2615  1.2028  1.0450
  121MOL   H16138801   6.143   2.763   4.314 -1.5282  2.3334 -0.9315
  121MOL   C16238802   6.305   2.852   4.425 -0.1431 -0.2359  0.0681
  121MOL   C16338803   6.294   2.997   4.480 -0.2160  0.1818 -0.1861
  121MOL   C16438804   6.393   3.093   4.477 -0.0375 -0.5376  0.5490
  121MOL   C16538805   6.377   3.222   4.526 -0.4836 -0.4641 -0.1941
  121MOL   C16638806   6.251   3.268   4.570 -0.2626 -0.5680  0.3138
  121MOL  Cl16738807   6.226   3.431   4.609  0.1795  0.6608  0.2501
  121MOL   C16838808   6.142   3.172   4.568  0.0550 -0.1584  0.4939
  121MOL   C16938809   6.169   3.042   4.524  0.6605  0.4057 -0.4296
  121MOL   C17038810   6.261   2.757   4.538 -0.2262  0.2118 -0.6454
  121MOL   H17138811   6.413   2.852   4.413  0.3955 -1.0559  4.1763
  121MOL   H17238812   6.491   3.058   4.446 -0.5301 -1.0965 -0.3889
  121MOL   H17338813   6.460   3.291   4.531  0.1485 -1.1952 -0.5089
  121MOL   H17438814   6.046   3.186   4.614 -0.1807 -2.2706  0.6992
  121MOL   H17538815   6.078   2.988   4.504  1.6285 -1.5529  0.3652
  121MOL   H17638816   6.303   2.796   4.631  0.3088 -0.9180 -0.4040
  121MOL   H17738817   6.155   2.770   4.558 -0.1787 -1.7945  0.9844
  121MOL   C17838818   6.295   2.606   4.527  0.6819  1.1390  0.0171
  121MOL   C17938819   6.436   2.580   4.479 -0.3354 -0.1739  0.0570
  121MOL   C18038820   6.460   2.477   4.389 -0.3042  0.0391  0.3492
  121MOL   C18138821   6.590   2.460   4.338  0.2309 -0.1973  0.2438
  121MOL   C18238822   6.698   2.537   4.385 -0.4152  0.1475  0.0985
  121MOL  Cl18338823   6.857   2.508   4.326  0.1136  0.4944  0.0916
  121MOL   C18438824   6.674   2.635   4.478  0.4070  0.0935  0.5987
  121MOL   C18538825   6.545   2.659   4.531  0.6456  0.3130 -0.5066
  121MOL   C18638826   6.267   2.535   4.663 -0.7462 -0.0832 -0.0729
  121MOL   H18738827   6.225   2.556   4.460 -0.7813 -0.7033  2.8238
  121MOL   H18838828   6.374   2.417   4.365 -0.6892  1.0661 -0.8865
  121MOL   H18938829   6.589   2.371   4.276 -1.1884  0.8621 -1.3265
  121MOL   H19038830   6.758   2.695   4.509  0.0779  0.3049  1.0872
  121MOL   H19138831   6.528   2.740   4.600 -1.8723  0.9179 -1.7917
  121MOL   H19238832   6.319   2.593   4.740 -1.6529  0.8341 -0.1418
  121MOL   H19338833   6.161   2.543   4.688 -0.4430 -0.3371  1.3362
  121MOL   C19438834   6.292   2.381   4.683 -0.0769  0.3728  0.1927
  121MOL   C19538835   6.343   2.358   4.826  0.4093 -0.3484  0.2198
  121MOL   C19638836   6.440   2.257   4.841 -0.5934  0.1746 -0.2566
  121MOL   C19738837   6.498   2.240   4.974 -0.5146 -0.7602 -0.5544
  121MOL   C19838838   6.447   2.305   5.087  0.2801  0.3173 -0.3090
  121MOL  Cl19938839   6.522   2.287   5.240  0.1459 -0.0368 -0.1404
  121MOL   C20038840   6.344   2.398   5.069  0.6323  0.2672 -0.4819
  121MOL   C20138841   6.288   2.421   4.940 -0.2352  0.1917 -0.4241
  121MOL   C20238842   6.187   2.286   4.636  0.6619 -0.9943 -0.0909
  121MOL   H20338843   6.385   2.352   4.633  1.1706  1.8161  1.5924
  121MOL   H20438844   6.488   2.200   4.763  1.4846  0.4576  0.7967
  121MOL   H20538845   6.581   2.171   4.979 -1.3232 -1.6630  0.6152
  121MOL   H20638846   6.296   2.449   5.152  1.9361  0.1376  0.3642
  121MOL   H20738847   6.205   2.489   4.927  0.3732  0.8719 -0.7847
  121MOL   H20838848   6.160   2.335   4.542 -2.3358  0.6763  1.5764
  121MOL   H20938849   6.225   2.184   4.621  0.3330 -1.0726 -0.4159
  121MOL   C21038850   6.054   2.283   4.721 -0.4309  0.1690  0.3318
  121MOL   C21138851   5.937   2.294   4.617  0.7431  0.4311 -0.4278
  121MOL   C21238852   5.904   2.186   4.540  1.0866  0.1598  0.0445
  121MOL   C21338853   5.794   2.191   4.450 -0.9028 -0.2141 -0.3798
  121MOL   C21438854   5.718   2.310   4.446 -0.7261  0.2767  0.5213
  121MOL  Cl21538855   5.578   2.313   4.340 -0.1899 -0.4044 -0.2728
  121MOL   C21638856   5.745   2.418   4.535  0.1999  0.1972 -0.0458
  121MOL   C21738857   5.859   2.407   4.614  0.3727  0.0930 -0.5980
  121MOL   C21838858   6.046   2.149   4.799 -0.1677 -0.1331 -0.8607
  121MOL   H21938859   6.054   2.371   4.786 -0.5870  1.3611 -1.2544
  121MOL   H22038860   5.958   2.093   4.554  0.1378 -0.8232 -2.4098
  121MOL   H22138861   5.764   2.107   4.388  0.8905 -0.2675 -1.1951
  121MOL   H22238862   5.674   2.499   4.545 -3.2773 -2.7588  0.2642
  121MOL   H22338863   5.885   2.487   4.682  1.3743 -2.0819  1.6749
  121MOL   H22438864   5.958   2.093   4.769 -0.8024  0.9586 -1.0815
  121MOL   H22538865   6.129   2.088   4.764  0.6531  0.9605 -0.8399
  121MOL   C22638866   6.043   2.172   4.951 -0.2434 -0.1942  0.3504
  121MOL   C22738867   5.935   2.266   4.998 -0.0624  0.5316 -0.3697
  121MOL   C22838868   5.977   2.379   5.069 -0.0868  0.4825  0.5007
  121MOL   C22938869   5.879   2.480   5.102 -0.3001  0.5777  0.2865
  121MOL   C23038870   5.740   2.446   5.069 -0.1661  0.0515 -0.4042
  121MOL  Cl23138871   5.612   2.544   5.123  0.0563 -0.3226  0.0554
  121MOL   C23238872   5.702   2.332   4.999  0.0558 -0.2916  0.1253
  121MOL   C23338873   5.803   2.238   4.970  0.3707  0.1583  0.4625
  121MOL   C23438874   6.038   2.037   5.031 -0.9620  0.0219 -0.0512
  121MOL   H23538875   6.135   2.224   4.977 -0.1710  1.2425 -2.6321
  121MOL   H23638876   6.076   2.385   5.111  0.0931 -0.3799  0.2097
  121MOL   H23738877   5.900   2.567   5.161 -1.0083  1.2065 -0.3650
  121MOL   H23838878   5.598   2.303   4.991 -0.2791  0.6859  0.9035
  121MOL   H23938879   5.772   2.145   4.924 -2.0561  1.2784 -0.2285
  121MOL   H24038880   6.038   2.070   5.135  0.8582  2.8027 -0.8575
  121MOL   H24138881   5.940   1.992   5.017 -1.8677  1.9382 -0.0788
  121MOL   C24238882   6.161   1.945   5.008  0.0417 -0.5756  0.1292
  121MOL   C24338883   6.254   1.923   5.127  0.7775 -0.1038 -0.4707
  121MOL   C24438884   6.195   1.878   5.242  0.2883 -0.4753 -0.2286
  121MOL   C24538885   6.271   1.859   5.360  0.1162  0.3609 -0.1723
  121MOL   C24638886   6.402   1.899   5.365 -0.6803 -0.9355 -0.4106
  121MOL  Cl24738887   6.494   1.887   5.509 -0.3323  0.2729 -0.0776
  121MOL   C24838888   6.468   1.943   5.242  0.1692  0.2910 -0.3828
  121MOL   C24938889   6.394   1.949   5.121  0.2952 -0.1962  0.3907
  121MOL   C25038890   6.126   1.811   4.932 -0.5129  0.4303  0.4629
  121MOL   H25138891   6.216   1.997   4.929 -2.1877 -1.3597 -2.0160
  121MOL   H25238892   6.090   1.851   5.244  0.0866  0.1367 -1.7217
  121MOL   H25338893   6.210   1.829   5.444  0.3958  3.4716  1.2408
  121MOL   H25438894   6.572   1.968   5.252  0.2437 -0.3403  0.5298
  121MOL   H25538895   6.447   1.987   5.036 -0.9119 -3.2331 -1.8150
  121MOL   H25638896   6.058   1.752   4.993  0.0708 -0.0890  0.6160
  121MOL   H25738897   6.062   1.841   4.849  0.4405  0.1951 -0.3752
  121MOL   C25838898   6.244   1.737   4.864  0.1326 -0.3638  0.7551
  121MOL   C25938899   6.202   1.595   4.825  0.4260  0.0653 -0.4381
  121MOL   C26038900   6.278   1.484   4.874 -0.0479  0.4001  1.0262
  121MOL   C26138901   6.240   1.352   4.837  0.9722 -0.0647  0.0247
  121MOL   C26238902   6.118   1.326   4.772  0.3931 -0.0958  0.1005
  121MOL  Cl26338903   6.081   1.163   4.742 -0.1116  0.0791  0.1810
  121MOL   C26438904   6.042   1.432   4.727 -0.1898  0.1995  0.1096
  121MOL   C26538905   6.092   1.568   4.745  1.2556  0.0553  0.0060
  121MOL   C26638906   6.289   1.819   4.735  0.2155  0.3997  0.5381
  121MOL   H26738907   6.329   1.730   4.932  1.3627 -0.8677 -0.7951
  121MOL   H26838908   6.371   1.498   4.928 -1.1160  0.3734  2.9441
  121MOL   H26938909   6.312   1.277   4.868  1.6576  0.7948  0.5277
  121MOL   H27038910   5.944   1.429   4.682 -0.1300  0.2429 -0.0231
  121MOL   H27138911   6.043   1.654   4.700 -1.4851 -0.2707  2.1503
  121MOL   H27238912   6.210   1.819   4.660  0.3318  0.6258  0.4133
  121MOL   H27338913   6.291   1.924   4.765 -3.2694  0.1585  1.7679
  121MOL   C27438914   6.423   1.768   4.679  0.2232  0.0150 -0.6366
  121MOL   C27538915   6.452   1.830   4.548 -0.4238 -0.6414 -0.1472
  121MOL   C27638916   6.456   1.751   4.431 -0.0364 -0.7167  0.1963
  121MOL   C27738917   6.451   1.820   4.309  0.3817  0.0347  0.4239
  121MOL   C27838918   6.445   1.960   4.300  0.1240 -0.0688 -0.1128
  121MOL  Cl27938919   6.427   2.024   4.139  0.3521 -0.5310  0.0913
  121MOL   C28038920   6.449   2.037   4.417 -0.4836 -0.2121  0.4528
  121MOL   C28138921   6.451   1.972   4.545 -0.2804 -0.3588  0.0262
  121MOL   C28238922   6.551   1.782   4.773  0.1059 -0.4312  0.8439
  121MOL   H28338923   6.411   1.664   4.649  2.7902 -0.5275  0.0965
  121MOL   H28438924   6.448   1.643   4.428  2.1237 -0.8833 -0.1371
  121MOL   H28538925   6.442   1.759   4.220  1.3216 -2.9463  2.2743
  121MOL   H28638926   6.442   2.144   4.412  1.4305 -0.1665 -2.6472
  121MOL   H28738927   6.438   2.033   4.633 -0.6825  2.8830 -2.1983
  121MOL   H28838928   6.575   1.889   4.769  0.1428 -0.4574  0.4287
  121MOL   H28938929   6.518   1.755   4.874 -0.4966  1.0041  1.0511
  121MOL   C29038930   6.668   1.684   4.763  0.1481 -0.1260  0.1143
  121MOL   C29138931   6.782   1.731   4.852  0.8016  0.0547 -0.4909
  121MOL   C29238932   6.759   1.786   4.978 -1.4823 -0.2224  0.2920
  121MOL   C29338933   6.865   1.824   5.060  0.1951 -0.5791  0.2029
  121MOL   C29438934   7.000   1.805   5.018 -0.4622  0.1185 -0.3127
  121MOL  Cl29538935   7.123   1.855   5.132 -0.4963  0.4104  0.1132
  121MOL   C29638936   7.027   1.757   4.892  0.1485  0.7949  0.0603
  121MOL   C29738937   6.914   1.720   4.809 -0.3980 -0.3661 -0.7057
  121MOL   C29838938   6.630   1.537   4.786 -0.5468  0.7483  0.2798
  121MOL   H29938939   6.703   1.706   4.662  1.8260 -0.1358  0.6843
  121MOL   H30038940   6.656   1.796   5.009 -1.4274 -0.6330  0.6081
  121MOL   H30138941   6.837   1.861   5.158 -0.7290  0.0265 -0.2766
  121MOL   H30238942   7.126   1.757   4.848  0.3905 -2.2083  0.4895
  121MOL   H30338943   6.930   1.691   4.706  0.3009 -1.7226 -0.2293
  121MOL   H30438944   6.618   1.527   4.894  0.9351 -0.3417  0.3535
  121MOL   H30538945   6.541   1.525   4.725  1.1868 -0.6111 -2.0399
  121MOL   C30638946   6.728   1.424   4.747 -0.4917  0.2840  0.2625
  121MOL   C30738947   6.675   1.281   4.769 -0.4258  0.0682  0.4324
  121MOL   C30838948   6.756   1.186   4.835  0.6399 -0.4991 -0.4665
  121MOL   C30938949   6.722   1.047   4.839 -0.9781  0.0035 -0.3227
  121MOL   C31038950   6.603   1.006   4.778  0.6207  0.2222 -0.0838
  121MOL  Cl31138951   6.557   0.839   4.775  0.1706 -0.2105 -0.4846
  121MOL   C31238952   6.523   1.104   4.723 -0.2312 -0.5950 -0.6594
  121MOL   C31338953   6.558   1.237   4.709 -0.0875 -0.3113  0.2542
  121MOL   C31438954   6.784   1.434   4.607 -0.0682 -0.4402 -0.3963
  121MOL   H31538955   6.816   1.437   4.811  0.9939 -0.8393 -1.4879
  121MOL   H31638956   6.851   1.213   4.879  0.3373 -2.0638  1.2155
  121MOL   H31738957   6.801   0.981   4.871  0.9158  2.1729 -0.3662
  121MOL   H31838958   6.426   1.076   4.685 -0.9213  0.8806 -0.0509
  121MOL   H31938959   6.501   1.306   4.649 -1.1288 -0.8692  0.5939
  121MOL   H32038960   6.849   1.521   4.595 -0.0336 -0.6219 -1.6097
  121MOL   H32138961   6.838   1.347   4.570 -0.3805 -0.2984 -1.1972
  121MOL   H32238962   6.702   1.437   4.535 -1.5215 -0.3842  1.2180
  122MOL     C138963   0.564   6.019   6.206 -0.5492 -0.3094 -0.3031
  122MOL     C238964   0.651   6.029   6.076  0.1389  0.3415  0.0691
  122MOL     C338965   0.712   5.911   6.021  0.2166 -0.3376  0.5173
  122MOL     C438966   0.795   5.935   5.909 -0.6232  0.7178  0.1415
  122MOL     C538967   0.823   6.060   5.858 -0.7912 -0.0393 -0.4743
  122MOL    Cl638968   0.950   6.092   5.745 -0.0399 -0.3891  0.1482
  122MOL     C738969   0.765   6.172   5.913 -0.6307 -0.2804 -0.1444
  122MOL     C838970   0.682   6.160   6.021  0.3691 -0.4391 -0.3102
  122MOL     C938971   0.428   6.084   6.204  0.0701  0.2924 -0.3811
  122MOL    H1038972   0.619   6.048   6.295 -1.3134 -3.3853  1.2382
  122MOL    H1138973   0.683   5.808   6.038  0.2158 -0.1197  1.8981
  122MOL    H1238974   0.836   5.846   5.862  0.1958  1.0527  0.2113
  122MOL    H1338975   0.796   6.272   5.884 -0.9646  0.2739  1.3641
  122MOL    H1438976   0.646   6.251   6.066  0.3440 -0.3651 -0.4810
  122MOL    H1538977   0.452   6.177   6.153  2.0605 -0.0338 -0.0719
  122MOL    H1638978   0.357   6.035   6.138  2.7832 -2.5233 -1.3280
  122MOL    H1738979   0.550   5.914   6.228  1.3313 -0.0766  2.2123
  122MOL    C1838980   0.360   6.117   6.340  0.0184 -0.2544  0.1102
  122MOL    C1938981   0.447   6.195   6.440  0.1477 -0.8925  0.2795
  122MOL    C2038982   0.460   6.148   6.573  0.8580  0.0188  0.4036
  122MOL    C2138983   0.534   6.226   6.671  0.3067  0.7139  0.3724
  122MOL    C2238984   0.606   6.341   6.620  0.0477  0.0631  0.7633
  122MOL   Cl2338985   0.734   6.411   6.715  0.1531  0.0732 -0.0867
  122MOL    C2438986   0.595   6.386   6.486 -0.8927  0.0234  0.5037
  122MOL    C2538987   0.502   6.320   6.401  0.3426 -0.0005 -1.0722
  122MOL    C2638988   0.240   6.211   6.316  0.3833 -0.3027 -0.1237
  122MOL    H2738989   0.339   6.018   6.382  3.3286 -0.4476  1.4645
  122MOL    H2838990   0.408   6.060   6.608  3.0592 -2.2400 -1.8022
  122MOL    H2938991   0.550   6.199   6.774 -1.5383  2.2228  1.0924
  122MOL    H3038992   0.646   6.472   6.447 -0.8465 -0.7340 -1.1642
  122MOL    H3138993   0.501   6.365   6.303 -3.1214  1.8058 -0.2870
  122MOL    H3238994   0.228   6.275   6.404  1.3869 -0.0666 -0.1547
  122MOL    H3338995   0.269   6.277   6.234  2.3183 -0.1390  0.6530
  122MOL    C3438996   0.104   6.142   6.287 -0.4184  0.2915  0.6866
  122MOL    C3538997   0.039   6.063   6.398 -0.0822 -0.8005 -0.0779
  122MOL    C3638998   8.436   5.932   6.370  0.0575  0.5471 -0.0776
  122MOL    C3738999   8.395   5.858   6.480  0.0847  0.8640  0.6351
  122MOL    C3839000   8.390   5.903   6.613  0.1107 -0.0263  0.2271
  122MOL   Cl3939001   8.317   5.813   6.740  0.2649 -0.4750 -0.1869
  122MOL    C4039002   8.437   6.036   6.629  0.1305 -0.3938  0.2908
  122MOL    C4139003   0.042   6.121   6.524 -0.1639  0.3958 -0.0962
  122MOL    C4239004   0.005   6.249   6.234  0.7381  0.5083 -0.3612
  122MOL    H4339005   0.119   6.070   6.207 -0.7395 -0.6745  1.4908
  122MOL    H4439006   0.003   5.896   6.269 -1.0193  1.8065 -0.6523
  122MOL    H4539007   8.359   5.756   6.480  0.4837  0.7244  0.0314
  122MOL    H4639008   8.436   6.074   6.730 -0.7886  2.5721 -0.7836
  122MOL    H4739009   0.068   6.223   6.546 -0.0411  0.1979  0.6964
  122MOL    H4839010   8.424   6.302   6.326 -1.2422 -0.6950 -0.1362
  122MOL    H4939011   0.052   6.320   6.167  0.0505  1.2918 -0.0133
  122MOL    C5039012   8.324   6.193   6.162  0.2990 -0.2844 -0.5168
  122MOL    C5139013   8.206   6.289   6.169 -0.1665 -0.1558 -0.0640
  122MOL    C5239014   8.213   6.429   6.134 -0.3447  0.3511  0.9910
  122MOL    C5339015   8.095   6.506   6.125  0.1748 -0.7478 -0.2130
  122MOL    C5439016   7.974   6.450   6.175  0.3920  0.8815 -0.2419
  122MOL   Cl5539017   7.833   6.542   6.173 -0.0000  0.2031 -0.5862
  122MOL    C5639018   7.970   6.318   6.228 -0.2101  0.1638 -0.1614
  122MOL    C5739019   8.082   6.238   6.207  0.1849 -0.3252 -0.7736
  122MOL    C5839020   8.349   6.141   6.022 -0.2186 -0.1125  0.8540
  122MOL    H5939021   8.293   6.109   6.224 -1.5055  2.0034  1.7812
  122MOL    H6039022   8.304   6.467   6.089 -0.9779  0.0860 -0.5584
  122MOL    H6139023   8.093   6.603   6.078 -0.0271  0.4206  2.1413
  122MOL    H6239024   7.877   6.282   6.269 -0.6926 -0.6832 -1.9457
  122MOL    H6339025   8.083   6.134   6.234  0.3150 -0.1255 -0.0042
  122MOL    H6439026   8.430   6.067   6.025 -0.6969 -0.8556 -2.3650
  122MOL    H6539027   8.267   6.080   5.984  1.5530 -1.2520 -1.3052
  122MOL    C6639028   8.390   6.246   5.914  0.7764 -0.5517  0.0983
  122MOL    C6739029   0.071   6.199   5.835 -0.4453 -0.6930 -0.7689
  122MOL    C6839030   0.192   6.268   5.851  0.3556  0.7918 -0.5406
  122MOL    C6939031   0.305   6.233   5.773 -0.1097 -0.0903  0.8629
  122MOL    C7039032   0.302   6.125   5.685 -0.2246 -0.2579 -0.1379
  122MOL   Cl7139033   0.445   6.088   5.599  0.3343  0.1180 -0.0675
  122MOL    C7239034   0.182   6.049   5.668 -0.4817  0.2877 -0.2199
  122MOL    C7339035   0.065   6.093   5.739  0.0373 -0.1713 -0.6271
  122MOL    C7439036   8.270   6.285   5.828 -0.5304 -0.3842 -0.2212
  122MOL    H7539037   8.419   6.333   5.973  0.9429 -1.0457  0.7488
  122MOL    H7639038   0.205   6.336   5.934  0.8348 -0.7970  0.7088
  122MOL    H7739039   0.398   6.278   5.806 -0.1681 -0.8073  2.0529
  122MOL    H7839040   0.180   5.959   5.607  0.0960  0.7086 -0.8653
  122MOL    H7939041   8.414   6.039   5.734 -2.1229  3.2006  1.5402
  122MOL    H8039042   8.251   6.206   5.755  0.9793 -3.0167  2.1175
  122MOL    H8139043   8.188   6.291   5.899  0.1134  1.8200  0.3731
  122MOL    C8239044   8.283   6.423   5.766 -0.6673  0.5568 -0.4047
  122MOL    C8339045   8.391   6.424   5.660 -0.0569 -0.0560  0.6568
  122MOL    C8439046   8.395   6.331   5.552  1.0613 -0.6143 -0.2448
  122MOL    C8539047   0.058   6.325   5.459 -0.0026  1.1708 -0.3066
  122MOL    C8639048   0.168   6.408   5.473  0.1974 -0.6479  0.3449
  122MOL   Cl8739049   0.313   6.406   5.379  0.2353 -0.0899 -0.0396
  122MOL    C8839050   0.171   6.492   5.590 -0.4846  0.7616 -0.1536
  122MOL    C8939051   0.062   6.503   5.676 -0.5856  0.4249 -0.3948
  122MOL    C9039052   8.155   6.482   5.696  0.1159 -0.6999 -0.5872
  122MOL    H9139053   8.319   6.489   5.845 -1.0481 -0.6724  0.8028
  122MOL    H9239054   8.308   6.269   5.533 -1.0495  2.6883 -1.8694
  122MOL    H9339055   0.042   6.249   5.383 -1.8808  1.6367 -0.4086
  122MOL    H9439056   0.261   6.552   5.601  0.3679 -0.4892 -0.1664
  122MOL    H9539057   0.064   6.572   5.760  1.0569 -1.3722  1.0869
  122MOL    H9639058   8.121   6.420   5.613 -1.4369 -1.0102  0.2593
  122MOL    H9739059   8.074   6.481   5.769  0.0506 -0.0582 -0.6524
  122MOL    C9839060   8.162   6.625   5.648  0.0942  0.7260  0.1610
  122MOL    C9939061   8.062   6.650   5.531  0.4970 -0.7371  0.5770
  122MOL   C10039062   7.924   6.624   5.545  0.3861 -0.7116 -0.6473
  122MOL   C10139063   7.838   6.645   5.434  0.0109  0.2897 -0.5012
  122MOL   C10239064   7.885   6.706   5.317  0.1392 -0.0825 -0.5959
  122MOL  Cl10339065   7.770   6.753   5.198 -0.0961 -0.3452 -0.3744
  122MOL   C10439066   8.021   6.748   5.307 -0.4273  0.1247 -0.3057
  122MOL   C10539067   8.103   6.718   5.416 -0.3250  0.2581  0.3146
  122MOL   C10639068   8.140   6.735   5.758 -0.1432 -0.9880 -0.1471
  122MOL   H10739069   8.264   6.643   5.616  0.1800  1.6511  0.9306
  122MOL   H10839070   7.885   6.576   5.634  4.0337 -2.1983  0.2290
  122MOL   H10939071   7.733   6.619   5.441 -0.2917  1.2667 -1.2174
  122MOL   H11039072   8.043   6.804   5.218  0.1857 -1.4218 -1.1365
  122MOL   H11139073   8.204   6.756   5.416  1.0359 -3.1666 -1.1437
  122MOL   H11239074   8.072   6.811   5.721  0.9094 -0.2338 -0.5411
  122MOL   H11339075   8.093   6.684   5.842 -1.0241 -2.8411 -1.7190
  122MOL   C11439076   8.265   6.814   5.810 -1.0431 -0.2437  0.0870
  122MOL   C11539077   8.340   6.897   5.705 -0.2601  0.4035  0.0616
  122MOL   C11639078   0.033   6.870   5.684 -0.6338 -0.6725  0.1475
  122MOL   C11739079   0.103   6.930   5.580  0.1651  0.2143  0.8775
  122MOL   C11839080   0.033   7.019   5.491  0.2090 -0.0586 -0.4080
  122MOL  Cl11939081   0.111   7.100   5.362  0.1788 -0.1742  0.0078
  122MOL   C12039082   8.341   7.041   5.515  0.1059 -0.1979  0.6850
  122MOL   C12139083   8.272   6.986   5.623 -0.2318 -0.1140 -0.0273
  122MOL   C12239084   8.240   6.888   5.941 -0.1113 -0.6032 -0.0358
  122MOL   H12339085   8.330   6.732   5.840  0.2559  0.2506 -1.3014
  122MOL   H12439086   0.076   6.799   5.753  0.6367 -1.0305 -0.9852
  122MOL   H12539087   0.207   6.905   5.563  0.0697  1.4472 -1.8418
  122MOL   H12639088   8.282   7.097   5.444 -0.6517 -0.8062  0.8328
  122MOL   H12739089   8.165   6.995   5.612 -0.2420  1.5271  1.3544
  122MOL   H12839090   8.158   6.959   5.924  1.4124  0.6935 -2.2260
  122MOL   H12939091   8.201   6.824   6.021 -0.6748  0.0129  0.1943
  122MOL   C13039092   8.357   6.991   5.982  0.6298 -0.0496  0.0793
  122MOL   C13139093   8.307   7.132   5.996  0.1944 -0.1393 -0.6261
  122MOL   C13239094   8.224   7.170   6.103 -0.0598 -0.0066 -0.3415
  122MOL   C13339095   8.165   7.297   6.106 -0.3816 -0.5447 -0.0367
  122MOL   C13439096   8.204   7.392   6.002  0.3714  0.0434 -0.0330
  122MOL  Cl13539097   8.126   7.540   6.002  0.0619 -0.2692 -0.4143
  122MOL   C13639098   8.284   7.352   5.893 -0.7614 -0.3142  0.3483
  122MOL   C13739099   8.332   7.221   5.887  0.3754 -0.4477  1.0783
  122MOL   C13839100   8.428   6.942   6.118  0.1635  0.3102  0.7836
  122MOL   H13939101   8.437   6.998   5.909  1.2762 -0.8199  0.6952
  122MOL   H14039102   8.194   7.096   6.175 -1.5855 -2.2010 -3.1157
  122MOL   H14139103   8.100   7.330   6.186 -0.2220  0.3092 -0.2521
  122MOL   H14239104   8.291   7.419   5.809 -1.4626  2.0823  2.1555
  122MOL   H14339105   8.392   7.187   5.804  0.4615  1.0548  0.5023
  122MOL   H14439106   8.356   6.940   6.199 -0.4957 -1.3810  0.1743
  122MOL   H14539107   0.018   6.839   6.104 -2.1501 -0.3343 -0.1085
  122MOL   C14639108   0.108   7.030   6.153  0.0843  0.1747 -0.5570
  122MOL   C14739109   0.142   7.021   6.305  0.3272  0.4499  0.2105
  122MOL   C14839110   0.063   7.091   6.400  0.4245 -0.1618 -0.7711
  122MOL   C14939111   0.084   7.078   6.541  0.0187  0.1159  0.0671
  122MOL   C15039112   0.190   6.994   6.583 -0.8373 -0.1808  0.2831
  122MOL  Cl15139113   0.248   6.999   6.752 -0.1873  0.3190  0.1930
  122MOL   C15239114   0.266   6.923   6.488 -0.2764 -0.7670  0.1834
  122MOL   C15339115   0.235   6.926   6.346  0.2185 -0.2399  0.4271
  122MOL   C15439116   0.235   7.024   6.053 -0.6403  0.1879 -0.5850
  122MOL   H15539117   0.075   7.134   6.144 -0.1937  0.2790  1.5228
  122MOL   H15639118   8.424   7.157   6.376  0.5047 -0.0439 -0.7194
  122MOL   H15739119   0.034   7.145   6.609 -0.7947 -0.9473  0.5198
  122MOL   H15839120   0.333   6.851   6.533 -0.8619 -1.1829  0.3864
  122MOL   H15939121   0.278   6.854   6.278 -1.2969 -2.5411  1.8163
  122MOL   H16039122   0.303   6.943   6.075  0.9151  1.0128 -2.2647
  122MOL   H16139123   0.209   6.994   5.952 -1.0500  0.3154 -0.5222
  122MOL   C16239124   0.338   7.146   6.050 -0.0870 -0.1868  0.0964
  122MOL   C16339125   0.283   7.261   5.962  0.4519  0.6938 -0.6114
  122MOL   C16439126   0.296   7.249   5.822  0.4929 -0.1295  0.1170
  122MOL   C16539127   0.234   7.346   5.737 -0.7912  0.2240 -0.5332
  122MOL   C16639128   0.162   7.457   5.791 -0.1693  0.3051 -0.4354
  122MOL  Cl16739129   0.087   7.586   5.700  0.1475 -0.4893  0.6176
  122MOL   C16839130   0.157   7.465   5.932 -0.2341  0.6687 -0.3062
  122MOL   C16939131   0.210   7.368   6.012 -0.0222 -0.2319  0.2193
  122MOL   C17039132   0.406   7.188   6.186  0.3275 -0.0235 -0.6211
  122MOL   H17139133   0.426   7.117   5.994  0.2448 -2.0145  1.5280
  122MOL   H17239134   0.334   7.153   5.788  0.5506 -0.2484  0.5186
  122MOL   H17339135   0.239   7.324   5.631  0.8179  0.1024 -0.4446
  122MOL   H17439136   0.103   7.545   5.978  0.3142  0.2586  1.0834
  122MOL   H17539137   0.198   7.368   6.119  2.6175 -1.4090  0.5466
  122MOL   H17639138   0.388   7.295   6.199  1.3165  0.3173 -1.9431
  122MOL   H17739139   0.362   7.133   6.269 -1.8233 -2.7671 -3.4617
  122MOL   C17839140   0.561   7.163   6.195 -0.8220  0.2734 -0.6905
  122MOL   C17939141   0.591   7.011   6.177 -0.1579  0.3419 -0.2526
  122MOL   C18039142   0.644   6.954   6.056  0.2264  0.3108 -0.1350
  122MOL   C18139143   0.671   6.818   6.044 -0.7436 -0.4865 -0.1912
  122MOL   C18239144   0.655   6.735   6.153  0.3502  0.6473 -0.5509
  122MOL  Cl18339145   0.691   6.567   6.129  0.2564 -0.2916  0.1028
  122MOL   C18439146   0.602   6.783   6.277  0.3006  0.0911  0.0396
  122MOL   C18539147   0.568   6.922   6.286  0.1562  0.6299 -0.3471
  122MOL   C18639148   0.657   7.255   6.127  0.8805  0.5294  0.1525
  122MOL   H18739149   0.596   7.178   6.297 -0.0280  2.6428 -1.3003
  122MOL   H18839150   0.669   7.012   5.969 -0.6620 -0.8209 -1.1569
  122MOL   H18939151   0.695   6.781   5.945 -0.3005  1.9046 -1.0043
  122MOL   H19039152   0.590   6.713   6.358 -1.1474 -0.1190 -0.3422
  122MOL   H19139153   0.525   6.952   6.381  0.4364  1.7990 -0.5844
  122MOL   H19239154   0.755   7.208   6.126 -0.2770 -2.0108  0.4113
  122MOL   H19339155   0.643   7.251   6.019 -0.5785 -1.1659  0.3713
  122MOL   C19439156   0.670   7.399   6.185  1.2355  0.5113 -0.2486
  122MOL   C19539157   0.813   7.435   6.207  0.0963  0.8013  0.1538
  122MOL   C19639158   0.866   7.451   6.340  0.1789  0.6656 -0.1050
  122MOL   C19739159   1.000   7.478   6.361 -0.3498 -0.2795  0.2117
  122MOL   C19839160   1.089   7.502   6.255  0.4487  1.1426 -0.1203
  122MOL  Cl19939161   1.260   7.528   6.280 -0.0559 -0.2185 -0.1920
  122MOL   C20039162   1.035   7.483   6.120  0.1082  0.2357  0.0257
  122MOL   C20139163   0.897   7.440   6.099  0.4053 -0.2654  0.3113
  122MOL   C20239164   0.592   7.506   6.099  0.5109  0.3744  0.3456
  122MOL   H20339165   0.630   7.413   6.285  0.0027  3.9740 -1.1112
  122MOL   H20439166   0.792   7.424   6.414  1.0604 -1.2876  0.0875
  122MOL   H20539167   1.030   7.476   6.465  1.8301 -0.8972 -0.4055
  122MOL   H20639168   1.099   7.492   6.033  0.7361  0.6502  0.5230
  122MOL   H20739169   0.860   7.416   6.000 -0.5196  0.4424  0.4825
  122MOL   H20839170   0.636   7.508   5.999 -0.8675 -0.3136 -0.2928
  122MOL   H20939171   0.491   7.470   6.079  1.0974 -0.6000 -0.9657
  122MOL   C21039172   0.593   7.649   6.150  0.3693 -0.0949 -0.0264
  122MOL   C21139173   0.572   7.755   6.035 -0.3286  0.7471 -0.2370
  122MOL   C21239174   0.665   7.856   6.017 -0.2075  0.1160 -0.4439
  122MOL   C21339175   0.666   7.921   5.894 -0.1934 -0.4433  0.6533
  122MOL   C21439176   0.558   7.907   5.809  0.5557 -0.3882 -0.1268
  122MOL  Cl21539177   0.538   8.024   5.681  0.3244 -0.6146  0.4203
  122MOL   C21639178   0.451   7.815   5.843 -0.4566  0.0031  0.0748
  122MOL   C21739179   0.464   7.731   5.950 -0.4995  0.1382  0.0712
  122MOL   C21839180   0.484   7.675   6.260  0.0163 -0.8270  0.4399
  122MOL   H21939181   0.695   7.676   6.176  0.2441 -0.0251  0.4054
  122MOL   H22039182   0.739   7.873   6.093 -1.6709 -0.1840  1.0831
  122MOL   H22139183   0.730   8.003   5.864 -1.2827 -0.0106 -0.5211
  122MOL   H22239184   0.363   7.814   5.780 -1.5185 -0.2939  1.5584
  122MOL   H22339185   0.399   7.647   5.966 -0.0402 -0.4845 -1.2116
  122MOL   H22439186   0.390   7.674   6.206  0.3758 -0.4417 -0.1969
  122MOL   H22539187   0.486   7.596   6.335 -2.4122 -1.4008 -0.0772
  122MOL   C22639188   0.497   7.799   6.351  0.0096  0.3223  0.2722
  122MOL   C22739189   0.374   7.816   6.446 -0.4453  1.0498  0.4141
  122MOL   C22839190   0.348   7.721   6.552  0.9951  0.2448  0.2820
  122MOL   C22939191   0.231   7.740   6.627  0.9986 -0.0631  0.7094
  122MOL   C23039192   0.143   7.844   6.601  0.2161 -0.0507 -0.8225
  122MOL  Cl23139193   0.002   7.867   6.690  0.0867  0.0623  0.0892
  122MOL   C23239194   0.175   7.941   6.504 -0.4205 -0.4796  0.2202
  122MOL   C23339195   0.286   7.922   6.419  0.7691  0.4781 -0.2010
  122MOL   C23439196   0.630   7.799   6.418  0.0912 -0.4558  0.1183
  122MOL   H23539197   0.497   7.892   6.293  1.4339 -1.2051 -2.2413
  122MOL   H23639198   0.416   7.641   6.577 -0.8622 -2.0089 -1.5814
  122MOL   H23739199   0.202   7.663   6.697  1.1338 -2.7010 -2.0736
  122MOL   H23839200   0.112   8.028   6.493 -0.2990 -0.3395  0.6145
  122MOL   H23939201   0.316   8.002   6.351  0.9136  0.3721 -0.2628
  122MOL   H24039202   0.639   7.693   6.440 -0.7727 -0.0804  2.4911
  122MOL   H24139203   0.700   7.828   6.340 -0.1440  1.1345  0.4787
  122MOL   C24239204   0.654   7.884   6.547  0.0992 -0.0971 -0.4077
  122MOL   C24339205   0.799   7.860   6.590  0.3696 -0.5094  0.0540
  122MOL   C24439206   0.906   7.930   6.530  0.0012  0.2878  0.4915
  122MOL   C24539207   1.036   7.923   6.588 -0.6267  0.3352 -0.0466
  122MOL   C24639208   1.061   7.822   6.674 -0.8014  0.6305  0.0311
  122MOL  Cl24739209   1.218   7.802   6.724  0.1746 -0.3078  0.1626
  122MOL   C24839210   0.963   7.742   6.736  0.0894  1.0167  0.3003
  122MOL   C24939211   0.830   7.767   6.694  0.7918 -0.3733  0.1541
  122MOL   C25039212   0.616   8.034   6.525  0.4226 -0.1434 -0.5792
  122MOL   H25139213   0.599   7.844   6.631 -1.2381  1.3964 -0.5564
  122MOL   H25239214   0.891   7.995   6.445  1.4735  0.5220  0.4021
  122MOL   H25339215   1.109   7.993   6.550  0.2585 -0.6240 -0.1334
  122MOL   H25439216   0.999   7.667   6.805 -0.6320  0.4705  0.0827
  122MOL   H25539217   0.756   7.706   6.744 -1.2483  0.0802 -2.2004
  122MOL   H25639218   0.688   8.079   6.457  0.3268  0.0345 -0.5640
  122MOL   H25739219   0.515   8.049   6.488  0.4224 -2.0252 -1.4146
  122MOL   C25839220   0.610   8.123   6.661  0.3276  0.5761  0.0251
  122MOL   C25939221   0.635   8.267   6.640 -0.3502 -1.0452 -0.5155
  122MOL   C26039222   0.546   8.353   6.575 -0.3886 -0.0431 -0.1799
  122MOL   C26139223   0.580   0.042   6.560 -0.0435 -0.5819  0.1844
  122MOL   C26239224   0.700   0.097   6.611 -0.0969  0.5544  0.0757
  122MOL  Cl26339225   0.741   0.262   6.590  0.0073  0.0585  0.2887
  122MOL   C26439226   0.794   0.007   6.659  0.6335 -0.2253  0.4888
  122MOL   C26539227   0.767   8.310   6.661 -0.6167  0.1154  1.1656
  122MOL   C26639228   0.487   8.084   6.743 -0.4614  0.3122  0.1769
  122MOL   H26739229   0.697   8.094   6.719 -0.2644  3.3166  2.4065
  122MOL   H26839230   0.445   8.327   6.547 -1.0438  1.4930  0.6626
  122MOL   H26939231   0.519   0.110   6.502  0.6314 -1.9963 -2.2820
  122MOL   H27039232   0.898   0.030   6.676  0.7369 -1.1137  1.1251
  122MOL   H27139233   0.838   8.246   6.711 -1.7014 -0.5556  1.8870
  122MOL   H27239234   0.414   8.146   6.691  0.5619  1.4681  0.0877
  122MOL   H27339235   0.458   7.980   6.728  1.7293  0.0208 -2.7562
  122MOL   C27439236   0.492   8.104   6.894  0.1851 -0.3787  0.2877
  122MOL   C27539237   0.349   8.093   6.947 -0.5287 -0.6189 -0.4776
  122MOL   C27639238   0.283   8.206   6.991 -0.0802 -0.3820  0.0102
  122MOL   C27739239   0.154   8.200   7.052 -0.6068  0.2590  0.1929
  122MOL   C27839240   0.092   8.077   7.060  0.6784  0.2515 -1.0974
  122MOL  Cl27939241   8.377   8.072   7.103 -0.0675 -0.1209  0.0940
  122MOL   C28039242   0.157   7.962   7.010 -0.6866 -0.5430 -0.4175
  122MOL   C28139243   0.282   7.971   6.942 -0.3351 -0.3818  0.0358
  122MOL   C28239244   0.598   8.011   6.953 -0.4842  0.5168 -0.8329
  122MOL   H28339245   0.522   8.206   6.914 -1.4031  0.2694 -0.5312
  122MOL   H28439246   0.335   8.301   6.985 -0.3080 -0.2111  0.7021
  122MOL   H28539247   0.109   8.290   7.091 -0.6550  0.1731  0.3369
  122MOL   H28639248   0.103   7.868   7.015 -2.5703  0.5271 -0.0887
  122MOL   H28739249   0.326   7.883   6.899  1.9139 -0.0438  1.5361
  122MOL   H28839250   0.565   7.912   6.920 -0.8675  0.9616 -1.8179
  122MOL   H28939251   0.697   8.038   6.917  0.4109  1.4683  2.1992
  122MOL   C29039252   0.614   8.007   7.112 -1.0630  0.4325  0.5422
  122MOL   C29139253   0.664   7.871   7.149  0.2347 -0.5337 -0.7615
  122MOL   C29239254   0.594   7.784   7.232 -0.7086 -0.1375 -0.1961
  122MOL   C29339255   0.657   7.661   7.267 -0.5209  0.6600  0.9077
  122MOL   C29439256   0.774   7.623   7.208 -0.4950  0.7624 -0.3759
  122MOL  Cl29539257   0.835   7.462   7.228  0.0609 -0.1940  0.3236
  122MOL   C29639258   0.845   7.717   7.135  0.3506 -0.0917 -0.0008
  122MOL   C29739259   0.790   7.836   7.094 -0.6153  0.7119  0.2138
  122MOL   C29839260   0.704   8.112   7.182  0.0346  0.1802  0.3872
  122MOL   H29939261   0.517   8.013   7.161 -0.4182 -1.3664  2.1079
  122MOL   H30039262   0.497   7.809   7.273  0.4964  2.1863  1.3621
  122MOL   H30139263   0.601   7.597   7.333  0.3249 -0.6411  0.3890
  122MOL   H30239264   0.938   7.696   7.085  0.5859  0.3992  0.2379
  122MOL   H30339265   0.844   7.889   7.018 -1.1522  0.7176 -0.1670
  122MOL   H30439266   0.808   8.100   7.152 -0.2068 -1.4533  0.1383
  122MOL   H30539267   0.675   8.208   7.139  0.7455  0.6721  0.9998
  122MOL   C30639268   0.689   8.124   7.342 -0.9533  0.2753  0.0678
  122MOL   C30739269   0.817   8.195   7.406  0.2982  0.1974 -0.2769
  122MOL   C30839270   0.877   8.156   7.527 -0.6537  0.1323 -0.2923
  122MOL   C30939271   0.993   8.214   7.581  1.1138 -0.3909  0.3053
  122MOL   C31039272   1.055   8.316   7.507  0.3235  0.1431 -0.7293
  122MOL  Cl31139273   1.204   8.397   7.548 -0.0292  0.1556 -0.3619
  122MOL   C31239274   0.995   8.363   7.390 -0.0512  0.4755  0.3210
  122MOL   C31339275   0.875   8.308   7.340 -0.9858  0.1962  0.0344
  122MOL   C31439276   0.564   8.188   7.399  0.0022  0.0496  0.2404
  122MOL   H31539277   0.694   8.023   7.383 -1.2639  0.5439  0.7871
  122MOL   H31639278   0.836   8.068   7.576  0.5286 -1.3701 -1.9202
  122MOL   H31739279   1.025   8.178   7.677 -1.0519 -1.2847  0.7240
  122MOL   H31839280   1.044   0.004   7.343 -2.8057  1.1304 -1.4677
  122MOL   H31939281   0.835   8.344   7.247  0.0306  1.0328 -0.0815
  122MOL   H32039282   0.473   8.142   7.358 -0.2690 -0.0024  0.8972
  122MOL   H32139283   0.559   8.174   7.507  1.0648 -0.6983  0.2052
  122MOL   H32239284   0.555   8.293   7.371  1.9404  0.4145  0.9573
  123MOL     C139285   3.882   4.057   6.403  0.6545  0.3397  0.4663
  123MOL     C239286   3.893   3.910   6.411  0.0071  0.0894  0.4899
  123MOL     C339287   3.781   3.835   6.374  0.6515 -0.1314 -0.0559
  123MOL     C439288   3.783   3.696   6.371 -0.0536 -0.5214  0.2793
  123MOL     C539289   3.902   3.626   6.405  0.1006 -0.0509  1.2735
  123MOL    Cl639290   3.924   3.460   6.393 -0.3302 -0.4450 -0.3222
  123MOL     C739291   4.021   3.697   6.443 -0.0474 -0.7423  0.4321
  123MOL     C839292   4.015   3.839   6.457  0.3376  0.3151 -0.2707
  123MOL     C939293   3.792   4.109   6.521  0.2934  0.1590 -0.2172
  123MOL    H1039294   3.840   4.084   6.306  0.8582  0.4812  0.4156
  123MOL    H1139295   3.696   3.896   6.347  2.7373  2.7170 -0.4849
  123MOL    H1239296   3.699   3.640   6.332  0.9891  0.9724 -4.5338
  123MOL    H1339297   4.114   3.641   6.437 -0.3187 -1.1567 -0.0163
  123MOL    H1439298   4.106   3.888   6.489  0.9188 -1.5342  0.9581
  123MOL    H1539299   3.690   4.078   6.500 -0.0382 -0.6220  2.4168
  123MOL    H1639300   3.814   4.069   6.620 -2.5913  0.0199  0.4067
  123MOL    H1739301   3.982   4.100   6.414  1.0373  0.0087 -1.5752
  123MOL    C1839302   3.778   4.263   6.539 -0.2713  0.2342  0.5533
  123MOL    C1939303   3.663   4.297   6.637  0.2686  0.4735  0.1419
  123MOL    C2039304   3.540   4.347   6.584  0.4203 -0.1049  0.0931
  123MOL    C2139305   3.419   4.339   6.656 -0.7100  0.0226 -0.3012
  123MOL    C2239306   3.419   4.286   6.784 -0.4926  0.5451 -0.0527
  123MOL   Cl2339307   3.267   4.283   6.864 -0.0140 -0.2243  0.2571
  123MOL    C2439308   3.540   4.242   6.836  0.6890 -0.5559  0.6445
  123MOL    C2539309   3.664   4.255   6.772  0.0466  1.1754  0.0042
  123MOL    C2639310   3.911   4.340   6.577 -0.2054  0.2072  0.3233
  123MOL    H2739311   3.738   4.294   6.443  0.0104  0.9964  0.6795
  123MOL    H2839312   3.543   4.387   6.484  0.6029  1.3372  0.6679
  123MOL    H2939313   3.327   4.374   6.611  0.9308  0.9900 -3.0094
  123MOL    H3039314   3.532   4.207   6.938 -1.8760 -0.6669  0.4410
  123MOL    H3139315   3.756   4.225   6.820  0.4647 -1.0261 -2.0894
  123MOL    H3239316   3.952   4.302   6.671  0.4962 -0.0307 -0.0725
  123MOL    H3339317   3.983   4.323   6.497 -0.8547  0.3699 -0.2889
  123MOL    C3439318   3.904   4.485   6.610 -0.6572 -0.4264 -0.1469
  123MOL    C3539319   4.033   4.532   6.677 -0.4365  0.3023  0.8475
  123MOL    C3639320   4.039   4.526   6.817  0.2510  0.1147 -0.2450
  123MOL    C3739321   4.158   4.555   6.884  0.2290  0.4868 -0.1448
  123MOL    C3839322   4.271   4.602   6.811 -0.2133  0.0969  0.4909
  123MOL   Cl3939323   4.421   4.624   6.890 -0.3381  0.2539  0.3842
  123MOL    C4039324   4.262   4.599   6.670 -0.3109  0.0513 -0.2386
  123MOL    C4139325   4.147   4.571   6.603  0.3240  0.3018  0.1304
  123MOL    C4239326   3.840   4.573   6.498  0.2588 -0.4568 -0.2799
  123MOL    H4339327   3.825   4.481   6.685 -0.5124 -0.0345  0.0288
  123MOL    H4439328   3.951   4.492   6.871  0.7469 -0.5148  0.1820
  123MOL    H4539329   4.150   4.548   6.992 -1.2418  1.1528 -0.2031
  123MOL    H4639330   4.352   4.633   6.620 -0.0578 -1.2070 -0.6513
  123MOL    H4739331   4.140   4.570   6.495 -0.6052 -2.9780  0.1536
  123MOL    H4839332   3.900   4.575   6.407  0.5771  0.9669 -0.0583
  123MOL    H4939333   3.750   4.529   6.456  1.0940 -1.6476 -0.8510
  123MOL    C5039334   3.817   4.719   6.534  0.2359 -0.3549  0.0736
  123MOL    C5139335   3.829   4.812   6.413 -0.0923  0.5585 -0.0978
  123MOL    C5239336   3.740   4.797   6.310 -0.0531  0.5197  0.4136
  123MOL    C5339337   3.737   4.880   6.198  0.0915  0.7824  0.6445
  123MOL    C5439338   3.829   4.981   6.188  0.3677  0.0669 -0.6658
  123MOL   Cl5539339   3.822   5.085   6.048 -0.1277 -0.0304  0.3596
  123MOL    C5639340   3.919   5.009   6.295  0.3648 -0.7406 -0.0535
  123MOL    C5739341   3.920   4.924   6.406  0.4225 -0.2634 -0.6253
  123MOL    C5839342   3.683   4.742   6.612 -0.2929  0.9570  0.6490
  123MOL    H5939343   3.897   4.756   6.599  0.9813  0.2563 -1.1644
  123MOL    H6039344   3.664   4.720   6.320  1.9002 -1.2913  1.6438
  123MOL    H6139345   3.671   4.853   6.117 -0.4992  0.1426  1.3376
  123MOL    H6239346   3.979   5.099   6.296 -0.7062 -0.0149  1.2455
  123MOL    H6339347   3.981   4.948   6.492  2.2095 -0.9862 -1.6639
  123MOL    H6439348   3.597   4.776   6.553  0.7725  1.3603 -0.6995
  123MOL    H6539349   3.660   4.646   6.658  2.3389 -0.5378 -1.0635
  123MOL    C6639350   3.692   4.851   6.730  0.7617  0.0748 -0.3455
  123MOL    C6739351   3.737   4.993   6.686  0.4138  0.0698 -0.1770
  123MOL    C6839352   3.666   5.061   6.583  0.1533 -0.0961 -0.3059
  123MOL    C6939353   3.707   5.185   6.543  0.6478  0.2038 -0.2688
  123MOL    C7039354   3.820   5.250   6.590 -0.2157 -0.0340  0.5082
  123MOL   Cl7139355   3.874   5.404   6.530  0.3866 -0.0545  0.3599
  123MOL    C7239356   3.890   5.186   6.695  0.4964  0.2547 -0.5733
  123MOL    C7339357   3.848   5.059   6.743  0.3307  0.0460 -0.2191
  123MOL    C7439358   3.561   4.860   6.808  0.5670  0.3773  0.2748
  123MOL    H7539359   3.773   4.822   6.796  0.0173  1.1168  1.0511
  123MOL    H7639360   3.574   5.025   6.538 -0.9556  0.3020  1.5827
  123MOL    H7739361   3.656   5.228   6.458 -0.7788 -1.2316 -0.1439
  123MOL    H7839362   3.976   5.232   6.741  0.1769  3.1674 -2.7392
  123MOL    H7939363   3.902   5.016   6.826 -1.3182 -1.1498  0.2624
  123MOL    H8039364   3.560   4.944   6.877  0.9038  1.8298 -1.4708
  123MOL    H8139365   3.478   4.884   6.742  0.8952 -0.1501 -0.3292
  123MOL    C8239366   3.510   4.740   6.883 -0.4496 -0.0394  0.0963
  123MOL    C8339367   3.619   4.693   6.979 -0.2317  0.2250  0.7033
  123MOL    C8439368   3.679   4.781   7.077  0.2700  0.4272  0.2022
  123MOL    C8539369   3.782   4.731   7.166  0.1021  0.1829  0.2141
  123MOL    C8639370   3.819   4.593   7.161  0.0043 -0.4939 -0.3928
  123MOL   Cl8739371   3.952   4.544   7.259 -0.0241 -0.1603 -0.1729
  123MOL    C8839372   3.747   4.509   7.077  0.5045  0.1425  0.7420
  123MOL    C8939373   3.656   4.558   6.988 -0.1711 -0.0009 -1.0162
  123MOL    C9039374   3.379   4.772   6.967  0.3084  0.3151 -0.0917
  123MOL    H9139375   3.502   4.662   6.807 -1.4293 -0.7694  0.9337
  123MOL    H9239376   3.643   4.882   7.086  1.9312  1.1684 -1.1931
  123MOL    H9339377   3.844   4.792   7.229  1.5577 -0.6517 -0.3770
  123MOL    H9439378   3.774   4.404   7.071  0.9665  0.3931 -2.5250
  123MOL    H9539379   3.602   4.494   6.919 -0.5117  1.3164 -1.9825
  123MOL    H9639380   3.395   4.850   7.042  2.1044  1.6093 -1.7720
  123MOL    H9739381   3.313   4.815   6.892 -0.0753 -1.6669 -0.9240
  123MOL    C9839382   3.308   4.653   7.031  0.4546  0.6509  0.2044
  123MOL    C9939383   3.379   4.597   7.152  0.1156  0.6603  0.6934
  123MOL   C10039384   3.418   4.464   7.173 -0.1534  0.4648 -0.8097
  123MOL   C10139385   3.487   4.423   7.292 -0.3309 -0.2674  0.5773
  123MOL   C10239386   3.510   4.510   7.399 -0.4161  0.1142  0.4715
  123MOL  Cl10339387   3.571   4.463   7.552  0.2576  0.4705 -0.1643
  123MOL   C10439388   3.477   4.643   7.371  0.8259 -1.0871  0.7819
  123MOL   C10539389   3.406   4.686   7.259 -0.7930  0.5360  0.3676
  123MOL   C10639390   3.176   4.689   7.075  0.0484 -0.8276 -0.5748
  123MOL   H10739391   3.301   4.570   6.960  0.7757 -1.8641  2.9903
  123MOL   H10839392   3.387   4.385   7.107 -2.2880  0.2392  0.4006
  123MOL   H10939393   3.517   4.321   7.309 -1.1296 -0.2504  2.1822
  123MOL   H11039394   3.483   4.722   7.444 -2.2690  0.4059 -0.4992
  123MOL   H11139395   3.383   4.792   7.251 -0.1057  0.6294 -0.4973
  123MOL   H11239396   3.134   4.601   7.125 -0.4631 -0.3950 -0.2400
  123MOL   H11339397   3.179   4.773   7.144 -1.5667 -0.9137 -0.3933
  123MOL   C11439398   3.057   4.742   6.974 -0.7845 -0.2132  0.2702
  123MOL   C11539399   3.075   4.690   6.831  0.2937 -0.0836  0.6095
  123MOL   C11639400   3.085   4.550   6.804  0.3800  0.3941  0.0663
  123MOL   C11739401   3.091   4.511   6.673 -0.5719 -0.5197 -0.2512
  123MOL   C11839402   3.116   4.602   6.571 -0.0926 -0.1022  0.0701
  123MOL  Cl11939403   3.149   4.540   6.408  0.1571 -0.1291  0.5257
  123MOL   C12039404   3.119   4.738   6.592 -0.8814 -0.2851  0.5231
  123MOL   C12139405   3.094   4.779   6.724  0.2887 -0.0284 -0.2974
  123MOL   C12239406   2.916   4.697   7.017 -0.0341  0.3538  0.1763
  123MOL   H12339407   3.052   4.850   6.960  0.4961 -0.3740 -1.5786
  123MOL   H12439408   3.064   4.478   6.881  1.3620  0.6181  0.5542
  123MOL   H12539409   3.074   4.405   6.657 -0.5988 -0.2064 -2.3871
  123MOL   H12639410   3.152   4.810   6.518 -0.7986 -0.0886  0.7525
  123MOL   H12739411   3.096   4.883   6.750  1.5922  0.2201 -1.3658
  123MOL   H12839412   2.847   4.739   6.944  0.4508  2.8536  1.1248
  123MOL   H12939413   2.904   4.588   7.015  1.8782  0.1484 -1.9406
  123MOL   C13039414   2.873   4.737   7.161  0.0375  0.4785  1.0953
  123MOL   C13139415   2.848   4.885   7.169  0.0386 -0.4245 -0.2346
  123MOL   C13239416   2.733   4.946   7.121  0.7026 -0.1384 -0.2750
  123MOL   C13339417   2.716   5.088   7.133 -0.1400  0.0837 -0.5441
  123MOL   C13439418   2.817   5.169   7.179  0.4829 -0.9419  0.9244
  123MOL  Cl13539419   2.805   5.342   7.168 -0.4380 -0.0312 -0.1490
  123MOL   C13639420   2.934   5.108   7.222 -0.2595 -0.0034  0.3803
  123MOL   C13739421   2.948   4.969   7.222  0.3417  0.7131  0.6555
  123MOL   C13839422   2.757   4.653   7.225 -0.2205 -0.4496 -0.3384
  123MOL   H13939423   2.954   4.716   7.230 -1.1966 -1.9677  1.8814
  123MOL   H14039424   2.648   4.888   7.090 -0.9931  0.9790  2.1563
  123MOL   H14139425   2.631   5.133   7.085 -0.5994  0.2653  0.4433
  123MOL   H14239426   3.020   5.169   7.244  0.5468 -1.2210  0.6699
  123MOL   H14339427   3.038   4.919   7.254 -1.3188 -2.2573  0.8614
  123MOL   H14439428   2.699   4.721   7.288  2.3838  0.7636  0.8405
  123MOL   H14539429   2.689   4.637   7.142 -0.9802  3.0615 -0.4471
  123MOL   C14639430   2.808   4.528   7.304  0.3941  1.1006 -0.7630
  123MOL   C14739431   2.698   4.496   7.410  1.0751 -0.7398 -0.5335
  123MOL   C14839432   2.619   4.378   7.392 -0.1807 -0.5025  0.4701
  123MOL   C14939433   2.516   4.348   7.481  0.5676 -0.9711  0.5323
  123MOL   C15039434   2.493   4.428   7.594  0.3716  0.8369 -1.3680
  123MOL  Cl15139435   2.377   4.385   7.716 -0.1265 -0.3501 -0.0444
  123MOL   C15239436   2.575   4.542   7.616  0.1454  0.6737 -0.2018
  123MOL   C15339437   2.668   4.581   7.517  0.5389  0.1867 -0.0460
  123MOL   C15439438   2.870   4.413   7.233  1.0310 -0.7276 -0.2113
  123MOL   H15539439   2.892   4.564   7.363 -0.6097  1.0056  0.7402
  123MOL   H15639440   2.636   4.315   7.306  0.7583 -2.6566  2.1918
  123MOL   H15739441   2.451   4.265   7.460  0.8019 -1.5943  2.1928
  123MOL   H15839442   2.571   4.598   7.709  0.6197 -0.2437  0.3728
  123MOL   H15939443   2.723   4.674   7.523  2.7591 -1.2515  3.2005
  123MOL   H16039444   2.789   4.371   7.174  0.4052  2.1920 -1.5203
  123MOL   H16139445   2.936   4.446   7.153 -1.3126  0.1399 -1.8505
  123MOL   C16239446   2.939   4.313   7.321  0.3403 -0.0254 -0.5845
  123MOL   C16339447   2.940   4.181   7.240 -0.1512 -0.0966 -0.5471
  123MOL   C16439448   2.865   4.070   7.282  0.3208 -1.0989 -0.7068
  123MOL   C16539449   2.852   3.958   7.199 -0.0679  0.9320 -0.1001
  123MOL   C16639450   2.913   3.956   7.074 -0.2665 -0.5699  0.0783
  123MOL  Cl16739451   2.906   3.808   6.989  0.1669  0.2119 -0.0533
  123MOL   C16839452   2.991   4.060   7.028  0.2082  0.1219 -0.4049
  123MOL   C16939453   2.995   4.174   7.110  0.3967 -0.3099 -0.3754
  123MOL   C17039454   3.082   4.358   7.364  0.1455 -0.0892  0.1133
  123MOL   H17139455   2.878   4.299   7.411 -0.6011  2.8225 -0.7172
  123MOL   H17239456   2.813   4.072   7.376  3.0831 -0.6008  0.8587
  123MOL   H17339457   2.789   3.872   7.216  0.8687  0.5661  1.6991
  123MOL   H17439458   3.041   4.058   6.933 -1.3447 -0.0509 -1.2266
  123MOL   H17539459   3.048   4.257   7.067  1.1250 -1.4401 -1.7273
  123MOL   H17639460   3.141   4.347   7.273  1.5993 -0.4642  1.0772
  123MOL   H17739461   3.092   4.467   7.362 -1.3949  0.0306 -1.7099
  123MOL   C17839462   3.144   4.304   7.498  0.2812  0.0412  1.5770
  123MOL   C17939463   3.110   4.409   7.604 -0.0440 -0.1556 -0.1211
  123MOL   C18039464   2.978   4.416   7.652  0.1716  0.0991  0.2562
  123MOL   C18139465   2.940   4.518   7.739 -0.5103 -0.3460 -0.3759
  123MOL   C18239466   3.029   4.621   7.772  0.2538 -0.2903 -0.1635
  123MOL  Cl18339467   2.995   4.736   7.889  0.2890 -0.0453  0.0527
  123MOL   C18439468   3.162   4.612   7.724 -0.3256 -0.2132 -0.3346
  123MOL   C18539469   3.201   4.505   7.643  0.9752  1.1318 -0.1728
  123MOL   C18639470   3.114   4.163   7.534 -0.1143  0.7504  0.1634
  123MOL   H18739471   3.253   4.310   7.491  0.0306  0.6801 -3.8289
  123MOL   H18839472   2.908   4.335   7.636 -0.0522  0.1892  0.7681
  123MOL   H18939473   2.837   4.535   7.766  0.3550  1.1988  2.1536
  123MOL   H19039474   3.234   4.683   7.761 -2.3380  2.2065 -0.9318
  123MOL   H19139475   3.304   4.496   7.612  1.6268 -0.1070  2.2884
  123MOL   H19239476   3.115   4.169   7.642  0.7303  0.5454  0.1703
  123MOL   H19339477   3.010   4.130   7.530  0.0794  0.0258  1.0726
  123MOL   C19439478   3.228   4.058   7.497 -0.5326  0.1669  0.0127
  123MOL   C19539479   3.189   3.923   7.565 -0.3557 -0.2703 -0.3446
  123MOL   C19639480   3.289   3.856   7.649  0.1660  0.6979 -0.1443
  123MOL   C19739481   3.265   3.733   7.702 -0.0660  0.5401  0.2710
  123MOL   C19839482   3.152   3.658   7.663 -0.1582 -0.2438 -0.0072
  123MOL  Cl19939483   3.135   3.488   7.701  0.1982 -0.3613 -0.6550
  123MOL   C20039484   3.054   3.722   7.583  0.1294 -0.4681 -0.0040
  123MOL   C20139485   3.075   3.848   7.527  0.4643 -0.5885  0.1630
  123MOL   C20239486   3.255   4.038   7.343  0.0715 -0.5337 -0.4105
  123MOL   H20339487   3.324   4.087   7.540 -0.6127 -1.9884  1.7642
  123MOL   H20439488   3.384   3.900   7.677  0.4524  1.1417 -1.7487
  123MOL   H20539489   3.348   3.699   7.763  0.3769  3.5189  1.3932
  123MOL   H20639490   2.969   3.662   7.552  0.2243 -0.7574  0.2865
  123MOL   H20739491   3.002   3.892   7.460  0.0950 -3.1883 -1.2177
  123MOL   H20839492   3.165   3.990   7.304 -0.6252  0.9636 -0.7175
  123MOL   H20939493   3.247   4.133   7.289 -1.0882 -0.0068  0.6704
  123MOL   C21039494   3.359   3.934   7.291  0.6258  0.0808  0.4527
  123MOL   C21139495   3.313   3.873   7.165  0.3985  0.1700 -0.3601
  123MOL   C21239496   3.254   3.747   7.169  0.4730 -0.4792 -0.0097
  123MOL   C21339497   3.215   3.682   7.051  0.1648 -0.9779  0.1303
  123MOL   C21439498   3.235   3.746   6.924  0.3617  0.6679 -0.8859
  123MOL  Cl21539499   3.166   3.676   6.782 -0.0470  0.6040  0.0747
  123MOL   C21639500   3.278   3.875   6.920  0.6203  0.0737  0.4174
  123MOL   C21739501   3.323   3.937   7.040 -0.0398 -0.1112  0.4499
  123MOL   C21839502   3.500   3.988   7.280 -0.2192  0.0424 -0.4717
  123MOL   H21939503   3.372   3.863   7.372  1.7837  0.8443  0.9308
  123MOL   H22039504   3.242   3.703   7.267  3.2145 -1.3902 -0.0493
  123MOL   H22139505   3.169   3.585   7.047  1.5552 -1.6008 -1.2460
  123MOL   H22239506   3.284   3.934   6.829  0.0262  0.3602  0.5658
  123MOL   H22339507   3.368   4.035   7.038  0.7984 -0.4911  0.1691
  123MOL   H22439508   3.490   4.076   7.216  0.9416  2.1023  2.0939
  123MOL   H22539509   3.522   4.019   7.382 -2.0966 -0.1896  0.0372
  123MOL   C22639510   3.598   3.892   7.224  0.3086  0.0131 -0.2095
  123MOL   C22739511   3.725   3.969   7.200  0.0644  0.3715  0.0318
  123MOL   C22839512   3.782   3.971   7.073 -0.9659  0.5208 -0.0434
  123MOL   C22939513   3.902   4.043   7.049  0.6562  1.1710 -0.3399
  123MOL   C23039514   3.955   4.122   7.152  0.0036  0.0891  0.2123
  123MOL  Cl23139515   4.096   4.222   7.120 -0.0011  0.2253 -0.1637
  123MOL   C23239516   3.891   4.127   7.279 -0.1168  0.3744  0.1562
  123MOL   C23339517   3.783   4.044   7.302  0.5263  0.5262 -0.2592
  123MOL   C23439518   3.625   3.773   7.317 -0.4861  0.5474  0.8281
  123MOL   H23539519   3.552   3.865   7.129  1.9134 -0.1784 -0.9385
  123MOL   H23639520   3.749   3.898   7.001  1.6809 -0.0907 -0.6958
  123MOL   H23739521   3.946   4.051   6.951 -0.8653  0.7543 -1.0800
  123MOL   H23839522   3.929   4.183   7.363  2.2182 -0.6661 -0.1514
  123MOL   H23939523   3.742   4.048   7.402 -0.1547  1.3003 -0.5609
  123MOL   H24039524   3.715   3.793   7.375  0.3420 -0.3156 -0.1392
  123MOL   H24139525   3.556   3.764   7.401  0.1269 -0.2353  1.2582
  123MOL   C24239526   3.640   3.641   7.238  0.2346  0.7400  0.9817
  123MOL   C24339527   3.747   3.639   7.128 -0.1112 -0.4028  0.0564
  123MOL   C24439528   3.723   3.575   7.006  0.2485 -0.4276 -0.1651
  123MOL   C24539529   3.821   3.569   6.904  0.4422 -0.3316 -0.4954
  123MOL   C24639530   3.945   3.631   6.931 -0.0089 -0.4211 -0.2400
  123MOL  Cl24739531   4.064   3.628   6.802  0.2293  0.0825  0.1818
  123MOL   C24839532   3.971   3.692   7.058 -1.1146 -0.1895 -0.1141
  123MOL   C24939533   3.873   3.699   7.156  0.1677  0.0008 -0.0941
  123MOL   C25039534   3.677   3.527   7.338 -0.0474  0.1029  0.0274
  123MOL   H25139535   3.546   3.625   7.185  0.9410 -0.3997  0.0319
  123MOL   H25239536   3.628   3.529   6.980 -0.8107  1.7143 -0.2249
  123MOL   H25339537   3.817   3.507   6.816  0.8200  0.3900 -1.0170
  123MOL   H25439538   4.060   3.753   7.070 -2.3477  1.6314 -0.0224
  123MOL   H25539539   3.888   3.754   7.248 -1.0920 -0.0826  0.1636
  123MOL   H25639540   3.733   3.448   7.286  0.7900  1.5155 -1.2831
  123MOL   H25739541   3.738   3.570   7.418  0.5639  1.0576 -0.9288
  123MOL   C25839542   3.562   3.457   7.418 -0.6141  0.6995  0.7084
  123MOL   C25939543   3.452   3.403   7.324  0.0998 -0.7235 -0.1556
  123MOL   C26039544   3.325   3.458   7.325 -0.1210  0.1047  0.0632
  123MOL   C26139545   3.221   3.403   7.247  0.3581 -0.4150 -1.4862
  123MOL   C26239546   3.251   3.293   7.165  0.3373  0.0510  0.5583
  123MOL  Cl26339547   3.126   3.220   7.075  0.1117  0.2937  0.1509
  123MOL   C26439548   3.386   3.246   7.154 -0.5008 -0.4822 -0.0776
  123MOL   C26539549   3.485   3.307   7.233 -0.6564  0.3190 -0.1595
  123MOL   C26639550   3.601   3.335   7.504 -0.4489  0.0887 -0.0208
  123MOL   H26739551   3.519   3.528   7.489  1.3571  0.6660  1.9809
  123MOL   H26839552   3.309   3.541   7.393  1.5648 -0.3898  1.1016
  123MOL   H26939553   3.119   3.438   7.240  0.2596 -0.6013 -1.0168
  123MOL   H27039554   3.410   3.174   7.077  0.8672 -0.1455  0.0195
  123MOL   H27139555   3.585   3.265   7.237 -1.1511 -0.9866 -1.0494
  123MOL   H27239556   3.517   3.267   7.510 -0.6791  0.4451  0.8447
  123MOL   H27339557   3.674   3.278   7.446 -1.5138 -0.6249 -0.6656
  123MOL   C27439558   3.674   3.341   7.640 -0.1716 -0.2475 -0.1913
  123MOL   C27539559   3.823   3.344   7.636  0.0778 -0.1671  0.8706
  123MOL   C27639560   3.900   3.460   7.623 -0.3489 -0.6109 -0.4241
  123MOL   C27739561   4.038   3.453   7.613  0.0217 -0.4115  0.8063
  123MOL   C27839562   4.100   3.330   7.624  0.6619  1.1211  0.3562
  123MOL  Cl27939563   4.264   3.303   7.594 -0.2767  0.0105  0.7406
  123MOL   C28039564   4.029   3.208   7.645  0.3914 -0.1050 -0.3585
  123MOL   C28139565   3.885   3.217   7.654 -0.5242 -0.6531  0.0596
  123MOL   C28239566   3.604   3.438   7.733  0.3706 -0.2281  0.6508
  123MOL   H28339567   3.643   3.244   7.680  1.2728 -0.6012  0.1001
  123MOL   H28439568   3.850   3.556   7.624 -1.0272 -0.9600 -0.4924
  123MOL   H28539569   4.104   3.538   7.613  0.1967 -0.5437  0.1027
  123MOL   H28639570   4.083   3.115   7.643  0.2724 -0.1652 -0.6966
  123MOL   H28739571   3.827   3.127   7.655 -1.3899 -0.1342 -1.3300
  123MOL   H28839572   3.629   3.536   7.691  1.8028 -0.0215  1.9833
  123MOL   H28939573   3.498   3.419   7.714  0.6990 -0.7638 -0.7157
  123MOL   C29039574   3.641   3.430   7.879 -0.8986 -0.5422  0.6989
  123MOL   C29139575   3.580   3.543   7.956 -0.0802  0.7620 -0.0268
  123MOL   C29239576   3.441   3.553   7.970  0.1856  0.4258  0.5879
  123MOL   C29339577   3.382   3.673   8.030  1.0054  1.1383 -0.0989
  123MOL   C29439578   3.462   3.781   8.072  0.0378 -0.5772 -0.1521
  123MOL  Cl29539579   3.391   3.923   8.142 -0.2566 -0.3932  0.1757
  123MOL   C29639580   3.601   3.771   8.044  0.7114  0.2610 -0.6313
  123MOL   C29739581   3.658   3.657   7.991 -0.0801  0.2460 -0.0486
  123MOL   C29839582   3.628   3.288   7.942  0.4033 -0.6823  0.5058
  123MOL   H29939583   3.748   3.448   7.885 -0.7361 -0.1967 -2.1897
  123MOL   H30039584   3.385   3.474   7.923 -0.7875  2.5057 -1.8301
  123MOL   H30139585   3.275   3.681   8.041  0.8858 -1.6455  1.1327
  123MOL   H30239586   3.664   3.856   8.065  0.3310 -0.0425  1.9561
  123MOL   H30339587   3.766   3.654   7.987 -0.0774  0.0087  0.1792
  123MOL   H30439588   3.532   3.242   7.920  0.1343  0.8520 -1.7440
  123MOL   H30539589   3.699   3.227   7.886 -0.0423 -1.9019  1.2456
  123MOL   C30639590   3.673   3.270   8.089 -0.4357 -1.0267  0.6685
  123MOL   C30739591   3.795   3.360   8.128  0.2952  1.1342  0.5320
  123MOL   C30839592   3.913   3.340   8.055  0.1804 -0.7037 -0.4657
  123MOL   C30939593   4.036   3.403   8.090 -0.9311 -0.0388  0.5486
  123MOL   C31039594   4.034   3.491   8.199  0.6033 -0.5960  0.0509
  123MOL  Cl31139595   4.170   3.577   8.257  0.0973  0.0605 -0.1087
  123MOL   C31239596   3.912   3.518   8.266 -0.0377 -0.5245 -0.2376
  123MOL   C31339597   3.790   3.453   8.233 -1.1638  0.6424  0.0572
  123MOL   C31439598   3.562   3.282   8.190  0.6037 -0.0918 -0.4652
  123MOL   H31539599   3.717   3.170   8.091 -0.3698 -1.0166 -0.0251
  123MOL   H31639600   3.913   3.260   7.982 -0.0969 -1.3645  0.2480
  123MOL   H31739601   4.120   3.396   8.023 -0.4400  1.2141  1.0180
  123MOL   H31839602   3.927   3.584   8.351 -3.6774  0.6407 -0.4150
  123MOL   H31939603   3.704   3.473   8.296 -1.3478 -0.0456  0.0342
  123MOL   H32039604   3.592   3.254   8.291 -1.1080 -3.4031 -0.7958
  123MOL   H32139605   3.517   3.381   8.196 -0.6758 -0.7617  1.7548
  123MOL   H32239606   3.484   3.211   8.163  2.1434 -2.5518  1.3441
  124MOL     C139607   4.778   6.618   5.252  0.0781 -0.4034  0.5616
  124MOL     C239608   4.753   6.729   5.158  0.0985  0.2361 -0.9021
  124MOL     C339609   4.629   6.739   5.086  0.4728 -0.8605 -1.0313
  124MOL     C439610   4.615   6.840   4.993 -0.4202 -0.2507 -0.2937
  124MOL     C539611   4.723   6.935   4.969  0.9230  0.6296 -0.2620
  124MOL    Cl639612   4.705   7.064   4.855 -0.1953 -0.1512 -0.1541
  124MOL     C739613   4.839   6.927   5.044 -0.0781  0.2539 -0.8886
  124MOL     C839614   4.850   6.827   5.143 -0.8552 -0.9335  0.7322
  124MOL     C939615   4.780   6.670   5.393  0.4635  0.1546  0.0326
  124MOL    H1039616   4.876   6.585   5.215 -0.1656  2.2413 -2.7542
  124MOL    H1139617   4.560   6.658   5.105  0.7277 -0.5550  1.3796
  124MOL    H1239618   4.516   6.858   4.951 -0.6669  1.9848  1.1338
  124MOL    H1339619   4.916   7.002   5.034 -1.1274  1.3127 -1.1591
  124MOL    H1439620   4.935   6.823   5.210 -0.0280 -1.1907 -0.3289
  124MOL    H1539621   4.872   6.721   5.420  1.7419 -2.2717  0.3818
  124MOL    H1639622   4.706   6.750   5.402  2.0293  1.8933 -1.8865
  124MOL    H1739623   4.707   6.536   5.244  0.3772 -0.6507  0.3996
  124MOL    C1839624   4.742   6.565   5.505 -1.0402  0.1246  0.1145
  124MOL    C1939625   4.825   6.436   5.501 -0.1257 -0.1979  0.4191
  124MOL    C2039626   4.764   6.314   5.538 -0.7624 -0.4929 -0.8628
  124MOL    C2139627   4.837   6.197   5.547  0.5236  0.4262  0.1516
  124MOL    C2239628   4.973   6.199   5.515 -0.2554  0.8401  0.2291
  124MOL   Cl2339629   5.067   6.062   5.537 -0.3325 -0.1344 -0.1729
  124MOL    C2439630   5.037   6.314   5.466 -0.2790 -0.0082 -0.8032
  124MOL    C2539631   4.964   6.433   5.455  0.2875 -0.5597  0.7331
  124MOL    C2639632   4.747   6.607   5.653  0.3629 -0.1010 -0.1030
  124MOL    H2739633   4.640   6.532   5.486 -1.6185  1.7029  0.3593
  124MOL    H2839634   4.658   6.318   5.560 -0.8260  0.5307 -1.3042
  124MOL    H2939635   4.787   6.106   5.574  1.1091  0.5804  1.8270
  124MOL    H3039636   5.140   6.311   5.433 -0.1879  0.9143 -0.6065
  124MOL    H3139637   5.015   6.523   5.424  0.6965 -0.7305  0.9182
  124MOL    H3239638   4.719   6.521   5.713  0.4995  0.9063  1.4449
  124MOL    H3339639   4.852   6.634   5.664  0.6662 -1.3594  0.0547
  124MOL    C3439640   4.639   6.710   5.688  0.0322 -0.6316 -0.6104
  124MOL    C3539641   4.497   6.667   5.674 -0.7689  0.3870 -0.4728
  124MOL    C3639642   4.409   6.757   5.610  0.2061  0.2842  0.9599
  124MOL    C3739643   4.275   6.719   5.596 -0.9236  0.1708 -0.2640
  124MOL    C3839644   4.231   6.593   5.639 -0.2381 -0.3786  0.8231
  124MOL   Cl3939645   4.064   6.551   5.615  0.2747  0.1133  0.0119
  124MOL    C4039646   4.316   6.505   5.707  0.7796 -0.1077  0.3783
  124MOL    C4139647   4.445   6.553   5.737 -0.3598 -0.4046  0.8993
  124MOL    C4239648   4.663   6.777   5.825  0.2980 -0.1661  0.8893
  124MOL    H4339649   4.652   6.794   5.621 -1.1512  0.2229  0.2111
  124MOL    H4439650   4.448   6.846   5.564 -2.9617  0.2715 -2.0074
  124MOL    H4539651   4.213   6.785   5.537 -0.4017 -0.8054 -1.9467
  124MOL    H4639652   4.290   6.408   5.746  0.2814  0.1900  0.7894
  124MOL    H4739653   4.514   6.496   5.798  0.6864  0.7462  0.8212
  124MOL    H4839654   4.658   6.697   5.899  0.6600 -0.6313  0.4109
  124MOL    H4939655   4.767   6.812   5.820  1.3526 -3.4324 -1.5458
  124MOL    C5039656   4.570   6.895   5.866  0.3449  0.3952 -0.9839
  124MOL    C5139657   4.494   6.850   5.989 -0.0130  0.1610  0.0225
  124MOL    C5239658   4.361   6.809   5.988 -0.3543  0.2598  0.6561
  124MOL    C5339659   4.307   6.750   6.100 -0.2457  0.0721 -0.0117
  124MOL    C5439660   4.378   6.737   6.218 -0.2438  0.4394 -0.2931
  124MOL   Cl5539661   4.319   6.649   6.356  0.2535 -0.1910 -0.1649
  124MOL    C5639662   4.501   6.797   6.228 -0.8061  0.0588  0.0137
  124MOL    C5739663   4.556   6.851   6.114  0.3720 -0.4269  0.3082
  124MOL    C5839664   4.669   7.009   5.900  0.2890 -0.1824 -0.3920
  124MOL    H5939665   4.495   6.938   5.800 -1.6902 -0.3732  0.7633
  124MOL    H6039666   4.305   6.794   5.897  1.0161 -0.3601 -0.1079
  124MOL    H6139667   4.210   6.706   6.085 -0.5377  0.4383  0.8147
  124MOL    H6239668   4.559   6.804   6.319 -1.0859 -1.3316  0.3003
  124MOL    H6339669   4.657   6.888   6.129 -0.5620  1.5327  1.9069
  124MOL    H6439670   4.601   7.076   5.953  0.8028  0.2425 -0.2566
  124MOL    H6539671   4.746   6.982   5.972 -0.6708 -0.2734  0.6063
  124MOL    C6639672   4.735   7.089   5.781 -1.1650  0.2420 -0.0403
  124MOL    C6739673   4.641   7.192   5.722  0.0727 -0.0035  0.8744
  124MOL    C6839674   4.596   7.309   5.790 -0.0120  0.4831  0.2713
  124MOL    C6939675   4.504   7.397   5.731 -0.4861  0.2616 -0.1488
  124MOL    C7039676   4.484   7.389   5.595 -0.5982 -1.1604  0.2725
  124MOL   Cl7139677   4.385   7.503   5.522 -0.0981  0.0158  0.4173
  124MOL    C7239678   4.530   7.281   5.526 -0.1297  0.4287 -0.0452
  124MOL    C7339679   4.621   7.194   5.583  0.0099 -0.1099 -0.0317
  124MOL    C7439680   4.857   7.163   5.837 -0.5154  0.2454  0.1274
  124MOL    H7539681   4.771   7.022   5.702 -0.5228 -0.6124  0.9562
  124MOL    H7639682   4.604   7.310   5.898 -2.3208  0.0419  0.4697
  124MOL    H7739683   4.455   7.474   5.789 -0.9623  2.1445 -2.9276
  124MOL    H7839684   4.493   7.281   5.424 -1.2527 -1.1555  0.3483
  124MOL    H7939685   4.650   7.106   5.526  0.3635 -0.4645  0.6963
  124MOL    H8039686   4.868   7.252   5.775 -0.9932 -0.7818 -1.4566
  124MOL    H8139687   4.828   7.215   5.928  1.4739  0.5718  0.6145
  124MOL    C8239688   4.981   7.080   5.870  0.1441  0.0653  0.5311
  124MOL    C8339689   5.019   6.993   5.758 -0.0875 -0.7664 -0.1065
  124MOL    C8439690   5.024   7.050   5.628 -0.0560 -0.5724 -0.8330
  124MOL    C8539691   5.069   6.987   5.515  0.1326  0.1724  0.2770
  124MOL    C8639692   5.095   6.846   5.531  0.3012  0.7978 -0.2501
  124MOL   Cl8739693   5.154   6.757   5.393 -0.2779 -0.0200  0.0146
  124MOL    C8839694   5.080   6.781   5.654 -0.4567 -0.0911  0.3251
  124MOL    C8939695   5.050   6.849   5.770 -0.4665  0.2749 -0.8811
  124MOL    C9039696   5.108   7.168   5.909  0.0336  0.4907  0.6248
  124MOL    H9139697   4.951   7.020   5.956 -0.3797  0.5356  0.6761
  124MOL    H9239698   5.001   7.155   5.617  0.5031 -0.2934  0.6117
  124MOL    H9339699   5.080   7.040   5.422  0.7801 -1.1034 -0.3747
  124MOL    H9439700   5.084   6.673   5.658  1.1054 -0.0325  0.8512
  124MOL    H9539701   5.038   6.803   5.866 -2.9220  1.5712 -0.5290
  124MOL    H9639702   5.190   7.099   5.928  0.9479  1.0590 -1.1179
  124MOL    H9739703   5.142   7.229   5.825 -0.0605  0.6645  0.7128
  124MOL    C9839704   5.094   7.259   6.033 -0.8486 -0.0494 -0.3269
  124MOL    C9939705   5.010   7.199   6.143  0.0859 -0.1373  0.4395
  124MOL   C10039706   4.913   7.283   6.204 -0.0184  0.5165 -0.8565
  124MOL   C10139707   4.834   7.238   6.315  0.3917  0.5470 -0.0958
  124MOL   C10239708   4.861   7.113   6.365  0.6286  0.0106  0.1789
  124MOL  Cl10339709   4.757   7.042   6.485  0.0818  0.3827 -0.0278
  124MOL   C10439710   4.960   7.035   6.310 -0.4228 -0.1168 -0.5921
  124MOL   C10539711   5.032   7.070   6.192 -0.5714 -0.6007 -0.2663
  124MOL   C10639712   5.234   7.301   6.082 -0.0384  0.3722 -0.3521
  124MOL   H10739713   5.046   7.351   6.002 -2.3297 -0.8065 -0.3252
  124MOL   H10839714   4.894   7.382   6.165  0.2015  0.2404 -1.6767
  124MOL   H10939715   4.759   7.299   6.364 -0.1981 -0.2919  0.0660
  124MOL   H11039716   4.975   6.941   6.360 -0.1770  0.7546  1.0124
  124MOL   H11139717   5.093   6.995   6.145 -0.9765  0.3223 -2.3295
  124MOL   H11239718   5.256   7.207   6.134 -0.4771  1.1891  1.3240
  124MOL   H11339719   5.299   7.317   5.996 -0.9522  0.6873 -0.9883
  124MOL   C11439720   5.225   7.416   6.179  0.3475 -0.7527  0.5012
  124MOL   C11539721   5.321   7.383   6.291 -0.1223 -0.0817 -0.2320
  124MOL   C11639722   5.462   7.414   6.292  0.5489 -0.2955  0.1119
  124MOL   C11739723   5.544   7.357   6.391  0.1250  0.9545 -0.5898
  124MOL   C11839724   5.489   7.283   6.498 -0.7078 -0.5501  0.3799
  124MOL  Cl11939725   5.588   7.194   6.602  0.0041 -0.3799  0.1776
  124MOL   C12039726   5.357   7.249   6.495  0.1335  0.3054  0.0565
  124MOL   C12139727   5.271   7.309   6.404 -0.2611  0.2720 -0.2210
  124MOL   C12239728   5.268   7.552   6.111 -0.4739  0.2115  0.1503
  124MOL   H12339729   5.130   7.429   6.231  0.0705  2.0987 -0.6449
  124MOL   H12439730   5.512   7.469   6.214  0.5426 -0.8938 -0.3175
  124MOL   H12539731   5.651   7.369   6.395  0.1095  0.9504 -0.0369
  124MOL   H12639732   5.326   7.185   6.576 -1.1611  1.3200  0.3742
  124MOL   H12739733   5.169   7.274   6.400  0.2779 -1.3272 -0.2903
  124MOL   H12839734   5.285   7.618   6.196 -0.2443 -0.0541  0.3096
  124MOL   H12939735   5.367   7.538   6.068  0.0960 -2.4281  2.2294
  124MOL   C13039736   5.170   7.615   6.011 -0.5285 -0.1241  0.0400
  124MOL   C13139737   5.024   7.632   6.063  0.2262  0.1030 -0.2616
  124MOL   C13239738   4.991   7.680   6.196  0.2796 -0.0991 -0.9332
  124MOL   C13339739   4.859   7.700   6.234 -0.5728 -0.5872  0.0704
  124MOL   C13439740   4.751   7.658   6.153 -0.5657 -0.1067  0.7059
  124MOL  Cl13539741   4.589   7.676   6.207  0.4450 -0.2190  0.0752
  124MOL   C13639742   4.780   7.601   6.030  0.3499  0.1909 -0.0854
  124MOL   C13739743   4.913   7.593   5.982 -0.2481  0.2239 -0.2634
  124MOL   C13839744   5.230   7.746   5.948  0.0026  0.1435 -0.0642
  124MOL   H13939745   5.163   7.544   5.928  0.5932 -0.2791  0.0727
  124MOL   H14039746   5.071   7.707   6.264  0.5565 -1.4717 -0.7113
  124MOL   H14139747   4.838   7.754   6.325 -1.1818 -1.2856  0.3489
  124MOL   H14239748   4.708   7.551   5.967  0.4541 -0.8492  0.6070
  124MOL   H14339749   4.939   7.556   5.884  0.5720 -0.8138  0.3329
  124MOL   H14439750   5.265   7.797   6.037 -0.8794  0.8851 -0.1317
  124MOL   H14539751   5.319   7.715   5.892  0.5832 -2.3891  2.1660
  124MOL   C14639752   5.140   7.840   5.869  0.1723  0.1191 -0.4691
  124MOL   C14739753   5.201   7.976   5.839 -0.3704  0.1717 -0.3262
  124MOL   C14839754   5.334   7.993   5.790 -0.9178  0.2609  0.1524
  124MOL   C14939755   5.374   8.127   5.761  0.3417  0.2866 -0.1200
  124MOL   C15039756   5.292   8.242   5.777  0.4068  0.5331 -0.3182
  124MOL  Cl15139757   5.354   8.399   5.751 -0.3156  0.1251 -0.1425
  124MOL   C15239758   5.155   8.219   5.808  0.2257 -0.3150 -0.1643
  124MOL   C15339759   5.115   8.092   5.842  0.3489  0.2657  0.8844
  124MOL   C15439760   5.094   7.770   5.741 -0.1611 -0.7615 -0.6088
  124MOL   H15539761   5.051   7.855   5.930  1.2061  0.6482  0.9256
  124MOL   H15639762   5.402   7.915   5.760 -2.8682 -0.9506 -1.1715
  124MOL   H15739763   5.475   8.138   5.722  1.1793 -3.5785  0.6625
  124MOL   H15839764   5.084   8.300   5.814  0.9665  0.1929  2.1349
  124MOL   H15939765   5.009   8.079   5.859  0.4345  1.4822  2.3911
  124MOL   H16039766   5.174   7.773   5.667 -0.7945 -1.8651 -1.3462
  124MOL   H16139767   5.067   7.669   5.773  2.4475 -0.9210  1.1983
  124MOL   C16239768   4.967   7.830   5.670 -1.4108  0.2927  0.7468
  124MOL   C16339769   4.934   7.741   5.554  0.6293 -0.9085 -0.7658
  124MOL   C16439770   4.980   7.768   5.422  0.4017  1.1800 -0.3017
  124MOL   C16539771   4.931   7.694   5.314  0.2486  0.2915  0.6245
  124MOL   C16639772   4.841   7.582   5.332  0.4518  0.0603  0.4934
  124MOL  Cl16739773   4.777   7.505   5.191 -0.0347 -0.6921 -0.2129
  124MOL   C16839774   4.797   7.552   5.462  0.3033 -0.7787  0.0419
  124MOL   C16939775   4.840   7.629   5.573  1.1123  0.4616 -0.3541
  124MOL   C17039776   4.839   7.862   5.756 -0.3456 -0.9040 -0.1574
  124MOL   H17139777   4.989   7.928   5.627  1.9994  0.0123  1.7326
  124MOL   H17239778   5.060   7.840   5.409  0.4161  1.2535  0.1944
  124MOL   H17339779   4.960   7.722   5.214 -0.8861  0.7193  0.4131
  124MOL   H17439780   4.731   7.469   5.481 -1.8450  1.0363  0.6833
  124MOL   H17539781   4.810   7.600   5.672  0.2095 -2.2114 -1.3670
  124MOL   H17639782   4.811   7.773   5.811 -0.9891  0.9066  2.5533
  124MOL   H17739783   4.865   7.925   5.841  1.2926 -1.7437 -0.0185
  124MOL   C17839784   4.720   7.919   5.680  0.6165  0.2412 -0.0386
  124MOL   C17939785   4.587   7.892   5.757 -0.0756 -0.0906 -0.0039
  124MOL   C18039786   4.485   7.814   5.705 -0.2915  0.0109 -0.1918
  124MOL   C18139787   4.364   7.795   5.767  0.3473 -0.2113  0.8205
  124MOL   C18239788   4.342   7.852   5.892  0.1430  0.4349  0.1421
  124MOL  Cl18339789   4.201   7.804   5.983  0.1819 -0.3613  0.1145
  124MOL   C18439790   4.443   7.939   5.946  0.2028 -0.2070  0.6466
  124MOL   C18539791   4.564   7.957   5.880 -0.3206 -0.0177 -0.1107
  124MOL   C18639792   4.731   8.058   5.622 -0.5174  0.2577 -0.6369
  124MOL   H18739793   4.709   7.854   5.593 -0.6823  0.7226 -0.2403
  124MOL   H18839794   4.490   7.776   5.604  1.2088 -0.1906 -0.0585
  124MOL   H18939795   4.286   7.728   5.733 -0.2750  1.5738 -1.3629
  124MOL   H19039796   4.414   7.994   6.034  0.4565 -2.0375  1.9119
  124MOL   H19139797   4.638   8.017   5.930  0.0885 -1.9609  1.7161
  124MOL   H19239798   4.733   8.122   5.711  0.7001 -0.0739 -0.4252
  124MOL   H19339799   4.826   8.067   5.571  1.0099 -0.1095  2.0524
  124MOL   C19439800   4.603   8.101   5.538 -0.7228  0.1073  0.3405
  124MOL   C19539801   4.506   8.203   5.591  0.1408 -0.1022 -0.5900
  124MOL   C19639802   4.371   8.169   5.576 -0.1416 -0.3411  0.0183
  124MOL   C19739803   4.275   8.252   5.637  0.1428 -0.4340  0.2902
  124MOL   C19839804   4.323   8.364   5.713  0.1777  0.4735 -0.2758
  124MOL  Cl19939805   4.205   0.035   5.768 -0.3605  0.2449 -0.7259
  124MOL   C20039806   4.460   8.390   5.724 -0.2843  0.3545 -0.4008
  124MOL   C20139807   4.554   8.307   5.663  0.5874 -0.2633  0.1913
  124MOL   C20239808   4.632   8.113   5.384  0.2672  0.0081  0.0122
  124MOL   H20339809   4.537   8.014   5.534  1.8818 -1.8709 -1.9597
  124MOL   H20439810   4.333   8.082   5.525 -1.4788 -2.3700  4.1837
  124MOL   H20539811   4.170   8.226   5.636 -0.2865  1.2798 -0.5139
  124MOL   H20639812   4.487   0.029   5.789  2.4307 -0.2208 -0.7404
  124MOL   H20739813   4.658   8.333   5.663  0.6530 -0.5297 -0.2445
  124MOL   H20839814   4.675   8.024   5.337 -0.7956  0.4354 -1.8519
  124MOL   H20939815   4.530   8.114   5.343 -0.3509  0.8400  1.5553
  124MOL   C21039816   4.709   8.243   5.339  0.1059 -0.0037  0.4447
  124MOL   C21139817   4.860   8.249   5.372  0.0090 -0.0565  0.5293
  124MOL   C21239818   4.949   8.148   5.318 -0.0532  0.9745  0.1077
  124MOL   C21339819   5.087   8.147   5.357 -0.0732 -0.1800  0.8186
  124MOL   C21439820   5.141   8.257   5.425  0.0422  0.2612  0.1294
  124MOL  Cl21539821   5.310   8.275   5.450  0.1295  0.1062 -0.1190
  124MOL   C21639822   5.053   8.359   5.479 -0.3370  0.1373 -0.3036
  124MOL   C21739823   4.916   8.356   5.448  0.3208 -0.0231 -0.0189
  124MOL   C21839824   4.682   8.276   5.194  0.6454 -0.5205  0.0506
  124MOL   H21939825   4.669   8.315   5.411  0.0967 -0.9132  1.3675
  124MOL   H22039826   4.912   8.072   5.251  1.8808 -0.2879  0.4472
  124MOL   H22139827   5.144   8.069   5.310 -0.1457 -0.2461  0.8418
  124MOL   H22239828   5.085   0.004   5.533 -1.0053 -0.0285  0.3729
  124MOL   H22339829   4.859   8.440   5.484 -0.6730 -0.4019 -0.6808
  124MOL   H22439830   4.757   8.345   5.156 -1.6117  2.0684  0.1332
  124MOL   H22539831   4.680   8.189   5.128  0.7663 -0.3583 -0.1713
  124MOL   C22639832   4.555   8.364   5.184 -0.5956  1.3553  0.1553
  124MOL   C22739833   4.578   0.066   5.233  0.0878 -0.5026  0.2679
  124MOL   C22839834   4.645   0.163   5.164 -0.0197 -0.2818 -0.1049
  124MOL   C22939835   4.663   0.295   5.218  0.9917  0.1530  0.9554
  124MOL   C23039836   4.611   0.325   5.347 -0.1179  0.1421  0.6275
  124MOL  Cl23139837   4.618   0.489   5.400 -0.1661 -0.2127  0.2053
  124MOL   C23239838   4.539   0.228   5.415 -0.6666  0.1947 -0.4247
  124MOL   C23339839   4.526   0.101   5.360 -0.2890 -0.8858 -0.3440
  124MOL   C23439840   4.490   8.369   5.044  0.6041 -0.1209 -0.7730
  124MOL   H23539841   4.478   8.316   5.244 -1.2475  2.1260 -0.0602
  124MOL   H23639842   4.695   0.139   5.071  0.1594  0.5063 -0.2117
  124MOL   H23739843   4.716   0.366   5.155 -0.9951  0.3422 -0.5745
  124MOL   H23839844   4.493   0.252   5.509 -1.2787 -0.6760 -0.4965
  124MOL   H23939845   4.472   0.023   5.411 -1.0657 -0.0853  0.0719
  124MOL   H24039846   4.387   8.405   5.052  1.5692  2.7337 -0.4306
  124MOL   H24139847   4.538   0.004   4.985  0.2949  0.0197 -0.8378
  124MOL   C24239848   4.507   8.249   4.948  0.0738  0.0879 -0.0852
  124MOL   C24339849   4.474   8.114   5.015  0.5621  0.2688 -0.8731
  124MOL   C24439850   4.357   8.108   5.091 -0.0317 -0.5759 -0.2460
  124MOL   C24539851   4.331   7.990   5.162 -0.3575 -0.5347  0.1807
  124MOL   C24639852   4.406   7.874   5.161 -0.4544  0.9364  0.8024
  124MOL  Cl24739853   4.363   7.731   5.239  0.0664  0.3153  0.1133
  124MOL   C24839854   4.524   7.882   5.079  0.2382  0.2627  0.6267
  124MOL   C24939855   4.557   8.002   5.012 -0.1800 -0.3249 -0.3841
  124MOL   C25039856   4.427   8.262   4.822  0.5399  0.3223 -0.2070
  124MOL   H25139857   4.610   8.242   4.914  0.0419 -0.9016  0.0017
  124MOL   H25239858   4.275   8.179   5.092  0.7519  0.3270  1.5928
  124MOL   H25339859   4.248   7.986   5.230 -0.5768 -1.3325 -0.1283
  124MOL   H25439860   4.586   7.794   5.074 -1.5679 -0.9204 -2.3263
  124MOL   H25539861   4.652   8.006   4.961  0.4883  1.6374  0.9528
  124MOL   H25639862   4.416   8.164   4.775  2.8163 -1.8094  3.4046
  124MOL   H25739863   4.323   8.277   4.848  0.3847 -2.0274  0.7061
  124MOL   C25839864   4.474   8.363   4.718 -0.3865 -0.4033  0.6058
  124MOL   C25939865   4.611   8.315   4.659 -0.3760  0.1320 -0.6111
  124MOL   C26039866   4.729   8.365   4.726 -0.1673  0.1806 -0.4641
  124MOL   C26139867   4.854   8.324   4.680 -0.1806 -0.2605 -0.0622
  124MOL   C26239868   4.864   8.236   4.572 -0.3275 -0.0367 -0.2055
  124MOL  Cl26339869   5.017   8.180   4.525 -0.0355  0.0492 -0.3781
  124MOL   C26439870   4.753   8.207   4.492  0.5076  1.0837  0.3137
  124MOL   C26539871   4.618   8.239   4.544 -0.2790  0.2668  0.7338
  124MOL   C26639872   4.364   8.390   4.607 -0.0580  0.6057 -0.1963
  124MOL   H26739873   4.480   0.014   4.772 -0.3182 -1.1023  1.8547
  124MOL   H26839874   4.724   8.416   4.821 -1.5828 -0.1734 -0.3290
  124MOL   H26939875   4.947   8.348   4.729  0.2414 -0.7429 -0.6191
  124MOL   H27039876   4.772   8.144   4.407 -2.0214  0.8453 -0.1163
  124MOL   H27139877   4.527   8.204   4.498  0.1009 -2.6102  2.1114
  124MOL   H27239878   4.342   8.301   4.548  0.3074  0.2993  0.1258
  124MOL   H27339879   4.270   8.424   4.650 -0.4883  1.0677 -1.4719
  124MOL   C27439880   4.403   0.060   4.507 -0.1354 -0.6019  0.0616
  124MOL   C27539881   4.317   0.054   4.379 -1.2025  0.7388  0.4678
  124MOL   C27639882   4.374   8.432   4.266  0.4558 -0.6250  0.1674
  124MOL   C27739883   4.317   8.436   4.137 -0.1492 -0.6583  0.1455
  124MOL   C27839884   4.183   0.033   4.127  0.1354  0.1339 -0.5583
  124MOL  Cl27939885   4.100   0.017   3.977  0.2189  0.0138  0.0149
  124MOL   C28039886   4.117   0.086   4.243 -0.5963 -0.6932  0.2183
  124MOL   C28139887   4.181   0.099   4.372 -0.2595 -0.1927  0.4757
  124MOL   C28239888   4.404   0.210   4.558  0.0552  0.4240  1.0215
  124MOL   H28339889   4.505   0.041   4.472  0.2404 -1.5695  1.6700
  124MOL   H28439890   4.473   8.390   4.271  0.9822  0.7067  1.4999
  124MOL   H28539891   4.369   8.390   4.054  0.4042 -0.9712  0.6629
  124MOL   H28639892   4.019   0.130   4.236 -0.1580  0.5908  1.6915
  124MOL   H28739893   4.127   0.139   4.456  0.8125  0.1076  1.0267
  124MOL   H28839894   4.305   0.241   4.592  0.0707  0.9757  0.5758
  124MOL   H28939895   4.456   0.215   4.653 -0.6122  2.4463  1.3010
  124MOL   C29039896   4.465   0.326   4.466 -0.1296  0.7559 -0.2237
  124MOL   C29139897   4.451   0.456   4.545  0.0428 -0.3584  0.1681
  124MOL   C29239898   4.498   0.466   4.674 -0.3898  0.6591  0.1896
  124MOL   C29339899   4.486   0.583   4.744  0.1879  1.0017  0.2178
  124MOL   C29439900   4.418   0.694   4.687  0.5071 -0.1574 -0.2961
  124MOL  Cl29539901   4.398   0.842   4.783 -0.0844  0.3778  0.0197
  124MOL   C29639902   4.361   0.683   4.558  0.1142  0.1991  0.6960
  124MOL   C29739903   4.386   0.563   4.490  0.2418 -0.6030  0.6003
  124MOL   C29839904   4.619   0.292   4.439 -0.2109  0.0985  0.3962
  124MOL   H29939905   4.420   0.324   4.367  1.0530 -2.5187 -0.7652
  124MOL   H30039906   4.532   0.384   4.735 -0.2977  0.0519 -0.6689
  124MOL   H30139907   4.527   0.585   4.844 -0.4420  1.2106  0.4788
  124MOL   H30239908   4.304   0.765   4.517  3.1554  1.0253 -2.0516
  124MOL   H30339909   4.341   0.570   4.392  3.4793  1.5490 -0.8109
  124MOL   H30439910   4.683   0.379   4.453  0.7860 -0.8854  2.1982
  124MOL   H30539911   4.655   0.226   4.518 -1.6899 -0.4294  0.6363
  124MOL   C30639912   4.661   0.244   4.296 -0.0708  0.3991  0.2703
  124MOL   C30739913   4.607   0.343   4.191 -0.3745 -0.3655 -1.2751
  124MOL   C30839914   4.512   0.308   4.093 -0.5286 -0.5772 -0.3851
  124MOL   C30939915   4.477   0.396   3.991 -0.2527  0.1700  0.2232
  124MOL   C31039916   4.535   0.524   3.987 -0.1852  0.5977 -0.4708
  124MOL  Cl31139917   4.506   0.629   3.854  0.0039  0.2273 -0.3608
  124MOL   C31239918   4.622   0.568   4.090 -0.4151  0.2390 -0.5495
  124MOL   C31339919   4.654   0.477   4.195  0.7753 -0.2877  0.2578
  124MOL   C31439920   4.810   0.220   4.276 -0.5424  0.6019  0.8378
  124MOL   H31539921   4.605   0.151   4.285  1.0777 -0.6178  2.6928
  124MOL   H31639922   4.462   0.213   4.109 -0.4634 -0.9885 -2.4330
  124MOL   H31739923   4.407   0.358   3.918  0.9163 -1.6270  0.0036
  124MOL   H31839924   4.657   0.670   4.080 -0.7568  0.2594 -1.5291
  124MOL   H31939925   4.720   0.511   4.274  0.6247 -1.3521  0.8499
  124MOL   H32039926   4.814   0.209   4.168 -1.9455 -0.0221  0.8329
  124MOL   H32139927   4.866   0.311   4.300 -1.0091  0.3590  2.9799
  124MOL   H32239928   4.847   0.133   4.330 -0.8782 -0.1514 -0.1298
  125MOL     C139929   3.184   0.463   4.370  0.3608  0.0064 -0.2655
  125MOL     C239930   3.204   0.594   4.449  0.0492 -0.0414  0.3788
  125MOL     C339931   3.288   0.689   4.396 -0.3026  0.0220  0.0561
  125MOL     C439932   3.311   0.806   4.470 -0.2552  0.0352 -0.5495
  125MOL     C539933   3.251   0.829   4.597 -0.2951  0.2612 -0.5615
  125MOL    Cl639934   3.301   0.959   4.698 -0.1269 -0.1389  0.1800
  125MOL     C739935   3.151   0.744   4.640 -0.7250 -0.1046  0.4103
  125MOL     C839936   3.123   0.624   4.564 -0.3887 -0.4324 -0.2586
  125MOL     C939937   3.294   0.366   4.398  0.0361  0.5452 -0.1129
  125MOL    H1039938   3.201   0.486   4.265 -3.3855  1.5674 -0.6219
  125MOL    H1139939   3.330   0.675   4.297 -2.2702  0.5713 -0.8905
  125MOL    H1239940   3.380   0.880   4.431  1.3863 -0.3211  1.5868
  125MOL    H1339941   3.092   0.761   4.729 -0.3316  0.0067  0.6498
  125MOL    H1439942   3.051   0.548   4.591 -0.2885 -1.3380 -2.4802
  125MOL    H1539943   3.386   0.409   4.357 -0.9807  1.1032 -1.8657
  125MOL    H1639944   3.310   0.344   4.504  0.2419  0.4193 -0.1692
  125MOL    H1739945   3.081   0.429   4.378  0.6308 -0.3681  2.1213
  125MOL    C1839946   3.285   0.229   4.332 -0.3483  0.7131  0.4759
  125MOL    C1939947   3.253   0.233   4.182 -0.6856  0.1210 -1.1793
  125MOL    C2039948   3.339   0.282   4.087 -0.6699  0.8874 -0.6649
  125MOL    C2139949   3.304   0.271   3.947 -0.4258 -0.1199 -0.0699
  125MOL    C2239950   3.176   0.221   3.916 -0.4944  0.5408 -0.6009
  125MOL   Cl2339951   3.128   0.199   3.753  0.1103  0.1747 -0.3522
  125MOL    C2439952   3.092   0.165   4.014 -0.2564  0.6000 -0.5122
  125MOL    C2539953   3.132   0.169   4.146 -0.3958  0.3318 -0.4242
  125MOL    C2639954   3.414   0.150   4.352 -0.4475  0.5246 -0.0537
  125MOL    H2739955   3.197   0.179   4.373 -0.4405  0.0971 -0.4532
  125MOL    H2839956   3.433   0.325   4.118 -0.5242  0.3828 -0.3993
  125MOL    H2939957   3.368   0.311   3.869 -0.2772 -0.1655  0.0296
  125MOL    H3039958   3.001   0.113   3.988 -0.3358 -0.6784  2.1491
  125MOL    H3139959   3.070   0.120   4.219 -0.1236  3.4926  2.0463
  125MOL    H3239960   3.414   0.056   4.297 -1.9519  1.1469 -1.1725
  125MOL    H3339961   3.487   0.207   4.294  0.6840  0.4971  1.3432
  125MOL    C3439962   3.467   0.130   4.498  0.3546  0.1836 -0.3242
  125MOL    C3539963   3.373   0.092   4.613  0.0939 -0.3908 -0.0977
  125MOL    C3639964   3.396   0.144   4.745 -0.0408  0.8378 -0.2111
  125MOL    C3739965   3.335   0.084   4.859  0.3658 -0.5685  0.1304
  125MOL    C3839966   3.233   8.430   4.838  0.3853  0.1658 -0.3377
  125MOL   Cl3939967   3.134   8.372   4.967 -0.4194  0.2845  0.4735
  125MOL    C4039968   3.202   8.389   4.709  0.1479 -0.4112  0.0844
  125MOL    C4139969   3.277   8.442   4.594  0.2364  0.0532  0.2737
  125MOL    C4239970   3.581   0.024   4.497  0.3514 -0.5950  0.0653
  125MOL    H4339971   3.514   0.226   4.521  0.2032  0.3801 -0.8343
  125MOL    H4439972   3.475   0.218   4.754 -2.7020  3.7341  0.4926
  125MOL    H4539973   3.357   0.108   4.962 -1.7707 -1.3880  0.7849
  125MOL    H4639974   3.130   8.310   4.698 -0.3832  0.1636 -0.6221
  125MOL    H4739975   3.262   8.412   4.492  0.6914  0.0780  0.1987
  125MOL    H4839976   3.623   0.022   4.598  2.2157  0.6733 -0.6532
  125MOL    H4939977   3.533   8.371   4.486 -0.2321 -0.3686  0.5923
  125MOL    C5039978   3.697   0.038   4.403  0.4648  0.0897  0.0128
  125MOL    C5139979   3.759   0.175   4.415  0.2953  0.1656 -0.5887
  125MOL    C5239980   3.744   0.262   4.308  0.1800 -0.4724 -0.8051
  125MOL    C5339981   3.801   0.393   4.315  0.1259  1.2113 -0.5870
  125MOL    C5439982   3.883   0.426   4.421 -0.0750 -0.0071 -0.6955
  125MOL   Cl5539983   3.980   0.571   4.416  0.2079  0.3816  0.1830
  125MOL    C5639984   3.889   0.339   4.534  0.3745 -0.1791 -0.2990
  125MOL    C5739985   3.829   0.213   4.527 -0.3127 -0.1992  1.0878
  125MOL    C5839986   3.806   8.382   4.435 -0.1128  0.1489  0.1523
  125MOL    H5939987   3.671   0.008   4.301  0.5039 -0.6421  0.2170
  125MOL    H6039988   3.695   0.242   4.214 -0.4123 -0.4305 -0.5078
  125MOL    H6139989   3.802   0.457   4.228  1.2021  0.2256 -1.3186
  125MOL    H6239990   3.952   0.379   4.612  0.2125  0.1320 -0.3271
  125MOL    H6339991   3.847   0.149   4.612  0.8308 -0.6977  0.4754
  125MOL    H6439992   3.890   8.403   4.369 -0.1219 -0.1921  0.0286
  125MOL    H6539993   3.825   8.387   4.542  1.7491 -1.3898 -0.0709
  125MOL    C6639994   3.777   8.235   4.394  0.5824  0.9111  0.5915
  125MOL    C6739995   3.774   8.216   4.243 -0.8008 -0.2352 -0.8007
  125MOL    C6839996   3.890   8.228   4.165 -0.0240  0.5779  0.4159
  125MOL    C6939997   3.877   8.206   4.023  0.3682 -0.0314  0.1959
  125MOL    C7039998   3.752   8.195   3.961 -0.6178 -0.2050  0.0088
  125MOL   Cl7139999   3.755   8.175   3.793 -0.1752 -0.4601  0.3872
  125MOL    C7240000   3.640   8.185   4.038 -0.2736 -0.0769  0.6098
  125MOL    C7340001   3.650   8.195   4.176 -0.3775 -0.0240  0.6305
  125MOL    C7440002   3.853   8.124   4.478 -0.2237 -0.2561 -0.6152
  125MOL    H7540003   3.670   8.222   4.410  0.9092 -2.0070  0.6185
  125MOL    H7640004   3.987   8.255   4.203 -0.3467  2.3033  0.0754
  125MOL    H7740005   3.965   8.211   3.960  1.3608 -0.8830  1.4815
  125MOL    H7840006   3.551   8.156   3.986  1.2607 -0.0462 -2.1358
  125MOL    H7940007   3.557   8.172   4.225 -0.5959 -1.1855 -0.3132
  125MOL    H8040008   3.849   8.034   4.418 -0.6115 -1.4236  1.1300
  125MOL    H8140009   3.956   8.159   4.478 -0.8262  1.6051  0.4257
  125MOL    C8240010   3.788   8.107   4.621 -0.5268  0.2823  1.0100
  125MOL    C8340011   3.637   8.079   4.630 -0.6020 -0.3668  0.4287
  125MOL    C8440012   3.550   8.164   4.699 -0.4102  0.0977 -0.3114
  125MOL    C8540013   3.416   8.136   4.714  1.0229  0.2049  0.0204
  125MOL    C8640014   3.356   8.023   4.652  0.2026  0.0604  0.2372
  125MOL   Cl8740015   3.190   7.988   4.688 -0.0924  0.1821 -0.0058
  125MOL    C8840016   3.438   7.936   4.574  0.6309 -1.0377  0.2721
  125MOL    C8940017   3.581   7.963   4.566 -0.2601  0.4428 -0.6689
  125MOL    C9040018   3.865   8.007   4.712 -0.4653  0.0180 -0.3874
  125MOL    H9140019   3.791   8.197   4.682  0.0490 -0.6062  2.2902
  125MOL    H9240020   3.591   8.254   4.744  1.8722 -1.1172  0.1046
  125MOL    H9340021   3.363   8.198   4.785  0.6552 -1.9492  1.6838
  125MOL    H9440022   3.395   7.847   4.531  0.3396  0.1441 -1.9719
  125MOL    H9540023   3.651   7.894   4.521 -0.4746  0.7832 -1.5347
  125MOL    H9640024   3.809   7.997   4.805 -0.0787  0.2701 -0.1264
  125MOL    H9740025   3.866   7.908   4.665 -1.3166 -0.0724 -0.2383
  125MOL    C9840026   4.001   8.075   4.752 -1.0352 -0.3723  0.3438
  125MOL    C9940027   3.983   8.214   4.808  0.3886  0.4569  0.1273
  125MOL   C10040028   4.037   8.323   4.741  0.1580 -0.0442  0.5066
  125MOL   C10140029   4.011   0.011   4.782  0.5956 -0.4143  0.4049
  125MOL   C10240030   3.946   0.030   4.904  0.4056 -0.0382  0.5619
  125MOL  Cl10340031   3.935   0.189   4.983  0.4982 -0.5492  0.5915
  125MOL   C10440032   3.903   8.360   4.983  0.8453  0.0108  0.2454
  125MOL   C10540033   3.919   8.228   4.935 -0.0725 -0.4325  0.2644
  125MOL   C10640034   4.086   7.983   4.849  0.0729 -0.3284 -0.8261
  125MOL   H10740035   4.061   8.073   4.661 -2.3270  0.0722 -0.5342
  125MOL   H10840036   4.099   8.305   4.655 -0.1683 -1.7767  0.6129
  125MOL   H10940037   4.051   0.090   4.720 -1.5198 -0.0361 -0.4932
  125MOL   H11040038   3.856   8.377   5.078  1.1121 -0.1865  0.4157
  125MOL   H11140039   3.872   8.145   4.986  0.9812 -0.5032  1.1355
  125MOL   H11240040   4.163   8.054   4.880 -0.4760  0.2398 -0.7736
  125MOL   H11340041   4.017   7.959   4.929  0.4395  0.8281 -0.1450
  125MOL   C11440042   4.132   7.853   4.790 -0.4165 -0.2568  0.6427
  125MOL   C11540043   4.234   7.877   4.677 -0.3676 -0.2852 -0.1962
  125MOL   C11640044   4.376   7.895   4.698  0.2733 -0.0102  0.0139
  125MOL   C11740045   4.465   7.924   4.597 -0.5789 -0.4461  1.0405
  125MOL   C11840046   4.415   7.942   4.465  0.0590 -0.2614 -0.7720
  125MOL  Cl11940047   4.521   7.991   4.343 -0.4067 -0.0844  0.3312
  125MOL   C12040048   4.277   7.921   4.440  0.2425  0.4422  0.1827
  125MOL   C12140049   4.188   7.891   4.545 -0.3959  0.8680  0.1218
  125MOL   C12240050   4.175   7.736   4.890 -0.2282  0.1167  0.4933
  125MOL   H12340051   4.049   7.812   4.732  0.7645  0.5574 -1.7090
  125MOL   H12440052   4.413   7.881   4.798 -1.6354  0.4488  0.8094
  125MOL   H12540053   4.567   7.942   4.625 -0.1270 -0.9759 -0.2268
  125MOL   H12640054   4.237   7.935   4.341 -0.3015  1.9170  0.5993
  125MOL   H12740055   4.085   7.907   4.516 -0.2835  0.8971 -0.2581
  125MOL   H12840056   4.235   7.672   4.826  2.0640  0.0417  2.6556
  125MOL   H12940057   4.237   7.779   4.969  1.8456 -2.7181  0.4689
  125MOL   C13040058   4.044   7.668   4.941 -0.0552  0.0424 -0.4141
  125MOL   C13140059   3.978   7.579   4.826 -0.3852  0.2925 -0.0394
  125MOL   C13240060   3.862   7.621   4.759 -0.5066 -0.3071  0.4915
  125MOL   C13340061   3.791   7.542   4.668 -0.6359 -0.0972 -0.2401
  125MOL   C13440062   3.839   7.413   4.641 -0.0825 -0.1765 -0.0465
  125MOL  Cl13540063   3.733   7.300   4.561  0.0010  0.1729  0.4213
  125MOL   C13640064   3.962   7.371   4.690  0.0600 -0.6265 -0.7034
  125MOL   C13740065   4.037   7.456   4.777  0.0014 -0.0169  1.0888
  125MOL   C13840066   4.070   7.586   5.072 -0.1824  0.5027 -0.2880
  125MOL   H13940067   3.968   7.738   4.976 -1.5910 -1.4314 -0.7346
  125MOL   H14040068   3.820   7.713   4.798 -0.4473 -0.1091  0.0857
  125MOL   H14140069   3.694   7.580   4.638  0.0351  1.0245 -1.0053
  125MOL   H14240070   4.008   7.275   4.674  1.1803 -0.0335 -1.1248
  125MOL   H14340071   4.133   7.409   4.795 -0.0010 -0.6735 -0.4989
  125MOL   H14440072   4.141   7.504   5.062 -1.8710 -1.0884  0.5673
  125MOL   H14540073   4.122   7.646   5.146 -1.5974 -1.1381  2.0765
  125MOL   C14640074   3.939   7.531   5.127  0.7973 -0.0940 -0.2032
  125MOL   C14740075   3.953   7.415   5.222  0.3807  0.1500 -0.2264
  125MOL   C14840076   4.017   7.441   5.347 -0.2593  0.5924  0.7274
  125MOL   C14940077   4.047   7.339   5.436  0.5790  0.0026 -0.3756
  125MOL   C15040078   4.003   7.206   5.408 -1.2233  0.9091  0.9048
  125MOL  Cl15140079   4.017   7.092   5.537  0.0455 -0.4988  0.4923
  125MOL   C15240080   3.928   7.179   5.292  0.3523  0.0155 -0.0822
  125MOL   C15340081   3.905   7.286   5.198 -0.5736 -0.4876  0.1642
  125MOL   C15440082   3.830   7.633   5.171 -0.1229  0.5196  0.5249
  125MOL   H15540083   3.899   7.482   5.039  0.3240 -1.0530  0.5398
  125MOL   H15640084   4.057   7.537   5.376 -0.8981  0.5186  1.8830
  125MOL   H15740085   4.095   7.369   5.529  0.5981 -2.1988  0.3501
  125MOL   H15840086   3.876   7.087   5.271  3.1838 -1.5428 -0.5325
  125MOL   H15940087   3.847   7.264   5.110 -1.9684 -2.1444  1.4614
  125MOL   H16040088   3.849   7.651   5.277 -1.2828  1.3159  0.6101
  125MOL   H16140089   3.826   7.734   5.130  0.7868  0.3609  0.0358
  125MOL   C16240090   3.684   7.572   5.178 -0.3006  0.0313  0.2995
  125MOL   C16340091   3.594   7.647   5.278  0.2744 -0.1714  0.7252
  125MOL   C16440092   3.543   7.586   5.390 -0.1973  0.4785  1.1337
  125MOL   C16540093   3.467   7.648   5.490  1.0412 -0.5827  0.3121
  125MOL   C16640094   3.432   7.785   5.470 -0.0729  0.1194 -0.9331
  125MOL  Cl16740095   3.345   7.866   5.594 -0.2085  0.3486  0.4401
  125MOL   C16840096   3.480   7.847   5.351 -0.4707 -0.4010 -0.5568
  125MOL   C16940097   3.557   7.781   5.251  0.5029 -0.0207 -0.0972
  125MOL   C17040098   3.621   7.552   5.035  0.0649  0.2366 -0.2213
  125MOL   H17140099   3.688   7.473   5.223 -0.1696  0.0898  0.4158
  125MOL   H17240100   3.577   7.485   5.410 -1.5364  0.3155  2.6631
  125MOL   H17340101   3.452   7.599   5.586  1.8880 -0.8058  0.3367
  125MOL   H17440102   3.456   7.950   5.332 -0.7401 -0.3311  0.1547
  125MOL   H17540103   3.597   7.836   5.167 -1.7313 -0.6988 -1.6521
  125MOL   H17640104   3.609   7.655   5.001 -0.0030  0.5410  0.7241
  125MOL   H17740105   3.696   7.507   4.970  0.5339 -0.6242  0.8957
  125MOL   C17840106   3.487   7.473   5.021  0.6166  0.2982  0.8036
  125MOL   C17940107   3.430   7.508   4.885 -0.4574 -0.1393 -0.0764
  125MOL   C18040108   3.473   7.435   4.774  0.2360 -0.4211  0.6209
  125MOL   C18140109   3.414   7.467   4.646  0.1878 -0.1861 -0.8340
  125MOL   C18240110   3.311   7.562   4.636 -0.1742  0.0465 -0.1408
  125MOL  Cl18340111   3.227   7.571   4.486 -0.0575  0.1472  0.0587
  125MOL   C18440112   3.277   7.645   4.749  0.2927 -0.3370 -0.2684
  125MOL   C18540113   3.343   7.620   4.875 -0.0402 -0.0404  0.6350
  125MOL   C18640114   3.501   7.315   5.043 -0.3707  0.1660  0.1449
  125MOL   H18740115   3.422   7.525   5.092  1.7100  0.3960  1.7357
  125MOL   H18840116   3.545   7.355   4.780  0.0983 -0.4885  1.4903
  125MOL   H18940117   3.440   7.418   4.554  0.6991 -0.2052 -0.6803
  125MOL   H19040118   3.199   7.718   4.734 -0.0249 -0.0444  2.5333
  125MOL   H19140119   3.310   7.674   4.963  2.9415  0.9925  1.1788
  125MOL   H19240120   3.591   7.274   4.996  0.1515  2.3051 -0.7899
  125MOL   H19340121   3.527   7.301   5.148  0.4034  0.0123 -0.0620
  125MOL   C19440122   3.375   7.226   5.010 -0.3463 -0.9495  0.6334
  125MOL   C19540123   3.413   7.077   5.036 -0.3922 -0.4218 -0.6331
  125MOL   C19640124   3.451   7.004   4.917  0.6843  0.0715  0.2765
  125MOL   C19740125   3.477   6.864   4.928  0.6843 -0.3924 -0.1896
  125MOL   C19840126   3.476   6.808   5.059  0.3376  0.2920 -0.5871
  125MOL  Cl19940127   3.468   6.635   5.059  0.0900 -0.1434 -0.1370
  125MOL   C20040128   3.448   6.878   5.176  0.6053  0.2701 -0.2469
  125MOL   C20140129   3.408   7.016   5.165 -0.3324 -0.1164  0.1302
  125MOL   C20240130   3.241   7.260   5.085 -0.1904 -0.6050 -0.4165
  125MOL   H20340131   3.356   7.240   4.904  1.1420  1.1283  0.6306
  125MOL   H20440132   3.450   7.046   4.817 -0.2848  0.4014  0.4172
  125MOL   H20540133   3.494   6.805   4.839  0.4188  2.8448 -2.4595
  125MOL   H20640134   3.438   6.829   5.272 -0.7211  1.1591  0.0772
  125MOL   H20740135   3.371   7.074   5.248  0.6285  0.0929  0.4165
  125MOL   H20840136   3.251   7.241   5.192  1.8860  0.1993 -0.4450
  125MOL   H20940137   3.230   7.368   5.085 -0.3002 -0.6092  0.7371
  125MOL   C21040138   3.115   7.187   5.029  0.2947  0.1038 -0.1699
  125MOL   C21140139   2.999   7.221   5.126  0.3094  0.8202  0.4851
  125MOL   C21240140   2.971   7.357   5.158  0.2647 -0.6823  0.3044
  125MOL   C21340141   2.853   7.386   5.226 -0.6397 -0.1013 -0.3476
  125MOL   C21440142   2.778   7.281   5.291 -0.4407 -0.3461  0.1589
  125MOL  Cl21540143   2.648   7.321   5.398 -0.1093  0.1965 -0.1708
  125MOL   C21640144   2.812   7.148   5.271 -0.0284 -0.2579  0.1139
  125MOL   C21740145   2.922   7.120   5.188  0.2504 -0.6741  0.2013
  125MOL   C21840146   3.068   7.215   4.886 -0.3798  0.5827 -0.7371
  125MOL   H21940147   3.132   7.080   5.028  0.5184  0.1396 -1.3603
  125MOL   H22040148   3.036   7.437   5.126 -0.6605 -0.2282 -0.4516
  125MOL   H22140149   2.833   7.490   5.247  0.2661  0.7042 -3.1499
  125MOL   H22240150   2.757   7.065   5.313 -0.5339 -0.3098 -0.6350
  125MOL   H22340151   2.948   7.018   5.164  0.1003 -0.7425  0.3299
  125MOL   H22440152   3.008   7.305   4.872 -1.7993 -0.5296 -2.0324
  125MOL   H22540153   3.158   7.236   4.829 -0.2372  0.5482 -0.5258
  125MOL   C22640154   2.994   7.099   4.811  0.0932 -0.0026  0.0902
  125MOL   C22740155   2.953   7.149   4.673  0.4848 -0.1425 -0.0222
  125MOL   C22840156   3.047   7.214   4.589  0.2197  0.0963 -0.1266
  125MOL   C22940157   3.003   7.256   4.460  0.7074 -0.9715  0.4191
  125MOL   C23040158   2.869   7.225   4.416 -0.3668  0.1706 -0.0446
  125MOL  Cl23140159   2.825   7.261   4.256 -0.1356  0.2354  0.5239
  125MOL   C23240160   2.782   7.157   4.499  0.2254 -0.1786 -0.0571
  125MOL   C23340161   2.823   7.135   4.633 -0.4958  0.5339 -0.3699
  125MOL   C23440162   3.086   6.970   4.804  0.2589 -0.1640 -0.9607
  125MOL   H23540163   2.906   7.070   4.868 -0.4507 -0.2670 -0.8711
  125MOL   H23640164   3.147   7.237   4.621  0.6162 -0.5476 -0.8889
  125MOL   H23740165   3.061   7.310   4.386 -0.4674  1.1563  1.0081
  125MOL   H23840166   2.683   7.130   4.469  0.3426 -0.5253 -0.1280
  125MOL   H23940167   2.756   7.090   4.705  0.2351 -1.1895 -0.7357
  125MOL   H24040168   3.191   7.000   4.801  0.2030  0.6521  2.9093
  125MOL   H24140169   3.079   6.913   4.897 -1.0454  1.6541  0.0816
  125MOL   C24240170   3.066   6.881   4.681  0.1609  0.4732 -0.6140
  125MOL   C24340171   3.186   6.790   4.667  0.1321 -0.4749 -0.0170
  125MOL   C24440172   3.269   6.811   4.551 -0.3794  0.1498  0.0051
  125MOL   C24540173   3.375   6.724   4.524 -0.2320  0.3382 -0.0028
  125MOL   C24640174   3.408   6.621   4.616 -0.7534 -0.6795 -0.5239
  125MOL  Cl24740175   3.539   6.515   4.574 -0.0856 -0.1576  0.1368
  125MOL   C24840176   3.324   6.594   4.724  0.0106  0.0180 -0.1217
  125MOL   C24940177   3.214   6.679   4.751  0.7958 -0.2046  0.3317
  125MOL   C25040178   2.934   6.802   4.691 -0.0160  0.3974  0.0908
  125MOL   H25140179   3.063   6.945   4.593 -0.6093 -0.2641 -1.1321
  125MOL   H25240180   3.236   6.884   4.479 -0.3125  0.7561  0.5789
  125MOL   H25340181   3.430   6.736   4.432  0.4806 -0.3615  0.3194
  125MOL   H25440182   3.344   6.511   4.789 -3.2346 -0.7939 -0.0478
  125MOL   H25540183   3.149   6.675   4.837  0.4447  0.9905  0.1321
  125MOL   H25640184   2.946   6.710   4.749  1.3972  0.0561 -0.7234
  125MOL   H25740185   2.858   6.854   4.750  0.4439 -0.5390  1.5429
  125MOL   C25840186   2.865   6.765   4.558  0.8755  0.0273 -0.6613
  125MOL   C25940187   2.964   6.743   4.439  1.0574  0.3234 -0.0729
  125MOL   C26040188   2.987   6.851   4.346  0.6292  0.1155 -0.5746
  125MOL   C26140189   3.093   6.828   4.254  0.2520 -0.3181 -0.2377
  125MOL   C26240190   3.154   6.702   4.236  0.6511  0.5182 -0.2943
  125MOL  Cl26340191   3.290   6.686   4.134  0.2180 -0.0566  0.2256
  125MOL   C26440192   3.113   6.589   4.314 -0.1390 -0.2769 -0.4124
  125MOL   C26540193   3.017   6.614   4.414  0.2269 -0.1897 -0.2058
  125MOL   C26640194   2.760   6.647   4.561  0.5336 -0.5220 -0.1360
  125MOL   H26740195   2.807   6.855   4.536  0.1927  0.4326  2.5549
  125MOL   H26840196   2.950   6.952   4.357 -0.1777 -0.0957 -1.2326
  125MOL   H26940197   3.119   6.911   4.189 -1.1549  0.1813 -0.1744
  125MOL   H27040198   3.154   6.491   4.294 -0.3468  0.1129 -2.9124
  125MOL   H27140199   3.007   6.526   4.477 -2.3914 -0.1052 -0.4421
  125MOL   H27240200   2.722   6.627   4.461 -1.0069  0.1888  0.2877
  125MOL   H27340201   2.802   6.549   4.585 -2.4142 -1.3228  2.0680
  125MOL   C27440202   2.645   6.673   4.660 -0.2498 -0.0677 -0.3337
  125MOL   C27540203   2.565   6.798   4.621 -0.2753  0.0816 -0.3385
  125MOL   C27640204   2.549   6.911   4.705  0.4445 -0.2728 -0.1351
  125MOL   C27740205   2.461   7.020   4.662  0.0184 -0.1176 -0.1638
  125MOL   C27840206   2.386   7.007   4.547  0.5095 -0.3573  1.0553
  125MOL  Cl27940207   2.297   7.146   4.502  0.0271 -0.4363 -0.2566
  125MOL   C28040208   2.398   6.898   4.469 -0.1977 -0.3536  0.3820
  125MOL   C28140209   2.489   6.794   4.502 -0.3227  0.3719 -0.4554
  125MOL   C28240210   2.563   6.543   4.691 -0.5153 -0.2423 -0.0879
  125MOL   H28340211   2.685   6.704   4.757 -0.4847 -1.3231  0.1719
  125MOL   H28440212   2.608   6.923   4.794 -1.2575  1.7742  0.7617
  125MOL   H28540213   2.460   7.109   4.722 -0.8379 -1.1917  1.4546
  125MOL   H28640214   2.344   6.885   4.376 -0.9454  3.0598  0.3058
  125MOL   H28740215   2.500   6.710   4.436 -1.3533  0.1134 -0.3179
  125MOL   H28840216   2.506   6.486   4.618  1.7277 -2.2053 -0.3609
  125MOL   H28940217   2.628   6.464   4.727 -0.5870 -1.4570 -2.5369
  125MOL   C29040218   2.456   6.574   4.796  0.7577  0.8144 -0.1223
  125MOL   C29140219   2.328   6.623   4.731  0.6222  0.0638  0.0912
  125MOL   C29240220   2.262   6.531   4.643  0.6834 -0.1388  0.4402
  125MOL   C29340221   2.145   6.572   4.577  0.5457  0.1403  0.2896
  125MOL   C29440222   2.074   6.691   4.615 -0.3799 -0.5276  0.9136
  125MOL  Cl29540223   1.926   6.741   4.539  0.0769 -0.2208  0.1888
  125MOL   C29640224   2.141   6.783   4.694 -0.0693 -0.6795 -0.0848
  125MOL   C29740225   2.270   6.749   4.753  0.2263 -0.0576 -0.0272
  125MOL   C29840226   2.435   6.457   4.893 -0.2099 -0.0421 -0.6863
  125MOL   H29940227   2.491   6.664   4.846  0.6646 -0.1438  1.7111
  125MOL   H30040228   2.297   6.429   4.636 -0.4131 -0.6967  2.6317
  125MOL   H30140229   2.101   6.501   4.508  1.8601 -0.8074  0.4248
  125MOL   H30240230   2.091   6.878   4.712 -0.0612 -0.6361 -0.2954
  125MOL   H30340231   2.327   6.818   4.813 -2.0020  0.6547  1.3597
  125MOL   H30440232   2.357   6.398   4.845 -1.1209  1.2739 -0.8523
  125MOL   H30540233   2.525   6.399   4.912 -1.2916 -0.9474  2.0156
  125MOL   C30640234   2.368   6.502   5.027  0.0748 -0.7351 -0.0146
  125MOL   C30740235   2.282   6.392   5.095 -0.3848 -0.1037  0.5123
  125MOL   C30840236   2.334   6.261   5.100  0.3597 -0.4354  0.0848
  125MOL   C30940237   2.261   6.158   5.175  0.0759  0.1602  0.1540
  125MOL   C31040238   2.133   6.183   5.220 -0.7207 -0.2756  0.4411
  125MOL  Cl31140239   2.053   6.053   5.302  0.0029 -0.2338  0.2016
  125MOL   C31240240   2.082   6.317   5.207  1.1927 -0.2106 -0.4554
  125MOL   C31340241   2.161   6.423   5.158  0.2069 -0.1319  0.1969
  125MOL   C31440242   2.469   6.549   5.130 -0.3841 -0.3837 -0.0115
  125MOL   H31540243   2.302   6.586   5.002  0.5528  0.5823  2.9701
  125MOL   H31640244   2.432   6.239   5.062  0.3336  1.3466 -1.0484
  125MOL   H31740245   2.307   6.062   5.192 -0.0851  0.2293  1.0154
  125MOL   H31840246   1.987   6.339   5.253  1.6836  1.0427 -0.0058
  125MOL   H31940247   2.134   6.526   5.175  2.7051  0.9486 -1.8697
  125MOL   H32040248   2.539   6.471   5.161  0.3042  0.7376  1.2940
  125MOL   H32140249   2.529   6.631   5.091  2.1782 -1.0993  2.2967
  125MOL   H32240250   2.420   6.587   5.220  2.9021  3.8264  0.1453
  126MOL     C140251   5.703   1.343   6.763 -0.2450  0.4312 -0.2344
  126MOL     C240252   5.729   1.492   6.745  0.4399 -0.8129 -0.6183
  126MOL     C340253   5.845   1.548   6.798 -0.2817 -0.1553  0.1410
  126MOL     C440254   5.881   1.682   6.770 -0.3588  0.4467 -0.3245
  126MOL     C540255   5.795   1.766   6.700 -0.1707 -0.0248 -0.3586
  126MOL    Cl640256   5.838   1.934   6.673 -0.0929 -0.3888 -0.3509
  126MOL     C740257   5.686   1.703   6.636 -0.1614 -0.3939 -0.2263
  126MOL     C840258   5.655   1.565   6.660  0.2416 -0.0272 -0.3310
  126MOL     C940259   5.671   1.305   6.908  0.2188 -1.0002  0.3020
  126MOL    H1040260   5.791   1.294   6.722 -0.1279  0.0559  0.4563
  126MOL    H1140261   5.909   1.493   6.866  1.8854  2.2437  0.1502
  126MOL    H1240262   5.974   1.723   6.806  0.2647  1.1075 -2.5539
  126MOL    H1340263   5.629   1.761   6.566  0.0726  0.3265  0.1765
  126MOL    H1440264   5.571   1.520   6.610 -0.1557 -0.1772  0.4839
  126MOL    H1540265   5.744   1.346   6.978 -0.6125  0.5961  0.2479
  126MOL    H1640266   5.577   1.357   6.926  2.0427  3.4338 -2.2201
  126MOL    H1740267   5.623   1.318   6.694 -0.3580  0.8865 -0.2741
  126MOL    C1840268   5.673   1.150   6.914  0.5755  0.0809 -0.3626
  126MOL    C1940269   5.809   1.087   6.864  0.5220 -0.0975  1.3205
  126MOL    C2040270   5.817   0.999   6.745 -0.5713 -0.1011  0.1087
  126MOL    C2140271   5.935   0.945   6.702  0.0692 -0.4390  0.0882
  126MOL    C2240272   6.046   0.955   6.786 -0.7921 -0.3685 -0.0178
  126MOL   Cl2340273   6.198   0.883   6.731  0.1003 -0.0928  0.1709
  126MOL    C2440274   6.043   1.030   6.903  0.4433  0.3255 -0.2445
  126MOL    C2540275   5.926   1.102   6.939 -0.4078  0.3142  0.4002
  126MOL    C2640276   5.639   1.086   7.046 -0.0407  0.2645 -0.3312
  126MOL    H2740277   5.593   1.115   6.848 -0.8119  0.9392  0.8264
  126MOL    H2840278   5.737   0.988   6.672  0.2578 -3.2844 -0.3616
  126MOL    H2940279   5.941   0.891   6.608 -2.7377  0.7025 -0.8148
  126MOL    H3040280   6.127   1.045   6.969  1.1533 -0.0939 -1.0469
  126MOL    H3140281   5.929   1.157   7.033 -1.7900  0.1138  0.5697
  126MOL    H3240282   5.682   0.986   7.037 -2.5071 -0.6340 -3.0761
  126MOL    H3340283   5.698   1.134   7.124  1.4406 -0.4929 -0.9665
  126MOL    C3440284   5.484   1.080   7.083 -0.5687 -0.2781  0.0832
  126MOL    C3540285   5.404   0.973   7.010 -0.2711 -0.5199  0.8171
  126MOL    C3640286   5.284   1.004   6.934  0.0601 -0.3537  0.5231
  126MOL    C3740287   5.215   0.902   6.866 -0.8158 -0.1846  0.9671
  126MOL    C3840288   5.274   0.774   6.868  0.0858  0.1585 -0.3710
  126MOL   Cl3940289   5.187   0.656   6.781  0.0489  0.5293 -0.0810
  126MOL    C4040290   5.389   0.738   6.939  0.0571 -0.2845  0.2803
  126MOL    C4140291   5.455   0.840   7.012  0.3138 -0.4905 -0.6171
  126MOL    C4240292   5.451   1.064   7.230 -0.2197  0.4424  0.4607
  126MOL    H4340293   5.442   1.174   7.046  0.7640 -0.2577 -1.4289
  126MOL    H4440294   5.257   1.108   6.932 -2.2058 -0.9206 -1.6102
  126MOL    H4540295   5.119   0.918   6.821 -0.4293 -2.2717 -0.6883
  126MOL    H4640296   5.422   0.635   6.943  1.1997 -0.0119 -1.5634
  126MOL    H4740297   5.544   0.820   7.071  0.8343  4.0976  0.3858
  126MOL    H4840298   5.388   0.976   7.245 -1.4807  0.8733 -2.0119
  126MOL    H4940299   5.536   1.040   7.294 -1.4759 -1.5529  1.4368
  126MOL    C5040300   5.367   1.182   7.278 -0.8812  0.8925  0.1345
  126MOL    C5140301   5.233   1.188   7.215  0.2012 -0.2086 -0.2576
  126MOL    C5240302   5.193   1.304   7.145  0.2037 -0.7009  0.4486
  126MOL    C5340303   5.067   1.308   7.080  0.1244  0.5032  0.2621
  126MOL    C5440304   4.990   1.183   7.078 -0.5231  0.6477 -0.7657
  126MOL   Cl5540305   4.839   1.174   6.991  0.1336 -0.0379 -0.2276
  126MOL    C5640306   5.023   1.071   7.154 -0.5720  0.2941  0.2541
  126MOL    C5740307   5.137   1.079   7.226  0.3590  0.0090 -0.1677
  126MOL    C5840308   5.363   1.206   7.426  0.0584  0.0330 -1.0380
  126MOL    H5940309   5.421   1.269   7.240  0.3053  1.5492  3.1425
  126MOL    H6040310   5.251   1.393   7.164 -0.3839  0.1238 -1.5391
  126MOL    H6140311   5.023   1.400   7.044 -2.0362 -0.4309  0.4485
  126MOL    H6240312   4.975   0.975   7.138  0.0155  0.2475 -1.3840
  126MOL    H6340313   5.165   0.989   7.279 -2.3710 -0.4455  0.5609
  126MOL    H6440314   5.292   1.287   7.442  0.4305 -0.3432  2.8750
  126MOL    H6540315   5.326   1.118   7.477  0.2349  1.2081  1.2033
  126MOL    C6640316   5.497   1.249   7.497 -0.2206  0.0590 -0.5235
  126MOL    C6740317   5.571   1.357   7.415 -0.5506 -1.0994  0.0547
  126MOL    C6840318   5.529   1.490   7.400  0.3249  0.0331  0.3677
  126MOL    C6940319   5.604   1.582   7.330 -0.0083  0.1291  0.7297
  126MOL    C7040320   5.722   1.542   7.262  0.7453  0.1551 -1.0451
  126MOL   Cl7140321   5.815   1.654   7.168  0.1066 -0.2283 -0.4348
  126MOL    C7240322   5.763   1.407   7.275  0.1617  0.1460 -0.0597
  126MOL    C7340323   5.689   1.315   7.352 -0.8762 -0.0626 -0.1673
  126MOL    C7440324   5.473   1.300   7.646  0.1461 -0.8762  0.3568
  126MOL    H7540325   5.564   1.164   7.500  0.3286  0.4818 -0.8455
  126MOL    H7640326   5.435   1.520   7.445  0.6162  1.3463  0.1225
  126MOL    H7740327   5.559   1.679   7.315  1.2076  0.4171 -1.2657
  126MOL    H7840328   5.853   1.380   7.222  0.7780  4.0519 -1.1825
  126MOL    H7940329   5.726   1.215   7.369  1.3057  0.6001 -0.8630
  126MOL    H8040330   5.403   1.383   7.634  1.7914  0.3784 -0.7168
  126MOL    H8140331   5.419   1.229   7.709 -1.2230  1.1850  1.5459
  126MOL    C8240332   5.599   1.341   7.726  0.2574 -0.1110 -0.0763
  126MOL    C8340333   5.569   1.411   7.860 -0.2284 -0.0992  0.1148
  126MOL    C8440334   5.559   1.549   7.870 -0.5001 -0.5406  0.0732
  126MOL    C8540335   5.523   1.615   7.986 -0.3232 -0.5267  0.0914
  126MOL    C8640336   5.504   1.545   8.102  0.1729  0.0604 -0.6639
  126MOL   Cl8740337   5.462   1.632   8.243 -0.1545  0.0570 -0.2074
  126MOL    C8840338   5.527   1.403   8.097  0.6052 -0.5542 -0.6176
  126MOL    C8940339   5.542   1.332   7.977 -0.2654  0.3803  0.0407
  126MOL    C9040340   5.702   1.230   7.724 -0.1606 -0.4586  0.8473
  126MOL    H9140341   5.635   1.424   7.667 -0.5406  0.8756  0.8113
  126MOL    H9240342   5.581   1.599   7.777  2.0837  0.4865  1.1900
  126MOL    H9340343   5.523   1.723   7.992  1.4452 -0.6111  2.4075
  126MOL    H9440344   5.505   1.346   8.186  0.7009 -0.3235 -0.4453
  126MOL    H9540345   5.536   1.224   7.979  0.3719  0.3581  1.5063
  126MOL    H9640346   5.643   1.153   7.773 -0.0489 -0.0122  1.6874
  126MOL    H9740347   5.720   1.198   7.622 -1.5580 -0.9876  0.7568
  126MOL    C9840348   5.840   1.249   7.796 -0.4460 -0.0642 -0.2691
  126MOL    C9940349   5.895   1.112   7.835 -0.0314  0.0453  0.0467
  126MOL   C10040350   5.966   1.095   7.957  0.4018 -0.0691  0.2596
  126MOL   C10140351   6.021   0.969   7.999 -0.5243 -0.2746  0.3184
  126MOL   C10240352   6.007   0.859   7.913  0.2512  0.0395  0.0091
  126MOL  Cl10340353   6.058   0.704   7.962  0.4679  0.2783 -0.3601
  126MOL   C10440354   5.918   0.867   7.801 -0.6082  0.7694  0.4560
  126MOL   C10540355   5.873   0.991   7.759  0.4406  0.2956  0.2413
  126MOL   C10640356   5.942   1.338   7.721 -0.1919 -0.5569 -0.8814
  126MOL   H10740357   5.819   1.292   7.895 -0.0547 -1.4350  0.4204
  126MOL   H10840358   5.972   1.180   8.023  0.4101 -1.1107  1.6125
  126MOL   H10940359   6.090   0.967   8.082 -1.5027 -1.4717  1.1118
  126MOL   H11040360   5.903   0.783   7.734  2.1041 -0.6666  1.5821
  126MOL   H11140361   5.804   0.992   7.676  0.8724  0.8355 -0.1083
  126MOL   H11240362   6.042   1.293   7.718  0.4274  0.7175  0.1033
  126MOL   H11340363   5.923   1.330   7.614  3.0960 -0.3332 -1.5603
  126MOL   C11440364   5.947   1.484   7.769 -0.1771 -0.6163 -0.1429
  126MOL   C11540365   5.996   1.501   7.912 -0.0181 -0.8899  0.2303
  126MOL   C11640366   6.137   1.511   7.936 -0.6782  0.0367 -0.3470
  126MOL   C11740367   6.185   1.517   8.068  0.0313  0.0605 -0.1519
  126MOL   C11840368   6.094   1.515   8.176  0.1580  0.4224 -0.5717
  126MOL  Cl11940369   6.159   1.539   8.339 -0.0443  0.1976 -0.0664
  126MOL   C12040370   5.953   1.511   8.156 -0.5223 -0.9366  0.0851
  126MOL   C12140371   5.904   1.494   8.024 -0.2832  0.1764  0.1337
  126MOL   C12240372   6.020   1.569   7.656 -0.8467  0.2628 -0.7074
  126MOL   H12340373   5.842   1.513   7.776 -0.0405 -0.4109  1.2384
  126MOL   H12440374   6.203   1.509   7.851  0.3795 -1.7830  0.4994
  126MOL   H12540375   6.291   1.526   8.088 -0.3365  0.4556  1.6922
  126MOL   H12640376   5.892   1.523   8.244  0.0154  0.4867  0.2738
  126MOL   H12740377   5.797   1.477   8.033 -0.1317 -0.5147  0.7228
  126MOL   H12840378   6.128   1.561   7.666 -1.0038  0.3857  1.1976
  126MOL   H12940379   5.999   1.530   7.556  0.6668  0.3766 -1.0846
  126MOL   C13040380   5.981   1.722   7.674  0.3684  0.2226  0.5718
  126MOL   C13140381   6.104   1.807   7.697  0.2169 -1.2696  0.6053
  126MOL   C13240382   6.138   1.839   7.833 -0.2956 -0.0080  0.2123
  126MOL   C13340383   6.241   1.934   7.855  0.4423  0.1575  0.6623
  126MOL   C13440384   6.321   1.981   7.752  0.0227  0.5847 -0.2158
  126MOL  Cl13540385   6.451   2.083   7.785 -0.2712  0.0796 -0.2526
  126MOL   C13640386   6.297   1.940   7.618  0.2689  0.2886  0.1843
  126MOL   C13740387   6.192   1.853   7.588 -0.5714 -0.4033 -0.2205
  126MOL   C13840388   5.883   1.782   7.560  0.3391  0.0233  0.3577
  126MOL   H13940389   5.935   1.729   7.772  1.6699 -1.0217  1.2949
  126MOL   H14040390   6.077   1.817   7.919  0.7152  2.2371  1.5557
  126MOL   H14140391   6.243   1.984   7.951 -0.6564  1.5199 -0.0133
  126MOL   H14240392   6.355   1.972   7.532  0.6113 -1.6487 -0.3213
  126MOL   H14340393   6.176   1.830   7.483 -0.2308  1.1648 -0.6319
  126MOL   H14440394   5.931   1.767   7.464  3.6026 -2.1865  2.2651
  126MOL   H14540395   5.787   1.729   7.562 -0.1712  0.7496 -2.3904
  126MOL   C14640396   5.849   1.927   7.573 -0.4037 -0.5500 -0.0687
  126MOL   C14740397   5.807   1.976   7.438 -0.6446  0.0501 -0.2876
  126MOL   C14840398   5.681   1.938   7.383 -0.3686  0.1958  0.2256
  126MOL   C14940399   5.662   1.938   7.242 -0.5671  0.4034  0.8664
  126MOL   C15040400   5.765   1.988   7.155  0.5803 -0.2494 -0.0006
  126MOL  Cl15140401   5.736   1.975   6.990 -0.0133 -0.0288  0.5296
  126MOL   C15240402   5.885   2.037   7.211  0.5784  0.1283 -0.0477
  126MOL   C15340403   5.899   2.030   7.354 -0.3753  0.1867  0.6648
  126MOL   C15440404   5.744   1.958   7.682 -0.1147 -0.2242 -0.7088
  126MOL   H15540405   5.945   1.975   7.596 -0.1563 -0.7406 -0.6914
  126MOL   H15640406   5.604   1.890   7.441 -0.3282 -0.6967 -0.4479
  126MOL   H15740407   5.571   1.897   7.201  0.3191 -2.4515  1.6464
  126MOL   H15840408   5.966   2.091   7.165  0.5200  0.4851  0.2640
  126MOL   H15940409   5.994   2.067   7.391 -0.6932  0.4037  1.2634
  126MOL   H16040410   5.645   1.923   7.653 -1.6022  2.4791  0.9082
  126MOL   H16140411   5.766   1.899   7.771 -0.1082  0.2985 -0.3633
  126MOL   C16240412   5.735   2.108   7.724 -0.8254 -0.1077 -0.0373
  126MOL   C16340413   5.597   2.131   7.781  0.5363  0.2486  0.5219
  126MOL   C16440414   5.538   2.040   7.874 -0.3312 -0.0356  0.3405
  126MOL   C16540415   5.400   2.057   7.915 -0.0221 -0.2355 -0.4716
  126MOL   C16640416   5.325   2.164   7.865 -0.0978  0.0879 -0.3011
  126MOL  Cl16740417   5.158   2.180   7.910  0.3841  0.4990  0.0311
  126MOL   C16840418   5.391   2.254   7.778 -0.0503 -0.6461  0.3417
  126MOL   C16940419   5.527   2.244   7.743  0.1106  0.5480  0.5173
  126MOL   C17040420   5.859   2.137   7.814  0.3099 -0.0772  0.9814
  126MOL   H17140421   5.746   2.172   7.637 -1.2554 -1.6559 -1.2474
  126MOL   H17240422   5.584   1.948   7.908  0.3780 -0.1087 -0.8080
  126MOL   H17340423   5.362   1.982   7.983 -0.1769 -2.0063 -2.4580
  126MOL   H17440424   5.343   2.342   7.738  2.1148  0.6499  0.4976
  126MOL   H17540425   5.570   2.316   7.674 -1.4864  1.0472  0.0257
  126MOL   H17640426   5.829   2.094   7.910  0.6539  1.1307  1.6372
  126MOL   H17740427   5.949   2.097   7.768  0.0646  1.4073 -0.8779
  126MOL   C17840428   5.885   2.287   7.845  0.7406  0.4469  0.7750
  126MOL   C17940429   5.774   2.375   7.909 -0.4506 -0.2605  0.1919
  126MOL   C18040430   5.705   2.331   8.025  0.3744  0.2740 -0.9322
  126MOL   C18140431   5.611   2.412   8.087  0.3591 -0.3677  0.5527
  126MOL   C18240432   5.595   2.543   8.048  0.2547 -0.0403  0.7865
  126MOL  Cl18340433   5.485   2.646   8.136 -0.2696  0.4264  0.2830
  126MOL   C18440434   5.658   2.588   7.933  0.6095 -0.2435 -0.8153
  126MOL   C18540435   5.742   2.499   7.857 -0.0489 -0.1117 -0.5621
  126MOL   C18640436   6.013   2.286   7.936  0.5540 -0.0006 -0.2744
  126MOL   H18740437   5.903   2.319   7.742  0.8668 -0.0646  0.6370
  126MOL   H18840438   5.727   2.238   8.075 -2.9793  0.1025  0.3144
  126MOL   H18940439   5.563   2.377   8.177  0.6374  1.0985  1.2859
  126MOL   H19040440   5.641   2.692   7.907  0.9630  0.0776  0.2071
  126MOL   H19140441   5.779   2.521   7.758  0.3257 -0.5244 -0.5164
  126MOL   H19240442   5.989   2.247   8.035  1.1402  0.2862 -0.0104
  126MOL   H19340443   6.096   2.234   7.889  0.8013 -0.0184  0.1830
  126MOL   C19440444   6.067   2.421   7.974  0.4330 -0.2658 -0.6979
  126MOL   C19540445   6.197   2.406   8.055  0.8355 -0.1008  0.2755
  126MOL   C19640446   6.192   2.419   8.196  0.0482 -0.0402 -0.6171
  126MOL   C19740447   6.301   2.374   8.273  0.6322 -0.0418 -0.4419
  126MOL   C19840448   6.422   2.334   8.207 -0.0146  0.5027 -0.1941
  126MOL  Cl19940449   6.563   2.296   8.297  0.0780  0.1518  0.2446
  126MOL   C20040450   6.425   2.332   8.071  0.0588 -0.8119  0.4978
  126MOL   C20140451   6.314   2.362   7.990 -0.1307 -0.3313  0.2843
  126MOL   C20240452   6.086   2.511   7.848  0.1508  1.1481  0.2499
  126MOL   H20340453   6.000   2.468   8.045 -0.9604 -1.0685 -1.4632
  126MOL   H20440454   6.097   2.450   8.236 -1.1149 -0.5203 -2.9063
  126MOL   H20540455   6.290   2.381   8.380 -2.2667  1.1576 -0.7509
  126MOL   H20640456   6.515   2.294   8.026 -0.9280 -2.4666 -0.1014
  126MOL   H20740457   6.311   2.357   7.883 -2.1873  0.7423  0.2528
  126MOL   H20840458   6.114   2.444   7.766 -0.5962 -0.3281  1.1795
  126MOL   H20940459   5.988   2.546   7.816 -0.7647 -2.5030 -1.1638
  126MOL   C21040460   6.188   2.634   7.853  0.1632 -0.1053  0.4495
  126MOL   C21140461   6.205   2.705   7.717 -0.5001 -0.1731  0.1412
  126MOL   C21240462   6.326   2.683   7.645 -0.4767 -0.4033  0.3602
  126MOL   C21340463   6.364   2.759   7.531 -0.0064  0.3512 -0.2043
  126MOL   C21440464   6.282   2.867   7.498 -0.5678  0.4019 -0.5896
  126MOL  Cl21540465   6.330   2.975   7.371 -0.0951 -0.2441  0.2337
  126MOL   C21640466   6.163   2.895   7.570  0.4032  0.3062 -0.5335
  126MOL   C21740467   6.123   2.809   7.677  0.0054 -0.1385  0.4740
  126MOL   C21840468   6.172   2.735   7.972  0.6061  0.3299 -0.6355
  126MOL   H21940469   6.282   2.578   7.860 -0.1231 -0.3464  2.6914
  126MOL   H22040470   6.392   2.604   7.679  1.8052  0.5528 -1.6920
  126MOL   H22140471   6.450   2.754   7.466 -1.4241 -0.2178 -2.0713
  126MOL   H22240472   6.098   2.978   7.546 -1.3172  0.2351  3.3769
  126MOL   H22340473   6.047   2.837   7.750  0.3645 -0.7023  1.0696
  126MOL   H22440474   6.144   2.833   7.934 -0.1303 -0.1113 -1.2431
  126MOL   H22540475   6.089   2.690   8.029  2.1595  0.6730  1.9821
  126MOL   C22640476   6.292   2.741   8.065  0.0618 -0.2038 -0.0254
  126MOL   C22740477   6.417   2.783   7.998 -0.2214  0.1803 -0.2362
  126MOL   C22840478   6.428   2.907   7.934  0.0573 -0.8561 -0.5587
  126MOL   C22940479   6.552   2.954   7.879 -0.3948  0.3958  0.2516
  126MOL   C23040480   6.653   2.863   7.868 -0.7839 -0.3660 -1.1125
  126MOL  Cl23140481   6.809   2.906   7.804  0.4450  0.0046 -0.0401
  126MOL   C23240482   6.641   2.730   7.915 -0.3502 -0.1337 -0.5748
  126MOL   C23340483   6.525   2.691   7.985  0.5221 -0.3915 -0.0075
  126MOL   C23440484   6.260   2.826   8.198  0.3383 -0.2419  0.4575
  126MOL   H23540485   6.312   2.641   8.104  0.5886  0.2801  0.9764
  126MOL   H23640486   6.340   2.969   7.928  1.2799  0.8777 -1.0386
  126MOL   H23740487   6.573   3.055   7.846  0.4757  0.7551  1.8741
  126MOL   H23840488   6.728   2.666   7.922 -0.2079  0.2971  2.3194
  126MOL   H23940489   6.526   2.595   8.036  1.2078 -1.2519 -1.5778
  126MOL   H24040490   6.226   2.924   8.165  0.9188  0.0673  0.7830
  126MOL   H24140491   6.172   2.798   8.257 -0.0253 -0.1396 -0.0295
  126MOL   C24240492   6.375   2.862   8.296 -0.1017 -0.9053  0.1040
  126MOL   C24340493   6.336   2.977   8.393 -0.8781 -0.7156 -0.3842
  126MOL   C24440494   6.391   3.101   8.364  0.1443 -0.0326  0.3617
  126MOL   C24540495   6.352   3.217   0.000 -0.1309 -0.0407 -0.1359
  126MOL   C24640496   6.267   3.193   0.108  0.8693  0.2743  0.1252
  126MOL  Cl24740497   6.223   3.320   0.217 -0.2963 -0.1346 -0.1415
  126MOL   C24840498   6.216   3.066   0.138  0.1916  0.9129 -0.2635
  126MOL   C24940499   6.239   2.961   0.047 -0.3530  0.6266  0.3755
  126MOL   C25040500   6.419   2.733   8.366 -0.1877 -0.6848 -0.4960
  126MOL   H25140501   6.456   2.901   8.235  0.2632 -1.7592  0.0294
  126MOL   H25240502   6.461   3.127   8.287  1.6236 -0.7481  1.4426
  126MOL   H25340503   6.399   3.313   8.425  1.2411 -0.1047  2.6954
  126MOL   H25440504   6.148   3.053   0.221  1.4311  1.8152  0.9012
  126MOL   H25540505   6.193   2.864   0.058  1.6262 -0.4692 -0.6833
  126MOL   H25640506   6.332   2.709   8.428  0.2971 -1.6344 -0.1807
  126MOL   H25740507   6.421   2.650   8.296 -2.6195 -0.2450 -1.1390
  126MOL   C25840508   6.546   2.743   0.010  0.3076  0.7269  0.1961
  126MOL   C25940509   6.511   2.686   0.152 -0.4861  0.3691 -0.1352
  126MOL   C26040510   6.509   2.785   0.259  0.0584  0.1169 -0.1444
  126MOL   C26140511   6.485   2.736   0.386  0.4536 -0.0262 -0.1226
  126MOL   C26240512   6.469   2.595   0.416  0.6101 -0.0264  0.2288
  126MOL  Cl26340513   6.433   2.538   0.571  0.2959 -0.6658  0.0610
  126MOL   C26440514   6.474   2.498   0.309  0.3529 -0.9062  0.8176
  126MOL   C26540515   6.500   2.548   0.173 -0.2661 -0.8345 -0.2577
  126MOL   C26640516   6.669   2.678   8.378 -0.1078  0.4663  0.4224
  126MOL   H26740517   6.568   2.848   0.033  0.7883  0.3340  1.6231
  126MOL   H26840518   6.514   2.890   0.232 -0.2050 -0.8115 -4.0922
  126MOL   H26940519   6.485   2.798   0.475 -0.8604  0.0520 -0.1744
  126MOL   H27040520   6.464   2.393   0.329 -0.4659 -1.0656 -0.3979
  126MOL   H27140521   6.506   2.485   0.085  0.8423  0.2101 -0.9332
  126MOL   H27240522   6.657   2.572   8.356 -1.1650  0.5585  0.5418
  126MOL   H27340523   6.682   2.722   8.279 -2.7272 -1.7688 -0.9665
  126MOL   C27440524   6.810   2.702   0.007  0.1581  0.4666  0.2016
  126MOL   C27540525   6.829   2.618   0.137 -0.5189 -0.3010 -0.3818
  126MOL   C27640526   6.853   2.682   0.257 -0.0860  0.1876  0.3638
  126MOL   C27740527   6.845   2.615   0.380 -0.0745 -0.3095 -0.6281
  126MOL   C27840528   6.811   2.475   0.381  0.1003 -0.2379  0.3815
  126MOL  Cl27940529   6.825   2.396   0.535  0.2285 -0.0112 -0.2074
  126MOL   C28040530   6.799   2.410   0.254 -0.8434  0.2778 -0.6004
  126MOL   C28140531   6.813   2.480   0.136 -0.0993  0.0152 -0.0133
  126MOL   C28240532   6.940   2.685   8.360  0.1505  0.7748  0.5248
  126MOL   H28340533   6.809   2.807   0.039  1.5784  0.3226  0.7649
  126MOL   H28440534   6.886   2.785   0.259  0.5159 -0.0235  3.1757
  126MOL   H28540535   6.865   2.670   0.470 -0.5511 -2.9616  1.1268
  126MOL   H28640536   6.794   2.303   0.244 -0.3611  0.1467  0.5901
  126MOL   H28740537   6.807   2.417   0.049  1.2405 -0.2500  0.0829
  126MOL   H28840538   7.026   2.694   8.426  1.5936  0.4939 -1.2587
  126MOL   H28940539   6.945   2.585   8.317  0.2263  1.1418 -0.3339
  126MOL   C29040540   6.956   2.777   8.241  0.7830  0.2456  0.1481
  126MOL   C29140541   6.913   2.916   8.274 -0.8139 -0.3048  0.3399
  126MOL   C29240542   6.982   2.991   8.362  0.0841 -0.5503 -0.2182
  126MOL   C29340543   6.956   3.130   8.389  0.5238 -0.0435 -0.0555
  126MOL   C29440544   6.861   3.200   8.309  0.1681  0.5373  0.1768
  126MOL  Cl29540545   6.825   3.365   8.333  0.3362 -0.1943 -0.1759
  126MOL   C29640546   6.791   3.124   8.214 -0.2163  0.3433 -0.4718
  126MOL   C29740547   6.817   2.984   8.193 -0.2906  0.1663  0.1612
  126MOL   C29840548   7.104   2.767   8.195  0.4274  0.1436 -0.1915
  126MOL   H29940549   6.890   2.745   8.160  1.9713 -1.1866 -0.2909
  126MOL   H30040550   7.061   2.948   8.423 -1.6059 -0.4156  2.1210
  126MOL   H30140551   7.016   3.177   0.023 -1.5632  1.8679  0.4773
  126MOL   H30240552   6.729   3.174   8.140 -0.2854  3.3939  1.5590
  126MOL   H30340553   6.755   2.928   8.124 -1.3772  0.4419  0.8919
  126MOL   H30440554   7.174   2.816   8.262  2.3432 -1.4334 -0.9959
  126MOL   H30540555   7.122   2.660   8.187 -0.4721  0.0675 -1.2398
  126MOL   C30640556   7.127   2.824   8.055  0.1707 -0.2935  0.1090
  126MOL   C30740557   7.269   2.871   8.044 -1.2755 -0.8627  0.6248
  126MOL   C30840558   7.300   2.996   7.991  0.1127  0.1148  0.3617
  126MOL   C30940559   7.434   3.038   7.982  0.2301  0.4141 -0.3144
  126MOL   C31040560   7.533   2.952   8.025  0.3390 -0.1090  0.3004
  126MOL  Cl31140561   7.693   3.008   8.001 -0.3224  0.0977 -0.4387
  126MOL   C31240562   7.510   2.820   8.070  0.1489  0.1530 -0.3309
  126MOL   C31340563   7.374   2.785   8.090  0.2123 -0.2955  1.0635
  126MOL   C31440564   7.098   2.710   7.959 -0.6916  0.4824  0.6601
  126MOL   H31540565   7.062   2.909   8.035  0.5492 -0.0455 -0.0679
  126MOL   H31640566   7.219   3.057   7.955  0.2260 -1.5146 -2.8202
  126MOL   H31740567   7.454   3.137   7.945 -0.4628 -0.2667 -2.5917
  126MOL   H31840568   7.594   2.754   8.089  0.4992  0.3459 -1.1998
  126MOL   H31940569   7.360   2.685   8.127 -2.7045  0.3398  1.7571
  126MOL   H32040570   6.993   2.678   7.961 -0.7918  0.8375  1.2427
  126MOL   H32140571   7.124   2.747   7.860 -0.2519 -4.1853 -1.1137
  126MOL   H32240572   7.164   2.623   7.965 -1.2478 -0.0268 -0.4113
  127MOL     C140573   4.094   3.520   0.179 -0.8887  0.7229 -0.4489
  127MOL     C240574   4.101   3.665   0.238 -0.2379  0.0010 -0.4118
  127MOL     C340575   4.032   3.774   0.182 -0.1839  0.1480 -0.4792
  127MOL     C440576   4.038   3.906   0.236  0.3624 -0.6925  0.4188
  127MOL     C540577   4.116   3.924   0.352  0.5594  0.4223  0.1264
  127MOL    Cl640578   4.149   4.080   0.424 -0.1391  0.2106 -0.0653
  127MOL     C740579   4.187   3.815   0.405  0.5562  0.0694  0.6283
  127MOL     C840580   4.182   3.689   0.346  0.0014  0.0698  0.8145
  127MOL     C940581   3.955   3.462   0.162 -0.2675  0.6919  0.3486
  127MOL    H1040582   4.164   3.458   0.234  0.3429  3.4649  1.1538
  127MOL    H1140583   3.989   3.754   0.085 -0.0991  0.0026 -0.4883
  127MOL    H1240584   3.991   3.989   0.186 -2.5356 -1.8502  1.1482
  127MOL    H1340585   4.255   3.836   0.486 -0.2276  1.8673  0.8555
  127MOL    H1440586   4.243   3.607   0.381  0.9325  0.7627  0.8261
  127MOL    H1540587   3.921   3.480   0.264 -1.9122  0.0861 -0.0692
  127MOL    H1640588   3.883   3.526   0.109 -1.3976  0.1685  1.2236
  127MOL    H1740589   4.149   3.539   0.086  1.4458 -0.0622  0.7224
  127MOL    C1840590   3.948   3.314   0.119  0.3981  1.0337 -0.1423
  127MOL    C1940591   4.048   3.221   0.188  0.6798 -0.6168 -0.1312
  127MOL    C2040592   4.149   3.166   0.115 -0.7249 -0.3526 -0.7332
  127MOL    C2140593   4.239   3.070   0.158  0.2556 -0.5568  0.6959
  127MOL    C2240594   4.220   3.020   0.287 -0.6327  0.7994  0.8325
  127MOL   Cl2340595   4.308   2.889   0.350  0.1009 -0.3262 -0.1324
  127MOL    C2440596   4.113   3.079   0.368 -0.9896 -0.2319  0.3700
  127MOL    C2540597   4.032   3.181   0.320 -0.2449  0.0822  0.2935
  127MOL    C2640598   3.805   3.253   0.137  0.5049  0.9036  0.5699
  127MOL    H2740599   3.967   3.302   0.012  0.7402 -2.4276  0.2772
  127MOL    H2840600   4.157   3.205   0.014  0.5352 -0.0779 -0.5362
  127MOL    H2940601   4.317   3.025   0.098 -2.1305 -1.8789 -1.4930
  127MOL    H3040602   4.098   3.054   0.472 -1.1293 -0.3326  0.3258
  127MOL    H3140603   3.954   3.225   0.381  1.3146  1.7659  1.1088
  127MOL    H3240604   3.773   3.267   0.240  1.1161 -1.6915  1.1539
  127MOL    H3340605   3.736   3.307   0.073 -1.4095 -0.8356  1.1435
  127MOL    C3440606   3.787   3.104   0.107 -0.0325  0.1461  0.2969
  127MOL    C3540607   3.661   3.058   0.171  0.2552  0.6679 -0.2246
  127MOL    C3640608   3.533   3.112   0.136  0.2705 -0.3997  0.2992
  127MOL    C3740609   3.418   3.055   0.195  0.4665 -0.2271  0.1095
  127MOL    C3840610   3.428   2.951   0.289 -0.0734 -0.4324 -0.2808
  127MOL   Cl3940611   3.288   2.894   0.368  0.0552  0.1683 -0.6889
  127MOL    C4040612   3.554   2.905   0.325  0.0323 -0.3804 -0.0308
  127MOL    C4140613   3.668   2.952   0.262  0.3625  0.0044 -0.4905
  127MOL    C4240614   3.780   3.069   8.396 -0.4103  0.2343 -0.1316
  127MOL    H4340615   3.869   3.049   0.152  1.3057  1.6265 -0.2769
  127MOL    H4440616   3.526   3.199   0.072  1.0293 -0.5765 -0.0426
  127MOL    H4540617   3.324   3.103   0.172 -0.0207 -0.4713  1.5570
  127MOL    H4640618   3.565   2.840   0.410  0.3237  0.3033  0.4598
  127MOL    H4740619   3.762   2.905   0.284  0.4062 -0.2376 -1.1799
  127MOL    H4840620   3.676   3.081   8.364 -0.7858 -2.5951 -0.0894
  127MOL    H4940621   3.840   3.145   8.344 -0.6351 -0.2546 -1.1272
  127MOL    C5040622   3.819   2.928   8.356 -0.5383  0.2625 -0.3829
  127MOL    C5140623   3.791   2.908   8.205  0.2417  0.0046 -0.5261
  127MOL    C5240624   3.657   2.867   8.170 -0.3260 -0.7835 -0.9736
  127MOL    C5340625   3.627   2.849   8.038 -0.1855 -0.3275  0.3971
  127MOL    C5440626   3.713   2.894   7.939  0.4662 -0.2915 -0.2163
  127MOL   Cl5540627   3.664   2.891   7.770  0.0427 -0.2794 -0.5784
  127MOL    C5640628   3.847   2.932   7.974  0.0844 -0.3772 -0.3547
  127MOL    C5740629   3.882   2.940   8.105 -0.4210  0.2484 -0.3687
  127MOL    C5840630   3.963   2.889   8.401  0.4235  0.6196 -1.2163
  127MOL    H5940631   3.749   2.863   8.407 -1.2078  0.6351 -0.8111
  127MOL    H6040632   3.584   2.828   8.239 -2.2353  1.7872 -1.4773
  127MOL    H6140633   3.529   2.817   8.006 -0.2567  0.3077 -0.0142
  127MOL    H6240634   3.912   2.964   7.894 -1.5151 -0.0791 -1.5750
  127MOL    H6340635   3.984   2.964   8.131 -0.2730 -3.0676  2.4010
  127MOL    H6440636   4.038   2.961   8.369  0.8541  1.0895  0.8037
  127MOL    H6540637   3.973   2.903   0.065 -2.0187  1.3592 -1.0600
  127MOL    C6640638   4.025   2.761   8.346  0.5605  0.2735 -0.0232
  127MOL    C6740639   4.174   2.756   8.374  0.1339  0.5487 -0.1204
  127MOL    C6840640   4.262   2.794   8.273 -0.7507 -0.2398  0.0724
  127MOL    C6940641   4.405   2.790   8.289  0.7253 -0.5641  0.0591
  127MOL    C7040642   4.458   2.743   8.410  1.1200  0.3985 -0.4418
  127MOL   Cl7140643   4.631   2.737   8.431 -0.1309 -0.1880  0.0315
  127MOL    C7240644   4.368   2.713   0.070 -0.0158  0.4336  0.1972
  127MOL    C7340645   4.225   2.719   0.060  0.0159 -0.9313 -0.2625
  127MOL    C7440646   3.949   2.637   8.407  0.3356 -0.4022 -0.4245
  127MOL    H7540647   4.015   2.764   8.238 -0.9567  0.1717  0.1022
  127MOL    H7640648   4.226   2.832   8.178  2.1809 -1.7014 -1.7354
  127MOL    H7740649   4.462   2.833   8.208  2.9298 -1.7903  0.9299
  127MOL    H7840650   4.402   2.669   0.163 -2.6044 -2.1012  0.0403
  127MOL    H7940651   4.165   2.669   0.134  0.7406 -2.1363 -0.4723
  127MOL    H8040652   3.962   2.644   0.072  2.5845 -1.2860 -0.6060
  127MOL    H8140653   3.844   2.638   8.378  0.6487 -0.9238 -1.5666
  127MOL    C8240654   4.008   2.506   8.365  0.3787 -0.0148  0.5337
  127MOL    C8340655   3.993   2.409   0.039 -0.3812 -0.4309 -0.2940
  127MOL    C8440656   3.869   2.376   0.087  0.0216 -0.5848  0.2715
  127MOL    C8540657   3.847   2.282   0.192  0.5167 -0.4007 -0.5734
  127MOL    C8640658   3.957   2.210   0.237 -0.0390 -0.1346  0.3271
  127MOL   Cl8740659   3.952   2.086   0.349  0.2444 -0.4019  0.2053
  127MOL    C8840660   4.089   2.246   0.192  0.1282  0.5461 -0.0617
  127MOL    C8940661   4.102   2.338   0.084 -0.2020 -0.2051 -0.4410
  127MOL    C9040662   3.959   2.421   8.240  0.6649  0.0268  0.3313
  127MOL    H9140663   4.116   2.506   8.354  0.1578  0.0085 -1.9820
  127MOL    H9240664   3.789   2.431   0.040  0.9021 -0.6971 -1.3994
  127MOL    H9340665   3.746   2.261   0.223  1.5339 -2.8016  1.2596
  127MOL    H9440666   4.176   2.188   0.218 -1.8597 -1.9929  1.1410
  127MOL    H9540667   4.200   2.345   0.039  0.9131 -2.0322  1.5794
  127MOL    H9640668   4.025   2.334   8.237  0.3785 -0.1522 -1.1444
  127MOL    H9740669   3.859   2.383   8.263 -0.0460 -0.2453 -2.9701
  127MOL    C9840670   3.948   2.480   8.095  0.5714  0.0336 -0.3907
  127MOL    C9940671   4.086   2.542   8.050 -0.8540 -0.1319  0.3977
  127MOL   C10040672   4.086   2.666   7.981  0.0168 -0.1989 -0.7653
  127MOL   C10140673   4.207   2.734   7.952 -0.0531  1.0394 -0.1554
  127MOL   C10240674   4.330   2.664   7.976  0.8018 -0.4407  0.4632
  127MOL  Cl10340675   4.479   2.746   7.944 -0.0913  0.1023  0.2580
  127MOL   C10440676   4.327   2.542   8.051 -0.7141  0.2079  0.6541
  127MOL   C10540677   4.208   2.475   8.080 -0.1817 -0.2215 -0.2558
  127MOL   C10640678   3.905   2.366   8.000  0.0162 -0.4614  0.4100
  127MOL   H10740679   3.875   2.560   8.085 -1.1257 -1.6938 -2.4851
  127MOL   H10840680   3.993   2.718   7.965  1.7947  3.3880  0.0436
  127MOL   H10940681   4.209   2.834   7.910  1.2914  1.2570  0.3929
  127MOL   H11040682   4.416   2.482   8.064 -1.1786 -1.0286 -1.6797
  127MOL   H11140683   4.211   2.377   8.127  1.2573  0.1505  0.4694
  127MOL   H11240684   3.892   2.413   7.902  2.3985 -1.3313 -0.3585
  127MOL   H11340685   3.987   2.295   8.001 -1.0575 -1.7048  1.3088
  127MOL   C11440686   3.762   2.304   8.025  0.0425 -0.0583  0.1698
  127MOL   C11540687   3.643   2.403   8.021  0.3512  0.3966  0.0659
  127MOL   C11640688   3.564   2.419   7.902 -0.0469  0.6042 -0.0473
  127MOL   C11740689   3.445   2.497   7.902 -0.3324 -0.5854  0.1722
  127MOL   C11840690   3.407   2.554   8.028  0.1348  0.0791  0.6202
  127MOL  Cl11940691   3.272   2.647   8.040  0.0989  0.6375 -0.0736
  127MOL   C12040692   3.476   2.536   8.145 -0.3590  0.4468 -0.3606
  127MOL   C12140693   3.599   2.460   8.145  0.4675  0.2786  0.4071
  127MOL   C12240694   3.736   2.179   7.939  0.5351 -0.7955 -0.2552
  127MOL   H12340695   3.751   2.269   8.127 -1.4636  0.5280  0.2190
  127MOL   H12440696   3.589   2.369   7.810 -4.1056 -2.1214  0.2149
  127MOL   H12540697   3.383   2.507   7.814 -0.8715 -0.9219  0.5052
  127MOL   H12640698   3.440   2.599   8.225 -0.8297  1.8503 -1.6587
  127MOL   H12740699   3.655   2.445   8.236 -0.6774 -2.0601  0.7910
  127MOL   H12840700   3.631   2.150   7.951  0.3357 -0.3395 -0.8650
  127MOL   H12940701   3.742   2.214   7.836 -2.1889  0.1781 -0.1165
  127MOL   C13040702   3.814   2.055   7.984 -0.6291  1.4039 -0.3679
  127MOL   C13140703   3.795   2.030   8.133  0.0735 -0.1084 -0.2499
  127MOL   C13240704   3.903   2.049   8.223 -0.4703 -0.1188  0.3998
  127MOL   C13340705   3.883   2.022   8.360 -0.1170  0.3694  0.7864
  127MOL   C13440706   3.759   1.967   8.410 -0.6504  0.0975 -0.2420
  127MOL  Cl13540707   3.746   1.910   0.134  0.1808 -0.2347  0.0872
  127MOL   C13640708   3.655   1.959   8.318  0.8116  0.0761 -0.9369
  127MOL   C13740709   3.670   1.987   8.184  0.2424 -0.3461 -0.4536
  127MOL   C13840710   3.785   1.925   7.895 -0.4926  0.1933 -1.1004
  127MOL   H13940711   3.920   2.072   7.966 -0.2480  1.1222  1.5328
  127MOL   H14040712   3.997   2.091   8.188 -0.0154 -1.7206 -0.3629
  127MOL   H14140713   3.955   2.040   8.438 -1.7543  0.8037  2.2336
  127MOL   H14240714   3.552   1.934   8.338 -0.1152  4.8417  1.0195
  127MOL   H14340715   3.586   1.981   8.116 -0.1362 -0.1505 -0.0106
  127MOL   H14440716   3.677   1.919   7.888 -0.7171  1.9218  0.3551
  127MOL   H14540717   3.817   1.937   7.792  0.7550 -3.6811 -1.2571
  127MOL   C14640718   3.836   1.786   7.939  0.5760  0.3585  0.6995
  127MOL   C14740719   3.778   1.678   7.851  0.0097 -0.4313  0.4978
  127MOL   C14840720   3.772   1.697   7.712  0.1844  0.1088  0.4721
  127MOL   C14940721   3.715   1.599   7.633  0.9330 -0.7830  0.5071
  127MOL   C15040722   3.663   1.481   7.689  0.0860 -0.6855  0.1079
  127MOL  Cl15140723   3.613   1.349   7.591  0.0067  0.0667  0.0062
  127MOL   C15240724   3.663   1.470   7.830  0.4556  0.0722 -0.1121
  127MOL   C15340725   3.717   1.570   7.914 -0.1278 -0.4590  0.3079
  127MOL   C15440726   3.992   1.778   7.945  0.8640 -0.1906  0.3489
  127MOL   H15540727   3.785   1.777   8.035 -2.0619  1.1235 -0.6025
  127MOL   H15640728   3.823   1.780   7.666  1.5765 -0.3972  1.0561
  127MOL   H15740729   3.711   1.615   7.526  2.6141 -0.6678  0.4536
  127MOL   H15840730   3.631   1.378   7.877 -3.2346  0.4423 -1.6802
  127MOL   H15940731   3.741   1.551   8.017 -1.4597 -1.2488  0.4851
  127MOL   H16040732   4.028   1.774   7.842  0.0949 -0.1668  0.0804
  127MOL   H16140733   4.039   1.876   7.957 -2.4145  1.3092  1.3902
  127MOL   C16240734   4.062   1.672   8.036  0.5999  0.1527  0.4196
  127MOL   C16340735   4.214   1.695   8.015  0.0374  0.0527  0.3692
  127MOL   C16440736   4.275   1.802   8.081 -0.1383  0.7409  0.4961
  127MOL   C16540737   4.418   1.802   8.083 -0.6939  0.8564  0.5693
  127MOL   C16640738   4.489   1.726   7.991 -0.6821 -0.1007  0.0624
  127MOL  Cl16740739   4.660   1.748   7.985 -0.1185 -0.4304 -0.0290
  127MOL   C16840740   4.422   1.639   7.906 -0.5134 -0.0759  0.2994
  127MOL   C16940741   4.282   1.614   7.922 -0.2793  0.5873 -0.2603
  127MOL   C17040742   4.023   1.679   8.183  0.3021  0.2851 -0.8405
  127MOL   H17140743   4.038   1.574   7.992  1.3118  0.4821 -0.7497
  127MOL   H17240744   4.224   1.882   8.133 -0.6438 -0.0293  1.2111
  127MOL   H17340745   4.473   1.873   8.143  1.7975  1.0178 -1.7745
  127MOL   H17440746   4.473   1.580   7.831 -0.7472 -1.1129  0.9410
  127MOL   H17540747   4.242   1.526   7.876 -1.2426 -0.2731  2.1315
  127MOL   H17640748   4.039   1.776   8.232  0.6557 -0.8778  1.4290
  127MOL   H17740749   3.916   1.658   8.177  0.4299 -0.3694 -0.8819
  127MOL   C17840750   4.099   1.585   8.279  0.4811  0.2544  0.6747
  127MOL   C17940751   4.055   1.609   8.424 -0.5915  1.4545  0.3465
  127MOL   C18040752   4.150   1.642   0.083 -0.1076  0.3276 -0.4437
  127MOL   C18140753   4.110   1.666   0.216 -0.7825 -0.1519 -0.0048
  127MOL   C18240754   3.980   1.622   0.245 -0.7334  0.1164  0.2205
  127MOL  Cl18340755   3.926   1.637   0.406  0.6214 -0.4145  0.1631
  127MOL   C18440756   3.894   1.575   0.149  0.2450  0.0443 -0.6322
  127MOL   C18540757   3.929   1.580   0.018  0.0769  0.6034 -0.3040
  127MOL   C18640758   4.087   1.431   8.248  0.9686 -0.4880 -0.5848
  127MOL   H18740759   4.206   1.605   8.280  0.6449 -0.5273 -0.5777
  127MOL   H18840760   4.253   1.661   0.055 -0.6152  1.7143 -1.3982
  127MOL   H18940761   4.175   1.703   0.294 -0.0925  0.6776 -0.9688
  127MOL   H19040762   3.796   1.546   0.183  0.8907 -0.4274  0.8405
  127MOL   H19140763   3.853   1.552   8.389 -1.2929  0.7946  1.0372
  127MOL   H19240764   4.067   1.375   8.339 -0.2775  0.2680 -0.3894
  127MOL   H19340765   3.984   1.424   8.211  0.4387  0.2061  0.7289
  127MOL   C19440766   4.210   1.370   8.179 -0.2702  0.4044  0.4101
  127MOL   C19540767   4.321   1.343   8.282  0.3516  0.1497  0.7122
  127MOL   C19640768   4.318   1.250   8.382 -0.2480  0.0021  0.5403
  127MOL   C19740769   4.433   1.238   0.027  0.0995  0.3535  0.3556
  127MOL   C19840770   4.545   1.316   0.010 -0.4462 -0.1487  0.3757
  127MOL  Cl19940771   4.694   1.279   0.086 -0.6088 -0.0142 -0.3241
  127MOL   C20040772   4.542   1.413   8.354  0.1467 -0.3090 -0.3452
  127MOL   C20140773   4.434   1.424   8.268 -0.2335  0.2607  0.4651
  127MOL   C20240774   4.169   1.232   8.110 -0.1427 -0.2076 -0.3861
  127MOL   H20340775   4.226   1.447   8.104  0.1807 -0.9587 -0.9200
  127MOL   H20440776   4.235   1.182   8.388 -2.2037  2.4294  1.9823
  127MOL   H20540777   4.431   1.163   0.104 -2.3463 -1.3680 -1.3185
  127MOL   H20640778   4.621   1.486   8.345 -0.4902  0.2585 -1.4064
  127MOL   H20740779   4.427   1.510   8.203 -4.1728 -1.1360 -1.1216
  127MOL   H20840780   4.115   1.167   8.179  1.2721  0.9922  1.8979
  127MOL   H20940781   4.097   1.257   8.032 -0.6753 -0.5397 -0.0030
  127MOL   C21040782   4.285   1.154   8.048  0.2534 -0.4092  0.3399
  127MOL   C21140783   4.223   1.034   7.978  0.6866  0.1044 -0.2446
  127MOL   C21240784   4.215   0.914   8.048  0.3616  0.4070 -0.2558
  127MOL   C21340785   4.144   0.811   7.993  0.6022 -0.1415 -0.5843
  127MOL   C21440786   4.085   0.818   7.865  0.9328 -0.0624  0.5009
  127MOL  Cl21540787   4.007   0.677   7.786  0.1378 -0.1693  0.1404
  127MOL   C21640788   4.111   0.937   7.790  0.4394 -0.1142  0.5233
  127MOL   C21740789   4.180   1.049   7.846 -0.4796 -0.1591  0.5006
  127MOL   C21840790   4.399   1.230   7.975 -0.0584  0.2003  0.0803
  127MOL   H21940791   4.350   1.112   8.125  1.3242 -1.2453 -0.9890
  127MOL   H22040792   4.250   0.900   8.149 -2.0140 -1.3177  0.3580
  127MOL   H22140793   4.132   0.727   8.060  0.1656 -0.8858 -1.5835
  127MOL   H22240794   4.066   0.943   7.692  0.1220 -1.0512  0.5985
  127MOL   H22340795   4.188   1.144   7.794 -0.8492 -0.2518  0.2765
  127MOL   H22440796   4.335   1.296   7.916 -2.1794 -2.2216 -0.4178
  127MOL   H22540797   4.450   1.300   8.041  1.4008 -0.7934  0.0478
  127MOL   C22640798   4.498   1.144   7.886 -0.1363 -0.2588  0.5704
  127MOL   C22740799   4.575   1.249   7.807  0.1433  0.2789  0.1792
  127MOL   C22840800   4.655   1.343   7.875 -0.0424  0.7484  0.8165
  127MOL   C22940801   4.712   1.443   7.796  0.5015 -0.0408  0.2510
  127MOL   C23040802   4.696   1.450   7.657 -0.7269  0.6221  0.3899
  127MOL  Cl23140803   4.763   1.583   7.569 -0.2617  0.0451 -0.0802
  127MOL   C23240804   4.611   1.363   7.594 -0.5048 -0.8533 -0.1080
  127MOL   C23340805   4.549   1.257   7.667 -0.0182  0.0858 -0.4198
  127MOL   C23440806   4.596   1.049   7.960 -0.8497 -0.9311 -0.2879
  127MOL   H23540807   4.452   1.079   7.812 -0.2923  0.6215 -0.1008
  127MOL   H23640808   4.672   1.334   7.981 -1.9016 -0.5951  1.0487
  127MOL   H23740809   4.778   1.514   7.845 -0.0788 -0.4946  1.7425
  127MOL   H23840810   4.578   1.378   7.492 -1.0588  1.0415  0.3348
  127MOL   H23940811   4.484   1.187   7.617 -1.1507 -0.1670  1.3776
  127MOL   H24040812   4.689   1.101   7.984 -1.4267 -0.0276  0.0228
  127MOL   H24140813   4.556   1.030   8.060 -0.7536 -2.1346 -0.4761
  127MOL   C24240814   4.630   0.922   7.888 -0.9200  0.2964 -0.3545
  127MOL   C24340815   4.769   0.874   7.917 -0.2945 -0.8355 -0.7030
  127MOL   C24440816   4.801   0.828   8.046  0.1682  0.0596 -0.4755
  127MOL   C24540817   4.928   0.785   8.078  0.2687 -0.2175  0.6871
  127MOL   C24640818   5.034   0.795   7.990 -0.1918  0.5714  0.6557
  127MOL  Cl24740819   5.194   0.733   8.024  0.2238  0.1956  0.0211
  127MOL   C24840820   5.001   0.847   7.866  0.2505  0.1473  0.9379
  127MOL   C24940821   4.873   0.893   7.826  0.6846  0.3573 -0.0699
  127MOL   C25040822   4.526   0.815   7.920  0.3441  0.1280 -0.9029
  127MOL   H25140823   4.631   0.934   7.780  1.5313 -0.6297 -0.4683
  127MOL   H25240824   4.725   0.816   8.122 -0.8420  0.2039 -1.4526
  127MOL   H25340825   4.951   0.740   8.174  1.7407  0.0835  0.4893
  127MOL   H25440826   5.077   0.857   7.789  0.2835 -0.0900  0.9407
  127MOL   H25540827   4.846   0.935   7.731 -1.0183  1.5148  0.8958
  127MOL   H25640828   4.537   0.793   8.026  0.4356  0.6271 -0.8064
  127MOL   H25740829   4.432   0.864   7.896  0.6622  1.3857  0.3306
  127MOL   C25840830   4.542   0.686   7.836  0.2760  0.3302 -0.0501
  127MOL   C25940831   4.549   0.568   7.929 -0.6615 -0.4739 -0.3263
  127MOL   C26040832   4.668   0.496   7.940  0.3480 -0.4724  0.1094
  127MOL   C26140833   4.663   0.376   8.022 -1.0119  0.1598  0.0320
  127MOL   C26240834   4.547   0.325   8.081  0.0308 -0.2489 -0.0547
  127MOL  Cl26340835   4.565   0.186   8.179 -0.2428 -0.3625 -0.2524
  127MOL   C26440836   4.428   0.394   8.065  0.3522  0.0035 -0.3726
  127MOL   C26540837   4.433   0.520   7.996  0.3722  0.7703 -0.0488
  127MOL   C26640838   4.429   0.671   7.726 -0.4413  0.6331  0.1376
  127MOL   H26740839   4.642   0.691   7.794  0.2117  0.9130 -0.1376
  127MOL   H26840840   4.757   0.522   7.884  0.1374 -1.0639 -0.5125
  127MOL   H26940841   4.751   0.318   8.046 -1.3076 -0.2439  0.1501
  127MOL   H27040842   4.332   0.354   8.095 -0.7714  1.7414 -1.6326
  127MOL   H27140843   4.342   0.566   7.960 -0.3892 -0.7198 -0.0786
  127MOL   H27240844   4.428   0.567   7.695  0.9435  1.1851 -1.9232
  127MOL   H27340845   4.330   0.692   7.765 -1.8333 -1.0630 -2.3544
  127MOL   C27440846   4.443   0.762   7.590 -0.0463 -0.1451  0.0004
  127MOL   C27540847   4.587   0.756   7.535  0.0254 -0.0722 -0.8102
  127MOL   C27640848   4.647   0.878   7.499  0.1624  0.2608 -0.0854
  127MOL   C27740849   4.774   0.886   7.458  0.4809 -0.7946  0.0454
  127MOL   C27840850   4.850   0.768   7.443 -0.0292  0.3345 -0.5832
  127MOL  Cl27940851   5.001   0.764   7.373 -0.0190  0.2273  0.1989
  127MOL   C28040852   4.792   0.645   7.481 -0.1430  0.1346  0.2030
  127MOL   C28140853   4.662   0.637   7.525  0.6029  0.0578  0.6369
  127MOL   C28240854   4.343   0.710   7.482  0.5277  0.1217  0.0596
  127MOL   H28340855   4.432   0.868   7.609  1.2489 -0.1586  0.8645
  127MOL   H28440856   4.592   0.972   7.501  2.4435  1.6408 -0.4433
  127MOL   H28540857   4.812   0.983   7.428 -0.6626 -0.5753 -0.7314
  127MOL   H28640858   4.861   0.562   7.481 -0.4784 -0.1749  1.9649
  127MOL   H28740859   4.632   0.535   7.546  3.3937 -1.3192 -1.6836
  127MOL   H28840860   4.395   0.651   7.406  0.4158  0.5143 -0.3214
  127MOL   H28940861   4.284   0.625   7.517  0.2367  0.3567  0.1343
  127MOL   C29040862   4.246   0.817   7.432  0.9121  0.7226  0.1395
  127MOL   C29140863   4.309   0.941   7.366 -0.2425  0.7457  0.1858
  127MOL   C29240864   4.405   0.930   7.261  0.2916  1.0646  0.0780
  127MOL   C29340865   4.462   1.048   7.215 -0.1684 -0.1124 -0.1378
  127MOL   C29440866   4.431   1.179   7.266  0.2146 -0.0226 -0.4210
  127MOL  Cl29540867   4.509   1.320   7.204  0.4812  0.2606 -0.2345
  127MOL   C29640868   4.337   1.190   7.370  0.5581 -0.3967 -0.6418
  127MOL   C29740869   4.275   1.071   7.412  0.3166  0.5271  0.4910
  127MOL   C29840870   4.139   0.748   7.332 -0.3591  0.0799 -0.1585
  127MOL   H29940871   4.194   0.848   7.522 -0.1540 -0.2100 -0.1449
  127MOL   H30040872   4.431   0.833   7.221 -0.6018  0.6943  0.3868
  127MOL   H30140873   4.527   1.045   7.129 -0.2109 -0.8330 -0.1431
  127MOL   H30240874   4.316   1.290   7.404 -1.5903 -0.9683 -0.2650
  127MOL   H30340875   4.214   1.087   7.500 -0.0373 -0.3586  0.4076
  127MOL   H30440876   4.180   0.714   7.237  0.2111  1.4970 -0.4236
  127MOL   H30540877   4.104   0.651   7.368  0.6479 -0.5644 -0.8953
  127MOL   C30640878   4.013   0.830   7.301  0.7271 -0.3002  0.1864
  127MOL   C30740879   3.908   0.749   7.231  0.4059 -0.5349  0.4144
  127MOL   C30840880   3.845   0.796   7.115  0.0481 -0.4378  0.4621
  127MOL   C30940881   3.741   0.723   7.050 -0.0066  0.3640 -0.1994
  127MOL   C31040882   3.694   0.607   7.112 -0.6071 -0.0671 -1.4397
  127MOL  Cl31140883   3.558   0.534   7.041 -0.0534  0.1768 -0.3519
  127MOL   C31240884   3.754   0.556   7.226  0.0407 -0.2490  0.3557
  127MOL   C31340885   3.867   0.626   7.280 -0.4464  0.0413  0.1350
  127MOL   C31440886   3.942   0.891   7.417  0.0570  0.0293 -0.0664
  127MOL   H31540887   4.038   0.916   7.240 -0.2426  0.9304  1.5006
  127MOL   H31640888   3.872   0.895   7.079  0.0670 -1.1313 -1.4827
  127MOL   H31740889   3.706   0.766   6.957  1.5170  1.1503 -0.4383
  127MOL   H31840890   3.723   0.461   7.268 -1.5488 -0.1506 -0.5647
  127MOL   H31940891   3.901   0.587   7.375  0.1523 -1.1875 -0.5624
  127MOL   H32040892   3.909   0.815   7.488 -0.0734  1.0165  0.9453
  127MOL   H32140893   4.014   0.959   7.462 -1.0468  0.0797  1.6603
  127MOL   H32240894   3.861   0.955   7.383 -0.6599 -0.3476  0.8983
  128MOL     C140895   2.239   1.429   5.454  0.1216  0.1012  0.3384
  128MOL     C240896   2.197   1.402   5.597 -0.3570 -0.5009 -0.1219
  128MOL     C340897   2.251   1.481   5.706 -0.1837  0.5561  0.6641
  128MOL     C440898   2.187   1.476   5.831  0.0194  0.1865 -0.8599
  128MOL     C540899   2.090   1.383   5.859 -0.4909  0.3829 -0.1110
  128MOL    Cl640900   2.021   1.366   6.017  0.3192 -0.2400 -0.2831
  128MOL     C740901   2.052   1.293   5.756 -0.6278  0.3952 -0.3754
  128MOL     C840902   2.100   1.303   5.619 -0.4282  0.2766 -0.7060
  128MOL     C940903   2.355   1.327   5.411 -0.1981  0.4541 -0.3040
  128MOL    H1040904   2.287   1.526   5.465  0.8222 -0.2995  0.8440
  128MOL    H1140905   2.336   1.546   5.690  0.4618 -1.0775 -3.0712
  128MOL    H1240906   2.226   1.533   5.914 -1.0231 -1.2966  0.6849
  128MOL    H1340907   1.980   1.221   5.792 -2.9283  2.5304 -0.5634
  128MOL    H1440908   2.076   1.233   5.541  0.8123 -1.0836  0.1156
  128MOL    H1540909   2.445   1.366   5.459  0.3319 -0.9134 -0.1411
  128MOL    H1640910   2.328   1.227   5.447 -1.1558  0.3035 -1.4355
  128MOL    H1740911   2.154   1.433   5.385 -1.1648  1.9206  1.9581
  128MOL    C1840912   2.386   1.311   5.259  0.2830 -0.2720  0.4354
  128MOL    C1940913   2.448   1.445   5.215 -0.1329 -0.3822  0.0323
  128MOL    C2040914   2.578   1.484   5.249  0.0720 -0.3626  0.1626
  128MOL    C2140915   2.627   1.609   5.212 -0.0100  0.1357 -0.7332
  128MOL    C2240916   2.545   1.695   5.141 -0.0258 -0.0786  0.0361
  128MOL   Cl2340917   2.605   1.856   5.113 -0.1407 -0.1594 -0.2008
  128MOL    C2440918   2.414   1.666   5.109 -0.3995 -0.0046  0.1784
  128MOL    C2540919   2.368   1.542   5.146 -0.2433 -0.4731 -0.4923
  128MOL    C2640920   2.469   1.190   5.224 -0.0320  0.0067  0.5403
  128MOL    H2740921   2.291   1.297   5.207  1.2371 -0.9662 -1.1735
  128MOL    H2840922   2.628   1.425   5.325 -1.5225  0.0469  1.5637
  128MOL    H2940923   2.724   1.641   5.249 -1.1264  2.0108  0.7023
  128MOL    H3040924   2.351   1.733   5.053 -1.6662  1.2649  2.9852
  128MOL    H3140925   2.267   1.513   5.119 -0.3040 -2.1048  1.4103
  128MOL    H3240926   2.492   1.198   5.118 -1.3191  0.6537  0.3024
  128MOL    H3340927   2.562   1.201   5.279  0.5204  0.8550 -0.5480
  128MOL    C3440928   2.414   1.052   5.263  0.7902  0.0393  0.4076
  128MOL    C3540929   2.279   1.033   5.196 -0.2566 -0.1135  0.8288
  128MOL    C3640930   2.163   1.034   5.281  0.2301  0.1099 -0.6171
  128MOL    C3740931   2.040   1.044   5.217  0.3086 -0.3066  0.4972
  128MOL    C3840932   2.021   1.032   5.076 -0.2206 -0.3101 -0.0410
  128MOL   Cl3940933   1.869   1.045   4.992  0.2262  0.2331 -0.1674
  128MOL    C4040934   2.135   1.001   4.998 -0.0728 -0.0010  0.3426
  128MOL    C4140935   2.263   1.017   5.056  0.4598 -0.7755 -0.0516
  128MOL    C4240936   2.521   0.945   5.226 -0.4375 -0.5550 -0.9892
  128MOL    H4340937   2.399   1.044   5.371  2.0526 -0.4390  0.5595
  128MOL    H4440938   2.175   1.044   5.388  3.6650  2.0877 -1.0844
  128MOL    H4540939   1.949   1.067   5.271  0.1341  2.0356 -0.7212
  128MOL    H4640940   2.130   0.989   4.890  1.3566  1.4032  0.1111
  128MOL    H4740941   2.351   1.009   4.995  0.9956  0.1902  0.5779
  128MOL    H4840942   2.572   0.981   5.137 -0.5564  2.2741  0.0530
  128MOL    H4940943   2.597   0.942   5.304 -0.0177 -2.9237 -1.4298
  128MOL    C5040944   2.483   0.801   5.198 -0.0858  0.1138  0.5214
  128MOL    C5140945   2.586   0.727   5.107  0.0199 -0.0766 -0.1330
  128MOL    C5240946   2.720   0.721   5.150 -0.0529 -0.3734  0.0029
  128MOL    C5340947   2.814   0.654   5.070  0.4731  0.0702 -0.1506
  128MOL    C5440948   2.775   0.596   4.944  0.5842 -0.7168  0.0712
  128MOL   Cl5540949   2.886   0.508   4.841  0.1464 -0.4046 -0.0309
  128MOL    C5640950   2.639   0.607   4.903  0.6289  0.0797  0.8185
  128MOL    C5740951   2.544   0.677   4.981 -0.1019 -0.9795  0.3080
  128MOL    C5840952   2.448   0.716   5.329 -0.3724  0.5955 -0.6606
  128MOL    H5940953   2.394   0.802   5.135  0.4992  0.3644 -0.3117
  128MOL    H6040954   2.740   0.760   5.249  3.1160 -2.5869  0.2714
  128MOL    H6140955   2.916   0.647   5.104  0.6376 -2.6072 -1.0424
  128MOL    H6240956   2.601   0.559   4.813  1.5147  0.7759  0.0621
  128MOL    H6340957   2.440   0.684   4.954  0.4579 -0.4672 -1.8304
  128MOL    H6440958   2.534   0.705   5.395 -0.7712  0.2533 -0.1993
  128MOL    H6540959   2.378   0.781   5.381 -0.3402  0.8081 -0.8785
  128MOL    C6640960   2.365   0.581   5.305  0.2332  0.0255  0.1276
  128MOL    C6740961   2.433   0.467   5.229 -0.3287  0.1851 -0.3359
  128MOL    C6840962   2.563   0.425   5.265  0.2079 -0.0178 -0.8037
  128MOL    C6940963   2.619   0.305   5.211  0.0094  0.2940  0.4697
  128MOL    C7040964   2.558   0.242   5.109 -0.1768  0.4221  0.1348
  128MOL   Cl7140965   2.639   0.105   5.041  0.4213  0.5690  0.2087
  128MOL    C7240966   2.431   0.282   5.072  0.6037 -0.2341 -0.9747
  128MOL    C7340967   2.366   0.391   5.133 -0.1393  0.1085  0.0735
  128MOL    C7440968   2.301   0.521   5.433  0.4996  0.0590  0.0949
  128MOL    H7540969   2.281   0.608   5.241  0.3886  1.0572  0.3410
  128MOL    H7640970   2.602   0.486   5.345 -1.5766  1.7368 -1.2254
  128MOL    H7740971   2.717   0.271   5.238  0.1738  0.4129  0.0165
  128MOL    H7840972   2.369   0.224   5.004  0.1774 -1.9200  0.8144
  128MOL    H7940973   2.265   0.415   5.103 -0.0408 -1.1420 -1.3120
  128MOL    H8040974   2.270   0.418   5.412  0.2297 -0.0830  1.1706
  128MOL    H8140975   2.377   0.501   5.508 -0.5150  0.3463  1.2210
  128MOL    C8240976   2.172   0.583   5.490 -0.1208 -0.3267  0.6434
  128MOL    C8340977   2.058   0.578   5.391 -0.3020 -0.0293 -0.4854
  128MOL    C8440978   2.012   0.700   5.336  0.6114 -0.6033  0.1616
  128MOL    C8540979   1.922   0.702   5.232  0.0752  0.3698  0.6119
  128MOL    C8640980   1.873   0.581   5.177  0.5849  0.9594 -0.7621
  128MOL   Cl8740981   1.758   0.580   5.050  0.3073 -0.1502 -0.2671
  128MOL    C8840982   1.926   0.462   5.223  0.5752 -0.3833 -0.4050
  128MOL    C8940983   2.021   0.460   5.327  1.3566 -0.1876 -0.1644
  128MOL    C9040984   2.131   0.524   5.623 -0.0738 -0.0602  0.6392
  128MOL    H9140985   2.191   0.690   5.500 -1.0728 -0.0141 -0.7672
  128MOL    H9240986   2.033   0.797   5.379 -2.1054  1.4261 -2.8611
  128MOL    H9340987   1.878   0.796   5.202  1.2287  0.8457  0.3803
  128MOL    H9440988   1.890   0.367   5.186 -0.4903 -1.5807  3.4519
  128MOL    H9540989   2.045   0.361   5.363 -1.6199 -0.6495  0.6740
  128MOL    H9640990   2.083   0.436   5.581 -1.4298 -0.1901  2.4181
  128MOL    H9740991   2.210   0.488   5.688 -0.5531 -0.1080  1.2015
  128MOL    C9840992   2.032   0.597   5.708 -0.5511 -0.3534 -0.3582
  128MOL    C9940993   1.962   0.501   5.803  0.2624 -0.0445 -0.2924
  128MOL   C10040994   2.041   0.434   5.899 -0.4149  0.0646  0.2391
  128MOL   C10140995   1.985   0.372   6.008  0.4177  0.6299  0.1445
  128MOL   C10240996   1.846   0.356   6.008 -0.2971 -0.3264 -0.3320
  128MOL  Cl10340997   1.773   0.262   6.137 -0.5160  0.0016  0.0603
  128MOL   C10440998   1.764   0.414   5.909  0.0470 -0.2150 -0.2662
  128MOL   C10540999   1.821   0.492   5.809  0.1682  0.1430  0.4193
  128MOL   C10641000   2.098   0.723   5.783 -0.2654  1.1793  0.4513
  128MOL   H10741001   1.959   0.636   5.636  1.9027  1.5676 -1.9017
  128MOL   H10841002   2.149   0.444   5.894 -0.5910  3.3306  1.7092
  128MOL   H10941003   2.043   0.325   6.086 -0.0317  1.1533  0.7999
  128MOL   H11041004   1.656   0.411   5.909  0.0329 -0.0067  1.6761
  128MOL   H11141005   1.757   0.548   5.743 -0.3542 -1.4289 -0.4142
  128MOL   H11241006   2.194   0.683   5.813 -1.3454 -0.7516  1.4287
  128MOL   H11341007   2.121   0.804   5.713 -0.1407 -0.0438 -0.9362
  128MOL   C11441008   2.039   0.784   5.912 -0.4172 -0.2222  0.2966
  128MOL   C11541009   2.135   0.869   5.991 -0.1969  0.2216 -0.6641
  128MOL   C11641010   2.165   1.003   5.949 -0.1526  0.8624  0.6161
  128MOL   C11741011   2.256   1.079   6.019 -0.0280  0.2462  0.0736
  128MOL   C11841012   2.317   1.024   6.136  0.2616 -0.1243  0.0459
  128MOL  Cl11941013   2.424   1.126   6.227  0.0938  0.1585 -0.1630
  128MOL   C12041014   2.275   0.899   6.188  0.7097  0.2350 -0.2550
  128MOL   C12141015   2.189   0.818   6.109 -0.1500 -0.8514 -0.3069
  128MOL   C12241016   1.901   0.847   5.891 -0.2906  0.6904  0.0873
  128MOL   H12341017   2.020   0.696   5.975 -0.2271 -0.8119 -0.4602
  128MOL   H12441018   2.122   1.032   5.855  2.6480  2.1300 -0.3364
  128MOL   H12541019   2.299   1.170   5.980  0.6082 -0.1889 -0.2670
  128MOL   H12641020   2.305   0.863   6.286 -0.2961  1.6796  0.5950
  128MOL   H12741021   2.139   0.735   6.157  0.5097 -1.3298 -0.4416
  128MOL   H12841022   1.915   0.951   5.862  0.6548  0.9668  1.4634
  128MOL   H12941023   1.862   0.791   5.807  2.1862  0.2578 -0.7963
  128MOL   C13041024   1.801   0.846   6.007  0.6792  0.1072 -0.1110
  128MOL   C13141025   1.859   0.903   6.131  0.6671  0.1072  0.2736
  128MOL   C13241026   1.887   1.039   6.130 -0.0255  0.7742  0.7404
  128MOL   C13341027   1.936   1.105   6.254 -0.1912  0.3983 -0.9212
  128MOL   C13441028   1.957   1.026   6.366  0.1416  0.6583  0.3306
  128MOL  Cl13541029   1.997   1.094   6.524  0.0386  0.0131 -0.2142
  128MOL   C13641030   1.940   0.890   6.359 -0.3200 -0.4754  0.3408
  128MOL   C13741031   1.889   0.829   6.246  0.4972  0.1028 -0.1971
  128MOL   C13841032   1.660   0.896   5.978 -0.5510 -0.0710  0.1721
  128MOL   H13941033   1.791   0.741   6.032  1.2050 -0.2885 -1.4943
  128MOL   H14041034   1.870   1.096   6.040 -0.4563  0.3383  0.5466
  128MOL   H14141035   1.945   1.213   6.265 -0.8005  0.2158  1.6788
  128MOL   H14241036   1.954   0.845   6.456  0.8424  0.6135  0.6913
  128MOL   H14341037   1.869   0.723   6.255 -1.2934  0.5027  0.6524
  128MOL   H14441038   1.663   0.991   5.923 -0.3165 -0.1300  0.0824
  128MOL   H14541039   1.623   0.833   5.897  1.4173 -0.1246 -0.7258
  128MOL   C14641040   1.561   0.900   6.097 -0.6673 -0.3318  0.5851
  128MOL   C14741041   1.458   1.016   6.081 -0.2769 -0.1975  0.3414
  128MOL   C14841042   1.376   1.011   5.966 -0.0873  0.5423 -0.0099
  128MOL   C14941043   1.273   1.106   5.947  0.4441 -0.6516 -0.1643
  128MOL   C15041044   1.267   1.212   6.040 -0.5236  0.1479  0.0424
  128MOL  Cl15141045   1.147   1.333   6.029  0.0908  0.2945 -0.2071
  128MOL   C15241046   1.353   1.220   6.153 -0.0295  0.4277 -0.0722
  128MOL   C15341047   1.440   1.117   6.177  0.9708  0.2220 -0.5792
  128MOL   C15441048   1.509   0.762   6.133  0.1695  0.3276 -0.1821
  128MOL   H15541049   1.623   0.942   6.176 -4.2876 -0.3529  3.5393
  128MOL   H15641050   1.383   0.929   5.895 -1.1521 -0.8226  1.4179
  128MOL   H15741051   1.200   1.086   5.870  0.1369  1.9550 -0.5986
  128MOL   H15841052   1.341   1.306   6.217 -1.9797  0.4389 -0.4218
  128MOL   H15941053   1.510   1.131   6.259 -2.0618  2.1610  1.8021
  128MOL   H16041054   1.402   0.753   6.116  0.0941  0.0581  0.4282
  128MOL   H16141055   1.564   0.690   6.072  1.3515  1.1383 -0.0903
  128MOL   C16241056   1.543   0.721   6.282 -0.1188  0.1666 -0.4710
  128MOL   C16341057   1.484   0.820   6.386  0.2183 -0.5183  0.5475
  128MOL   C16441058   1.352   0.796   6.441  0.3111 -1.2897 -0.3256
  128MOL   C16541059   1.296   0.878   6.545 -0.2044 -0.0260 -0.7632
  128MOL   C16641060   1.374   0.987   6.598  0.2294  0.1417 -0.7894
  128MOL  Cl16741061   1.311   1.095   6.716 -0.6237 -0.7141  0.1608
  128MOL   C16841062   1.501   1.008   6.544 -0.6741  0.1628 -0.4631
  128MOL   C16941063   1.557   0.930   6.443  1.0338  0.3072 -0.1129
  128MOL   C17041064   1.528   0.566   6.307  0.1240  0.6387 -0.5743
  128MOL   H17141065   1.650   0.742   6.287  0.4291 -2.2108 -1.7466
  128MOL   H17241066   1.297   0.712   6.401 -1.6138 -0.0956 -0.2431
  128MOL   H17341067   1.198   0.848   6.578 -0.6053  0.5381 -1.4093
  128MOL   H17441068   1.568   1.080   6.588  0.6954 -1.6107  0.4471
  128MOL   H17541069   1.654   0.956   6.404 -0.2145  1.2234 -2.7569
  128MOL   H17641070   1.426   0.542   6.274 -0.9089 -0.5002  3.2492
  128MOL   H17741071   1.597   0.517   6.238 -0.9361  0.5248 -1.5698
  128MOL   C17841072   1.549   0.516   6.451  0.3045 -0.3332  0.1869
  128MOL   C17941073   1.476   0.389   6.488  0.3105  0.2774 -0.3274
  128MOL   C18041074   1.419   0.375   6.615  0.1243 -0.0556 -0.6225
  128MOL   C18141075   1.348   0.259   6.648 -0.5366  0.3821 -0.5844
  128MOL   C18241076   1.314   0.163   6.549 -0.0496  0.7391 -0.7306
  128MOL  Cl18341077   1.207   0.039   6.591  0.0785 -0.2621  0.0583
  128MOL   C18441078   1.377   0.179   6.426 -0.0954 -0.3904 -0.5472
  128MOL   C18541079   1.454   0.287   6.397  0.1614 -0.3003 -0.0920
  128MOL   C18641080   1.701   0.491   6.474  0.9617 -0.4596  0.4460
  128MOL   H18741081   1.505   0.583   6.525  0.0257 -1.4209  1.0227
  128MOL   H18841082   1.445   0.448   6.691  0.0378  0.5527 -1.1748
  128MOL   H18941083   1.317   0.255   6.751  1.1611  3.4257  0.1282
  128MOL   H19041084   1.381   0.103   6.349 -0.2132 -2.1695  1.1741
  128MOL   H19141085   1.498   0.303   6.300  0.4121  0.2883  0.1141
  128MOL   H19241086   1.716   0.394   6.427  0.1464 -1.4503  2.1715
  128MOL   H19341087   1.764   0.562   6.421 -0.3462  0.7389  0.4886
  128MOL   C19441088   1.761   0.479   6.614 -0.1238  0.3326 -0.0795
  128MOL   C19541089   1.877   0.378   6.605 -0.5628  0.5401 -0.2102
  128MOL   C19641090   1.854   0.240   6.607  0.1768 -0.1354  0.0515
  128MOL   C19741091   1.949   0.150   6.569 -0.5457  1.1447 -0.5361
  128MOL   C19841092   2.077   0.190   6.543 -0.4404 -0.2239  0.3567
  128MOL  Cl19941093   2.199   0.077   6.491 -0.1709  0.0435  0.1456
  128MOL   C20041094   2.115   0.324   6.556 -0.0746 -0.6934 -0.3174
  128MOL   C20141095   2.011   0.418   6.577  0.4678  0.2311  0.2907
  128MOL   C20241096   1.785   0.613   6.678 -0.3473  0.5121  0.2808
  128MOL   H20341097   1.696   0.414   6.673  0.3505  0.5399  0.6765
  128MOL   H20441098   1.753   0.211   6.632  0.6155 -0.8739  0.9979
  128MOL   H20541099   1.930   0.044   6.553  1.4359  0.9191 -1.5617
  128MOL   H20641100   2.220   0.346   6.542 -0.7266  1.6094 -1.7727
  128MOL   H20741101   2.032   0.523   6.573 -0.9883  0.6291  2.4324
  128MOL   H20841102   1.849   0.675   6.614 -2.6769  1.7885 -0.9182
  128MOL   H20941103   1.691   0.668   6.684 -0.6324 -0.1869  2.8036
  128MOL   C21041104   1.841   0.616   6.824  0.4298  0.1126  0.3104
  128MOL   C21141105   1.895   0.759   6.845 -0.3588  0.1474 -0.6601
  128MOL   C21241106   2.031   0.781   6.864 -0.0048  0.0786  0.0264
  128MOL   C21341107   2.081   0.908   6.909 -0.1662 -0.2540 -0.4009
  128MOL   C21441108   1.993   1.015   6.901  0.2330 -0.3072  0.5521
  128MOL  Cl21541109   2.044   1.178   6.910  0.0357  0.3599  0.0585
  128MOL   C21641110   1.857   0.995   6.876 -0.1362 -0.1232  0.7324
  128MOL   C21741111   1.809   0.867   6.860 -0.5767  0.0077 -0.1134
  128MOL   C21841112   1.733   0.573   6.926  0.6901  0.6965 -1.1984
  128MOL   H21941113   1.923   0.543   6.825 -0.9997 -1.5163  2.0474
  128MOL   H22041114   2.100   0.698   6.866  1.0333  0.7907 -3.0279
  128MOL   H22141115   2.186   0.921   6.929 -0.5684  2.5964 -0.0412
  128MOL   H22241116   1.790   1.079   6.868  1.9353  1.4978 -0.0706
  128MOL   H22341117   1.704   0.852   6.839 -1.0824 -0.4918  2.6366
  128MOL   H22441118   1.646   0.637   6.938 -0.6973 -0.9454 -2.2443
  128MOL   H22541119   1.697   0.476   6.891  1.0906  0.3380 -0.6462
  128MOL   C22641120   1.790   0.542   7.072  0.6377  0.3642  0.1927
  128MOL   C22741121   1.799   0.663   7.156  0.2561 -0.2363 -0.4981
  128MOL   C22841122   1.690   0.717   7.222 -0.5335 -0.6872  0.6056
  128MOL   C22941123   1.706   0.837   7.301  0.5336 -0.2187 -0.0539
  128MOL   C23041124   1.833   0.887   7.327 -0.4485  0.2002 -0.1062
  128MOL  Cl23141125   1.854   1.011   7.441  0.2669 -0.0738 -0.0804
  128MOL   C23241126   1.941   0.827   7.259  0.6532 -0.4514 -0.0794
  128MOL   C23341127   1.929   0.715   7.174  0.2476  0.6002  0.0776
  128MOL   C23441128   1.709   0.428   7.140  0.7347 -0.5067 -0.0357
  128MOL   H23541129   1.890   0.500   7.058  0.3371 -0.5481  0.7424
  128MOL   H23641130   1.591   0.672   7.215  0.2780 -2.2792 -1.2321
  128MOL   H23741131   1.621   0.880   7.351 -0.0498 -1.0679 -0.3247
  128MOL   H23841132   2.035   0.874   7.285  1.9481 -2.6134 -0.7624
  128MOL   H23941133   2.019   0.667   7.140 -0.2854  0.5183 -1.2405
  128MOL   H24041134   1.741   0.426   7.244  0.6100 -0.5379  0.0026
  128MOL   H24141135   1.606   0.465   7.140  0.7614 -0.3219 -3.0626
  128MOL   C24241136   1.717   0.283   7.092 -0.4634  0.6483  0.0295
  128MOL   C24341137   1.857   0.242   7.070 -0.5184  0.1695  0.7053
  128MOL   C24441138   1.892   0.166   6.952 -0.4456 -1.0479  0.8587
  128MOL   C24541139   2.023   0.118   6.945 -0.3504  0.0256  0.3004
  128MOL   C24641140   2.121   0.148   7.032 -0.0566  0.1867 -1.0713
  128MOL  Cl24741141   2.281   0.096   7.009  0.3914  0.1318 -0.0417
  128MOL   C24841142   2.086   0.227   7.141 -0.0211  0.4685 -0.1076
  128MOL   C24941143   1.956   0.271   7.166  0.6024 -0.5688 -1.2138
  128MOL   C25041144   1.642   0.195   7.194 -0.0875 -0.1733  0.1792
  128MOL   H25141145   1.650   0.273   7.007 -0.4526  2.5921 -0.2424
  128MOL   H25241146   1.820   0.133   6.879  0.1747 -2.6616  0.9370
  128MOL   H25341147   2.052   0.049   6.867 -0.6658 -0.9129  1.0013
  128MOL   H25441148   2.154   0.252   7.221  0.8063 -1.5782 -0.1486
  128MOL   H25541149   1.937   0.324   7.257 -2.6086 -0.8924 -1.6371
  128MOL   H25641150   1.716   0.178   7.273  0.8995  1.2880 -0.4114
  128MOL   H25741151   1.559   0.245   7.244 -0.7950 -0.0518 -1.0953
  128MOL   C25841152   1.589   0.057   7.140  0.0772 -0.1343 -0.0571
  128MOL   C25941153   1.608   8.384   7.237  0.3792  0.2732 -0.0300
  128MOL   C26041154   1.532   8.361   7.356 -0.1852  0.0490 -0.1735
  128MOL   C26141155   1.563   8.245   7.436  0.1271 -0.1086  0.7415
  128MOL   C26241156   1.677   8.168   7.418  0.5751 -0.3017 -0.2571
  128MOL  Cl26341157   1.708   8.054   7.541 -0.4347  0.5134 -0.2686
  128MOL   C26441158   1.756   8.192   7.306  0.0877 -0.1038  0.4547
  128MOL   C26541159   1.719   8.295   7.210 -0.0117 -0.0927  1.0042
  128MOL   C26641160   1.448   0.073   7.084 -0.2609 -0.1221 -0.0853
  128MOL   H26741161   1.653   0.035   7.055 -0.4020  1.9388 -0.9981
  128MOL   H26841162   1.446   8.424   7.376  0.1675  0.4297  0.1497
  128MOL   H26941163   1.512   8.231   7.530 -0.4750  0.8060  0.5535
  128MOL   H27041164   1.843   8.130   7.288 -0.7012 -1.4400  1.1602
  128MOL   H27141165   1.788   8.327   7.133 -2.8432  1.9183 -0.8058
  128MOL   H27241166   1.380   0.086   7.168 -2.4226 -0.1507 -1.7925
  128MOL   H27341167   1.426   0.164   7.028 -1.9307 -0.0900  0.5900
  128MOL   C27441168   1.402   8.396   6.999  0.1210 -0.2406  0.4858
  128MOL   C27541169   1.249   8.384   6.982 -0.5319  0.6197 -0.4065
  128MOL   C27641170   1.170   0.060   6.958  0.0245  0.5472 -0.0757
  128MOL   C27741171   1.032   0.046   6.958 -0.0713  0.1582  0.7707
  128MOL   C27841172   0.977   8.363   6.975  0.6854 -0.2481  0.3533
  128MOL  Cl27941173   0.808   8.365   6.993 -0.0667 -0.1090 -0.0579
  128MOL   C28041174   1.051   8.247   7.000  0.0084 -0.2611  0.1988
  128MOL   C28141175   1.190   8.257   7.001  0.3441  0.4522 -0.0095
  128MOL   C28241176   1.465   8.402   6.860 -0.7704  0.1661  0.9187
  128MOL   H28341177   1.432   8.310   7.058 -1.0144  1.2160  3.2873
  128MOL   H28441178   1.208   0.159   6.938 -1.4506  0.8202 -1.6800
  128MOL   H28541179   0.970   0.135   6.947 -0.0249  0.1102  0.0885
  128MOL   H28641180   1.010   8.151   7.027 -0.5540 -0.6875 -2.0491
  128MOL   H28741181   1.240   8.167   7.035 -0.2415  0.7812  1.8195
  128MOL   H28841182   1.397   0.018   6.798 -0.1855  1.2990  1.3568
  128MOL   H28941183   1.558   0.014   6.865 -0.9917  0.4572  1.8037
  128MOL   C29041184   1.500   8.265   6.798  1.1745  0.1042  0.8005
  128MOL   C29141185   1.527   8.283   6.656 -1.0068  0.0496  0.2765
  128MOL   C29241186   1.641   8.353   6.617  0.0836 -0.3632 -1.1539
  128MOL   C29341187   1.677   8.353   6.478  0.7071 -0.1421 -0.0970
  128MOL   C29441188   1.587   8.297   6.380 -0.4041  0.1476 -0.0396
  128MOL  Cl29541189   1.621   8.316   6.217 -0.6761 -0.6679  0.0905
  128MOL   C29641190   1.466   8.235   6.413 -0.9133  0.7865 -0.8397
  128MOL   C29741191   1.439   8.229   6.554 -0.3461 -0.2301  0.3675
  128MOL   C29841192   1.616   8.195   6.880 -0.4257 -0.0293  0.9100
  128MOL   H29941193   1.409   8.206   6.803  0.8786  0.3270 -1.2715
  128MOL   H30041194   1.716   8.379   6.689  1.5191 -1.1472 -2.3407
  128MOL   H30141195   1.774   8.390   6.446  1.5436 -2.2030  0.0175
  128MOL   H30241196   1.391   8.187   6.352 -2.6982  0.1267  1.7796
  128MOL   H30341197   1.351   8.171   6.580 -0.6088  0.7487  1.7064
  128MOL   H30441198   1.712   8.246   6.868  0.4672 -1.9045 -0.2922
  128MOL   H30541199   1.598   8.188   6.987  0.1436  0.1625  1.0195
  128MOL   C30641200   1.640   8.047   6.839  0.1410 -0.3241 -0.1620
  128MOL   C30741201   1.734   7.987   6.942 -0.0076 -0.7047  0.9309
  128MOL   C30841202   1.869   7.967   6.908 -0.0638 -0.3520 -0.2931
  128MOL   C30941203   1.952   7.897   7.000  0.1651 -0.1030 -0.0554
  128MOL   C31041204   1.905   7.859   7.126 -0.6884  0.2968 -0.5002
  128MOL  Cl31141205   2.000   7.768   7.234 -0.0171 -0.0659 -0.1113
  128MOL   C31241206   1.771   7.881   7.165  0.2545 -0.6828 -0.5059
  128MOL   C31341207   1.688   7.948   7.071  0.0888  0.5285 -0.2080
  128MOL   C31441208   1.520   7.950   6.816 -0.9710  0.3927 -0.5694
  128MOL   H31541209   1.696   8.055   6.746 -0.0738  0.8630 -0.2002
  128MOL   H31641210   1.919   7.990   6.815 -0.5300 -3.1690 -1.2780
  128MOL   H31741211   2.054   7.871   6.976 -0.3281 -1.1752 -0.9961
  128MOL   H31841212   1.743   7.851   7.264 -1.3960  0.9648 -0.4502
  128MOL   H31941213   1.588   7.979   7.099 -0.2863  1.8115 -2.8242
  128MOL   H32041214   1.551   7.846   6.814 -1.8861  0.1248 -1.1732
  128MOL   H32141215   1.443   7.950   6.894  0.2778  0.6366  0.6845
  128MOL   H32241216   1.470   7.957   6.719 -1.4078 -0.0696 -0.3816
  129MOL     C141217   8.356   1.601   6.881 -0.0470  0.1660 -0.7400
  129MOL     C241218   8.353   1.740   6.939 -0.5315 -0.5308 -0.2410
  129MOL     C341219   0.031   1.805   6.976  0.6797  0.1672 -0.0547
  129MOL     C441220   0.039   1.935   7.022 -0.7701  0.3170 -0.2827
  129MOL     C541221   8.359   2.003   7.052  0.1016  0.2005 -0.5678
  129MOL    Cl641222   8.356   2.170   7.118  0.1830  0.1205  0.0909
  129MOL     C741223   8.234   1.944   7.013 -0.4784 -0.5064 -0.7902
  129MOL     C841224   8.232   1.812   6.957  0.2152  0.3242  0.3360
  129MOL     C941225   8.276   1.500   6.973 -0.2190 -0.3303  0.7734
  129MOL    H1041226   0.016   1.572   6.863  0.6488  2.3625 -0.4048
  129MOL    H1141227   0.126   1.757   6.957  1.0372  0.6030  0.6400
  129MOL    H1241228   0.134   1.977   7.052 -0.1704 -0.1718 -1.4576
  129MOL    H1341229   8.144   1.999   7.036  0.4162  0.6769 -0.0732
  129MOL    H1441230   8.135   1.766   6.940  0.7455 -1.1423  1.1918
  129MOL    H1541231   8.288   1.536   7.075  1.5274  1.8305 -0.1390
  129MOL    H1641232   8.169   1.498   6.955 -0.3228 -1.6555  1.4532
  129MOL    H1741233   8.309   1.596   6.783 -0.2330  0.4720 -0.6658
  129MOL    C1841234   8.319   1.355   6.977  0.9482  0.6516  0.6241
  129MOL    C1941235   8.281   1.272   6.850 -0.2435 -0.0449  0.3088
  129MOL    C2041236   8.168   1.182   6.857 -0.2071  0.7202 -0.3460
  129MOL    C2141237   8.129   1.105   6.746  0.8546  0.2604 -0.4871
  129MOL    C2241238   8.198   1.122   6.624  0.1535 -0.8142  0.4678
  129MOL   Cl2341239   8.151   1.023   6.489 -0.1718 -0.3532 -0.1026
  129MOL    C2441240   8.310   1.203   6.618 -0.3085  0.7088 -0.3460
  129MOL    C2541241   8.347   1.286   6.725 -0.2658 -0.3623  0.4594
  129MOL    C2641242   0.015   1.319   7.029  0.3910 -0.3048  0.2183
  129MOL    H2741243   8.255   1.311   7.053 -1.7039 -0.5317 -2.1549
  129MOL    H2841244   8.105   1.163   6.943 -0.1049 -0.9592 -0.6194
  129MOL    H2941245   8.050   1.031   6.743  1.3618 -0.4043  1.7442
  129MOL    H3041246   8.383   1.202   6.539 -0.4659  1.9373 -0.5189
  129MOL    H3141247   8.428   1.357   6.723  0.0961 -0.7643  0.9425
  129MOL    H3241248   0.034   1.215   7.004  2.5179  0.0008  0.4904
  129MOL    H3341249   0.088   1.378   6.974  0.6676  0.1607  1.0719
  129MOL    C3441250   0.045   1.332   7.181 -0.0799  0.0862  0.2215
  129MOL    C3541251   8.405   1.236   7.265  0.3653 -0.4980  0.2052
  129MOL    C3641252   8.432   1.095   7.256  0.4243 -0.1318  0.2082
  129MOL    C3741253   8.365   1.009   7.348  0.4363 -0.0889 -0.7138
  129MOL    C3841254   8.269   1.061   7.440 -0.2361  0.0310 -0.1770
  129MOL   Cl3941255   8.192   0.951   7.547  0.0125 -0.0776  0.2087
  129MOL    C4041256   8.223   1.194   7.433 -0.0321  0.3823  0.3267
  129MOL    C4141257   8.295   1.279   7.341  0.0269 -0.6572 -0.2224
  129MOL    C4241258   0.196   1.322   7.217 -0.0973  0.1754  0.1566
  129MOL    H4341259   0.019   1.436   7.202 -0.0276  0.0695  0.3724
  129MOL    H4441260   0.061   1.059   7.184  0.8113  1.6538 -0.3200
  129MOL    H4541261   8.398   0.907   7.361 -0.7860 -0.6895 -2.1955
  129MOL    H4641262   8.145   1.227   7.499 -1.5050  0.9337 -1.6588
  129MOL    H4741263   8.267   1.383   7.338 -1.2573 -0.9360  0.9351
  129MOL    H4841264   0.230   1.275   7.309 -0.4533 -0.5126 -0.0650
  129MOL    H4941265   0.247   1.274   7.134 -1.2870 -1.3874  0.3084
  129MOL    C5041266   0.268   1.463   7.236  0.2298  0.1240  0.3982
  129MOL    C5141267   0.215   1.519   7.366 -0.1132  0.6507  0.4221
  129MOL    C5241268   0.129   1.636   7.361 -0.4321 -0.3846 -0.0854
  129MOL    C5341269   0.066   1.677   7.482 -0.2332 -0.0414  0.0446
  129MOL    C5441270   0.095   1.622   7.604 -0.3162  0.6181  0.7893
  129MOL   Cl5541271   0.034   1.684   7.747  0.1192  0.0220 -0.1275
  129MOL    C5641272   0.180   1.512   7.612 -0.6641  0.9523  0.0316
  129MOL    C5741273   0.244   1.464   7.494  0.1286  0.3195 -0.4227
  129MOL    C5841274   0.424   1.462   7.235  0.2541  0.0333 -0.1322
  129MOL    H5941275   0.234   1.530   7.157  1.2459  0.2875  0.0998
  129MOL    H6041276   0.105   1.685   7.267  1.6369  0.0386 -0.4188
  129MOL    H6141277   0.011   1.770   7.471 -1.5025 -0.5454  1.8867
  129MOL    H6241278   0.194   1.463   7.707 -0.6357  0.6280 -0.1404
  129MOL    H6341279   0.309   1.379   7.513  1.2929  1.0333 -1.1779
  129MOL    H6441280   0.453   1.415   7.329 -1.0862 -0.4129  0.0590
  129MOL    H6541281   0.464   1.386   7.167  1.2231  1.0379 -0.7028
  129MOL    C6641282   0.498   1.601   7.221 -0.1879 -1.1505 -0.5378
  129MOL    C6741283   0.648   1.595   7.250  0.0361  0.0414  0.1356
  129MOL    C6841284   0.722   1.515   7.161  0.1872 -0.0621  0.1586
  129MOL    C6941285   0.864   1.497   7.177  0.1921 -0.2127  0.5694
  129MOL    C7041286   0.921   1.561   7.288 -0.6098 -0.0282 -0.3637
  129MOL   Cl7141287   1.089   1.538   7.327  0.4996 -0.0820 -0.0003
  129MOL    C7241288   0.843   1.643   7.377  0.2747 -0.0044 -0.6204
  129MOL    C7341289   0.708   1.661   7.362 -0.9007 -0.3286 -0.0462
  129MOL    C7441290   0.473   1.662   7.073  0.4380  0.3533 -0.1402
  129MOL    H7541291   0.446   1.669   7.289 -0.3539  0.3464 -2.1274
  129MOL    H7641292   0.677   1.475   7.071  0.3446  0.9244 -0.3698
  129MOL    H7741293   0.925   1.438   7.111  0.4248  1.6302 -0.9130
  129MOL    H7841294   0.897   1.696   7.454 -0.3840 -0.4167  0.1295
  129MOL    H7941295   0.654   1.718   7.436  0.1205 -0.8272  1.0963
  129MOL    H8041296   0.481   1.577   7.006  0.2219 -1.5620  2.1710
  129MOL    H8141297   0.370   1.697   7.077  0.3184 -0.0369  0.2668
  129MOL    C8241298   0.555   1.783   7.025 -0.8712  0.0456 -0.9254
  129MOL    C8341299   0.546   1.800   6.878  0.1853  0.6261  0.1519
  129MOL    C8441300   0.664   1.785   6.803 -0.6315 -0.2861  0.2793
  129MOL    C8541301   0.663   1.785   6.665  0.3181 -0.7580 -0.1895
  129MOL    C8641302   0.543   1.815   6.595 -0.0416 -0.5419  0.5036
  129MOL   Cl8741303   0.536   1.801   6.424  0.0483  0.2883  0.1831
  129MOL    C8841304   0.428   1.842   6.668 -0.6040 -1.1031 -0.4199
  129MOL    C8941305   0.431   1.830   6.808 -0.0229 -0.2300 -0.0470
  129MOL    C9041306   0.508   1.912   7.107 -0.1144 -0.0921  0.0374
  129MOL    H9141307   0.658   1.761   7.053 -1.3350 -0.6164  0.2923
  129MOL    H9241308   0.764   1.772   6.841 -1.4731 -1.1690  2.3036
  129MOL    H9341309   0.757   1.766   6.614  1.2953 -0.4486  1.4483
  129MOL    H9441310   0.328   1.849   6.629 -0.6210  1.5312 -0.0165
  129MOL    H9541311   0.334   1.831   6.855 -0.6748  0.1161 -1.3621
  129MOL    H9641312   0.403   1.938   7.092 -0.0564 -0.5096 -1.1396
  129MOL    H9741313   0.505   1.890   7.214 -3.3893 -1.8633 -0.3598
  129MOL    C9841314   0.593   2.041   7.091 -0.0998  0.6897  1.0764
  129MOL    C9941315   0.734   2.017   7.131  0.4214  0.7687 -0.4836
  129MOL   C10041316   0.832   1.979   7.038 -0.6239 -0.4068  0.5859
  129MOL   C10141317   0.971   1.975   7.070  0.4105 -0.0076  0.2797
  129MOL   C10241318   1.010   2.003   7.200  0.2728  0.3889 -0.8046
  129MOL  Cl10341319   1.174   2.013   7.246  0.3177 -0.3396 -0.5231
  129MOL   C10441320   0.908   2.018   7.299 -0.4292 -0.2922 -0.3851
  129MOL   C10541321   0.775   2.031   7.263 -0.5209 -0.3060 -0.4173
  129MOL   C10641322   0.575   2.140   6.965 -0.4484 -0.0886 -0.3706
  129MOL   H10741323   0.556   2.103   7.173 -1.6008  0.5227  0.5455
  129MOL   H10841324   0.795   1.964   6.938 -1.7572  0.4115  0.8738
  129MOL   H10941325   1.049   1.949   7.000 -0.4377 -0.3728 -0.5254
  129MOL   H11041326   0.934   2.027   7.404  0.0032 -1.0517 -0.4205
  129MOL   H11141327   0.708   2.059   7.343 -0.0406 -1.0575  0.2674
  129MOL   H11241328   0.636   2.227   6.989 -2.3393  0.6815  1.7448
  129MOL   H11341329   0.610   2.080   6.881 -1.7688  0.6497 -1.4629
  129MOL   C11441330   0.431   2.188   6.938 -0.0650 -0.3146  0.3665
  129MOL   C11541331   0.371   2.303   7.024  0.1031 -0.2769 -1.2797
  129MOL   C11641332   0.230   2.309   7.049  1.3582  0.0447 -0.1130
  129MOL   C11741333   0.182   2.429   7.114 -0.0154  0.3069  0.2652
  129MOL   C11841334   0.261   2.534   7.162 -0.1989 -0.6614  0.1775
  129MOL  Cl11941335   0.185   2.685   7.214 -0.0245  0.2140 -0.2726
  129MOL   C12041336   0.401   2.518   7.148 -0.1098 -0.3074  0.0553
  129MOL   C12141337   0.455   2.405   7.077 -0.0033 -0.5900 -0.2408
  129MOL   C12241338   0.404   2.214   6.787 -0.1012 -0.6464  0.6033
  129MOL   H12341339   0.370   2.104   6.970 -0.0949  0.3706  2.1598
  129MOL   H12441340   0.164   2.232   7.014  1.2089 -0.1490  0.5797
  129MOL   H12541341   0.074   2.438   7.108 -0.3754 -1.0597  3.7153
  129MOL   H12641342   0.473   2.593   7.173  0.7172 -0.6917 -1.1295
  129MOL   H12741343   0.562   2.397   7.077  0.2320  2.0379 -0.2194
  129MOL   H12841344   0.381   2.124   6.730 -0.9086 -0.2947  0.3661
  129MOL   H12941345   0.304   2.257   6.790 -0.0092 -0.2202 -1.8752
  129MOL   C13041346   0.490   2.316   6.708  0.0312 -0.4049  0.2294
  129MOL   C13141347   0.630   2.265   6.677 -0.0428 -0.9236  0.5362
  129MOL   C13241348   0.736   2.313   6.748  0.4744 -0.0195 -0.2358
  129MOL   C13341349   0.865   2.272   6.720  0.1130 -0.2543 -0.0750
  129MOL   C13441350   0.887   2.172   6.626  0.0316 -0.2760  1.1928
  129MOL  Cl13541351   1.044   2.127   6.593  0.1617 -0.3259 -0.2177
  129MOL   C13641352   0.777   2.120   6.555 -0.0361 -0.2160 -0.2435
  129MOL   C13741353   0.650   2.167   6.576  0.9627  0.2223 -0.5597
  129MOL   C13841354   0.427   2.361   6.572 -0.1982 -0.1706  0.1860
  129MOL   H13941355   0.506   2.402   6.773 -0.8626  1.3789 -1.8385
  129MOL   H14041356   0.719   2.382   6.829  0.9906  0.1905 -0.3039
  129MOL   H14141357   0.948   2.317   6.774 -1.8811 -0.6128  3.4510
  129MOL   H14241358   0.788   2.034   6.490 -2.8929 -1.0305  0.2918
  129MOL   H14341359   0.570   2.131   6.513 -0.9237  2.2596  0.6078
  129MOL   H14441360   0.507   2.419   6.526  1.7756 -2.1293  1.0874
  129MOL   H14541361   0.401   2.269   6.520 -1.4278  0.4677 -0.3541
  129MOL   C14641362   0.292   2.442   6.583  0.2829  0.3410  0.3936
  129MOL   C14741363   0.327   2.578   6.634 -0.3553  0.3792 -0.4637
  129MOL   C14841364   0.382   2.673   6.547 -0.8316 -0.2213  0.1760
  129MOL   C14941365   0.418   2.800   6.597 -0.2520  0.5124  0.2937
  129MOL   C15041366   0.412   2.820   6.737  0.1724 -0.2040  0.6781
  129MOL  Cl15141367   0.470   2.967   6.797 -0.1897 -0.3413  0.0793
  129MOL   C15241368   0.354   2.724   6.820 -0.4926 -0.0266 -0.0275
  129MOL   C15341369   0.308   2.605   6.772 -0.0388 -0.4109 -0.8056
  129MOL   C15441370   0.220   2.451   6.445 -1.1937 -0.3953 -0.5106
  129MOL   H15541371   0.227   2.397   6.658 -0.5113 -1.0514 -1.1027
  129MOL   H15641372   0.405   2.646   6.445 -0.6584 -0.4982  0.2856
  129MOL   H15741373   0.458   2.881   6.537 -2.1827 -0.6267 -2.6824
  129MOL   H15841374   0.349   2.737   6.927  2.7083 -0.9596  0.2878
  129MOL   H15941375   0.264   2.528   6.834  0.6599  0.6428  1.0125
  129MOL   H16041376   0.177   2.550   6.435 -1.0145 -0.2795 -0.1209
  129MOL   H16141377   0.297   2.450   6.368  1.0745  0.6495  1.6808
  129MOL   C16241378   0.123   2.335   6.416  0.1159 -0.3635  0.8267
  129MOL   C16341379   0.014   2.325   6.518  0.0977  0.2501 -0.2924
  129MOL   C16441380   8.373   2.434   6.540 -0.0383 -0.0099 -0.5219
  129MOL   C16541381   8.273   2.425   6.637  0.2307 -0.2814 -0.3675
  129MOL   C16641382   8.252   2.302   6.708  0.2403 -0.1004 -0.1799
  129MOL  Cl16741383   8.124   2.297   6.821  0.0636  0.0461  0.0108
  129MOL   C16841384   8.335   2.190   6.679 -0.0184 -0.1004  0.5858
  129MOL   C16941385   8.433   2.204   6.584  0.3114  0.1377 -0.2112
  129MOL   C17041386   0.065   2.342   6.271  0.6231 -0.2271  0.0981
  129MOL   H17141387   0.181   2.243   6.410 -1.0442 -1.1262  0.9874
  129MOL   H17241388   8.384   2.527   6.487 -0.1767 -0.6899 -1.7827
  129MOL   H17341389   8.220   2.516   6.663  1.9928  0.1969  1.6854
  129MOL   H17441390   8.316   2.094   6.726  1.6923 -0.6911  0.0949
  129MOL   H17541391   0.041   2.112   6.559 -0.2351  0.5786 -3.0765
  129MOL   H17641392   8.432   2.264   6.274  0.7968 -0.4016 -0.0173
  129MOL   H17741393   0.012   2.436   6.256 -0.6247 -0.6694  1.5994
  129MOL   C17841394   0.169   2.317   6.159 -0.0611 -0.5851  0.0496
  129MOL   C17941395   0.234   2.179   6.156  0.4803  0.3795 -0.0501
  129MOL   C18041396   0.164   2.075   6.086  0.1196 -0.3528 -0.1083
  129MOL   C18141397   0.226   1.956   6.069 -0.2476  0.6809  0.1631
  129MOL   C18241398   0.353   1.934   6.123 -0.5708  0.1736  0.0319
  129MOL  Cl18341399   0.409   1.769   6.103 -0.1248 -0.1775 -0.2287
  129MOL   C18441400   0.418   2.033   6.193  0.0450 -0.6423  0.3569
  129MOL   C18541401   0.361   2.159   6.216  0.4411 -0.0220 -0.0053
  129MOL   C18641402   0.112   2.351   6.021  0.1056 -0.2574  0.4272
  129MOL   H18741403   0.255   2.380   6.184 -0.6824  0.5949 -0.7261
  129MOL   H18841404   0.066   2.094   6.044  0.1377 -1.1082 -0.4948
  129MOL   H18941405   0.186   1.877   6.008 -0.1551  0.8429 -0.1105
  129MOL   H19041406   0.516   2.015   6.237 -0.2270  2.0718  2.2350
  129MOL   H19141407   0.406   2.239   6.273  2.1680 -1.4013  0.6113
  129MOL   H19241408   0.172   2.287   5.957 -0.6688 -1.5714  0.9951
  129MOL   H19341409   0.009   2.316   6.013  0.4262 -1.0556 -0.2764
  129MOL   C19441410   0.121   2.500   5.975 -0.0193 -0.9683  0.3139
  129MOL   C19541411   0.236   2.573   6.043 -0.0846  0.0429  0.4450
  129MOL   C19641412   0.205   2.673   6.138 -0.3515  0.7282  0.8767
  129MOL   C19741413   0.316   2.747   6.192  0.0667  0.0675  0.2462
  129MOL   C19841414   0.446   2.725   6.148  0.4161 -0.4664 -0.4678
  129MOL  Cl19941415   0.581   2.797   6.234 -0.0402 -0.0301 -0.1111
  129MOL   C20041416   0.471   2.631   6.049 -0.0237 -0.3662  0.4883
  129MOL   C20141417   0.365   2.555   5.992 -0.4075 -0.0013 -0.5224
  129MOL   C20241418   0.121   2.509   5.820 -0.4197  0.5531 -0.2573
  129MOL   H20341419   0.034   2.555   6.010  0.5994 -0.0601  0.4186
  129MOL   H20441420   0.105   2.690   6.176 -0.1599  2.2034  0.7613
  129MOL   H20541421   0.296   2.813   6.276  0.9882 -0.6391  1.0184
  129MOL   H20641422   0.571   2.621   6.010 -0.8301 -0.5887 -1.5736
  129MOL   H20741423   0.396   2.481   5.920 -1.2799 -0.1896 -0.7172
  129MOL   H20841424   0.202   2.440   5.795  0.8184  0.4357  3.5866
  129MOL   H20941425   0.033   2.461   5.778 -0.3145 -0.0046  0.1440
  129MOL   C21041426   0.139   2.648   5.751 -0.1628 -0.1571 -0.1640
  129MOL   C21141427   0.158   2.635   5.604 -0.1308  0.1779 -0.3982
  129MOL   C21241428   0.055   2.593   5.518  0.3209  0.0283  0.2503
  129MOL   C21341429   0.070   2.599   5.378  0.2207  0.8886 -0.6595
  129MOL   C21441430   0.195   2.624   5.317 -0.1732  0.0981 -0.4605
  129MOL  Cl21541431   0.209   2.624   5.149 -0.2516  0.0743 -0.0041
  129MOL   C21641432   0.297   2.669   5.405  0.2657  0.0122  0.0576
  129MOL   C21741433   0.284   2.665   5.545  0.7873 -0.0623  0.3437
  129MOL   C21841434   0.033   2.755   5.785 -0.5126 -0.3622  0.0462
  129MOL   H21941435   0.227   2.687   5.802 -1.3608  0.3173  1.5740
  129MOL   H22041436   8.410   2.563   5.573  1.0950 -0.8126  1.0262
  129MOL   H22141437   8.425   2.568   5.323 -0.4597  1.5977  0.0248
  129MOL   H22241438   0.386   2.695   5.351  1.3126 -1.8998  0.8123
  129MOL   H22341439   0.373   2.677   5.606  1.6628  2.1234 -1.3121
  129MOL   H22441440   8.437   2.796   5.692  0.3675 -1.0507 -0.6422
  129MOL   H22541441   8.391   2.708   5.834 -0.9659 -0.4939 -0.8497
  129MOL   C22641442   0.073   2.877   5.863 -0.0228 -0.4717 -0.3912
  129MOL   C22741443   0.198   2.936   5.802 -0.2921  0.4498 -0.4759
  129MOL   C22841444   0.200   2.986   5.668 -0.7099 -0.4507  0.4541
  129MOL   C22941445   0.320   3.044   5.617  0.6312  0.2628  0.1837
  129MOL   C23041446   0.433   3.046   5.689 -0.1682 -0.2159  0.3352
  129MOL  Cl23141447   0.583   3.102   5.631 -0.0372  0.0250  0.2133
  129MOL   C23241448   0.429   3.005   5.820  0.1097 -0.2101  0.0160
  129MOL   C23341449   0.315   2.947   5.880  0.5078 -0.6180  0.0352
  129MOL   C23441450   8.418   2.991   5.876 -0.3997 -0.0834 -0.6973
  129MOL   H23541451   0.093   2.840   5.963  0.9504 -1.0548 -0.7869
  129MOL   H23641452   0.110   2.986   5.608 -0.5530  1.8755  0.1581
  129MOL   H23741453   0.316   3.084   5.517 -0.3356  1.2719  0.6130
  129MOL   H23841454   0.519   3.022   5.879 -0.0216 -1.5443  0.6294
  129MOL   H23941455   0.319   2.940   5.988  1.3716 -1.4156 -0.0457
  129MOL   H24041456   0.027   3.079   5.912  0.1044 -0.1615 -1.2299
  129MOL   H24141457   8.385   3.029   5.780 -0.4953 -0.4099 -0.7934
  129MOL   C24241458   8.297   2.950   5.970  0.0102  0.6432 -0.0057
  129MOL   C24341459   8.342   2.918   6.111 -0.3605 -0.1813 -0.3478
  129MOL   C24441460   0.001   2.992   6.182 -0.2081 -0.4084 -0.4253
  129MOL   C24541461   0.037   2.964   6.311  0.4841 -0.0191  0.0722
  129MOL   C24641462   8.404   2.866   6.383 -0.0243 -0.3519  0.2211
  129MOL  Cl24741463   8.430   2.846   6.557  0.2080  0.2795 -0.0072
  129MOL   C24841464   8.298   2.798   6.319 -0.8802  0.0453 -0.0016
  129MOL   C24941465   8.266   2.822   6.183  0.1558 -0.3946  0.2373
  129MOL   C25041466   8.189   3.063   5.978 -0.4529 -0.1374  0.3189
  129MOL   H25141467   8.251   2.863   5.924 -1.2913  1.6484 -0.6642
  129MOL   H25241468   0.058   3.073   6.140  0.8047 -0.6224  0.5185
  129MOL   H25341469   0.104   3.028   6.365  1.8469 -0.9614 -0.4724
  129MOL   H25441470   8.241   2.729   6.380 -1.0904 -0.4939 -0.8024
  129MOL   H25541471   8.195   2.755   6.136 -0.9658  2.0817 -1.7032
  129MOL   H25641472   8.161   3.083   6.081 -0.1636  0.5053  0.2749
  129MOL   H25741473   8.219   3.159   5.936  0.1824 -0.7379 -0.6445
  129MOL   C25841474   8.064   3.032   5.898  0.3395  0.9270  0.0663
  129MOL   C25941475   7.995   2.892   5.935 -0.2816 -0.2248  0.1663
  129MOL   C26041476   7.944   2.879   6.068  0.5204  0.1215 -0.7015
  129MOL   C26141477   7.891   2.752   6.109 -0.6608  0.6201 -0.4798
  129MOL   C26241478   7.882   2.649   6.015 -0.9526 -0.1527 -0.0042
  129MOL  Cl26341479   7.804   2.500   6.056  0.0916  0.3842 -0.1084
  129MOL   C26441480   7.932   2.661   5.885  0.0085  0.2569  0.2836
  129MOL   C26541481   7.987   2.783   5.842 -0.0074 -0.2203  0.0234
  129MOL   C26641482   7.965   3.147   5.888 -0.7359  0.2757  0.2415
  129MOL   H26741483   8.107   3.018   5.799  1.2171 -0.5979  0.6470
  129MOL   H26841484   7.951   2.966   6.130  0.9158 -0.0400 -0.5208
  129MOL   H26941485   7.845   2.731   6.205 -0.7018  0.3208 -0.5650
  129MOL   H27041486   7.920   2.579   5.814 -0.1913  1.9389 -1.6652
  129MOL   H27141487   8.026   2.804   5.743  1.6311  0.1071  0.7219
  129MOL   H27241488   7.931   3.176   5.987 -3.1065 -0.7883 -0.2241
  129MOL   H27341489   8.007   3.244   5.859  0.1791  0.0362  0.7508
  129MOL   C27441490   7.843   3.113   5.800  0.4544 -0.3938  0.6020
  129MOL   C27541491   7.728   3.208   5.819 -0.4446 -0.3324  0.7825
  129MOL   C27641492   7.751   3.347   5.778 -0.6583  0.8139 -0.3872
  129MOL   C27741493   7.640   3.433   5.769  0.2403 -0.4176  0.6228
  129MOL   C27841494   7.512   3.389   5.809 -0.8094  1.1282 -0.6331
  129MOL  Cl27941495   7.375   3.488   5.795  0.2602  0.0228 -0.0169
  129MOL   C28041496   7.496   3.260   5.861 -0.3903  0.2030 -0.3682
  129MOL   C28141497   7.606   3.169   5.866 -0.3180  0.1526 -0.3727
  129MOL   C28241498   7.879   3.107   5.643 -0.1265 -0.3536 -0.1167
  129MOL   H28341499   7.811   3.016   5.838 -0.1637 -0.4517 -0.0512
  129MOL   H28441500   7.849   3.388   5.762 -0.0856 -0.3850  0.0298
  129MOL   H28541501   7.652   3.537   5.742 -0.3803  0.1694  2.4993
  129MOL   H28641502   7.401   3.232   5.904  0.4424  0.8544  1.9879
  129MOL   H28741503   7.573   3.068   5.884 -0.1938 -0.0336 -1.1779
  129MOL   H28841504   7.899   3.210   5.617 -1.9288  0.4522  1.5167
  129MOL   H28941505   7.968   3.046   5.628  1.3162  1.5132  0.6910
  129MOL   C29041506   7.781   3.044   5.547  0.2284 -0.0188 -0.0656
  129MOL   C29141507   7.814   3.078   5.402 -0.7615  0.1759  0.4472
  129MOL   C29241508   7.721   3.144   5.321  0.1320 -0.8517 -0.9846
  129MOL   C29341509   7.745   3.171   5.190 -0.4892 -0.7007 -0.2897
  129MOL   C29441510   7.869   3.148   5.136  0.1759  0.1378 -0.2318
  129MOL  Cl29541511   7.903   3.183   4.969  0.1812 -0.2134  0.5084
  129MOL   C29641512   7.966   3.082   5.213 -0.0785  0.1458 -0.2190
  129MOL   C29741513   7.942   3.045   5.346 -0.2908  0.0318  0.5883
  129MOL   C29841514   7.770   2.886   5.567  0.6923 -0.2370  0.2148
  129MOL   H29941515   7.688   3.095   5.570  0.3994  0.3875 -0.2711
  129MOL   H30041516   7.622   3.173   5.352  0.9561  2.0108 -0.8478
  129MOL   H30141517   7.663   3.212   5.132 -0.0634  3.3937  1.8378
  129MOL   H30241518   8.059   3.064   5.161 -0.7693 -1.3067 -0.9562
  129MOL   H30341519   8.025   3.007   5.405 -0.7222 -2.7095 -0.4635
  129MOL   H30441520   7.865   2.835   5.548  2.0235  1.6258  1.5834
  129MOL   H30541521   7.754   2.863   5.672 -0.0654  1.7784  0.5602
  129MOL   C30641522   7.662   2.808   5.480 -1.1980 -0.3799 -0.2362
  129MOL   C30741523   7.684   2.658   5.511  0.4586 -0.1139  0.2241
  129MOL   C30841524   7.663   2.602   5.642 -0.0267 -0.4088  0.4470
  129MOL   C30941525   7.678   2.467   5.672  0.0180 -0.0580 -0.5184
  129MOL   C31041526   7.712   2.378   5.576 -0.4702  0.1827  0.5663
  129MOL  Cl31141527   7.720   2.209   5.606  0.3151 -0.3080  0.0662
  129MOL   C31241528   7.733   2.430   5.439 -0.0953 -0.8326  0.4694
  129MOL   C31341529   7.717   2.572   5.411 -0.3685  0.0318  0.3956
  129MOL   C31441530   7.519   2.857   5.508 -0.6594  0.1751  0.3945
  129MOL   H31541531   7.683   2.819   5.374 -1.7847 -1.8117 -0.5102
  129MOL   H31641532   7.628   2.661   5.725 -2.4818 -0.0552 -0.7829
  129MOL   H31741533   7.651   2.442   5.773 -0.7278  1.1084 -0.4162
  129MOL   H31841534   7.754   2.361   5.359  0.2927 -1.5652  1.1968
  129MOL   H31941535   7.742   2.611   5.314 -0.3654 -0.3451  0.2436
  129MOL   H32041536   7.478   2.847   5.608  0.6735 -2.0000  0.7670
  129MOL   H32141537   7.507   2.958   5.469 -0.0023 -0.5991 -1.8912
  129MOL   H32241538   7.451   2.802   5.443 -0.1033  1.2511 -1.1368
  130MOL     C141539   0.843   2.149   4.305 -0.0772  0.8778  0.5104
  130MOL     C241540   0.940   2.032   4.280 -0.3407  0.5037  0.6334
  130MOL     C341541   1.012   2.024   4.160 -0.0805 -0.6008 -0.3235
  130MOL     C441542   1.101   1.912   4.132  0.3508 -0.0710 -0.6617
  130MOL     C541543   1.115   1.806   4.226  0.1737  0.0437  0.1721
  130MOL    Cl641544   1.224   1.674   4.188  0.1070  0.5229 -0.3411
  130MOL     C741545   1.041   1.814   4.344  0.7749  0.1258 -0.5106
  130MOL     C841546   0.955   1.928   4.370 -0.7564  0.6353 -0.1242
  130MOL     C941547   0.696   2.105   4.285  0.1232  0.1950  0.4156
  130MOL    H1041548   0.887   2.230   4.246  1.8608 -0.5566 -0.0496
  130MOL    H1141549   0.995   2.100   4.085 -2.6673 -0.7446  0.0430
  130MOL    H1241550   1.155   1.915   4.039  0.4402  1.4726 -0.5841
  130MOL    H1341551   1.040   1.730   4.411 -1.3766  1.3043  1.0118
  130MOL    H1441552   0.894   1.914   4.458 -0.4565 -1.8078 -0.2730
  130MOL    H1541553   0.687   2.077   4.180 -2.3331 -0.3473  0.7379
  130MOL    H1641554   0.676   2.014   4.342 -1.2225 -0.0193 -0.3754
  130MOL    H1741555   0.879   2.175   4.405  1.4864  0.5548  0.0491
  130MOL    C1841556   0.586   2.213   4.307 -0.5092  0.6149  1.3469
  130MOL    C1941557   0.542   2.227   4.458 -0.5425 -0.5512 -0.5655
  130MOL    C2041558   0.618   2.177   4.572 -0.1369  0.0243  0.1034
  130MOL    C2141559   0.561   2.205   4.701 -0.3819  1.4083  0.3178
  130MOL    C2241560   0.444   2.283   4.718  0.0974 -0.0150  0.0649
  130MOL   Cl2341561   0.397   2.337   4.880 -0.3014 -0.0627  0.3963
  130MOL    C2441562   0.379   2.339   4.606  0.2991 -0.2496  0.3144
  130MOL    C2541563   0.426   2.306   4.479 -0.8649  0.1936 -0.6376
  130MOL    C2641564   0.616   2.356   4.248 -0.9274  0.6750  0.2298
  130MOL    H2741565   0.495   2.176   4.260  0.0684  1.8864 -0.8438
  130MOL    H2841566   0.704   2.112   4.567 -1.3417 -1.5174 -1.9873
  130MOL    H2941567   0.610   2.160   4.786 -0.6799 -0.3530 -0.4154
  130MOL    H3041568   0.295   2.402   4.628 -1.2801 -2.2648  0.2332
  130MOL    H3141569   0.370   2.354   4.400  1.0462  1.3753 -1.3106
  130MOL    H3241570   0.538   2.429   4.268  0.0235  1.5334  0.8519
  130MOL    H3341571   0.702   2.399   4.300  0.2216 -0.4013 -0.7225
  130MOL    C3441572   0.637   2.368   4.091  1.0777  0.2571  0.3430
  130MOL    C3541573   0.517   2.310   4.019  0.6092 -0.2819  0.5741
  130MOL    C3641574   0.386   2.305   4.071  0.6992 -0.7452 -0.8498
  130MOL    C3741575   0.276   2.251   3.995  0.4059  0.1227  0.1565
  130MOL    C3841576   0.306   2.199   3.875 -0.2268 -0.3284 -0.2376
  130MOL   Cl3941577   0.185   2.123   3.783  0.2514  0.2034  0.0954
  130MOL    C4041578   0.428   2.202   3.820 -0.4356  0.2683 -0.5196
  130MOL    C4141579   0.536   2.265   3.886  0.1563  0.1941  0.1062
  130MOL    C4241580   0.662   2.514   4.041  0.1178 -0.2032 -0.1026
  130MOL    H4341581   0.725   2.308   4.072  0.8122 -0.0284  0.0012
  130MOL    H4441582   0.363   2.340   4.171  1.3452 -2.5513 -0.0456
  130MOL    H4541583   0.175   2.240   4.030  0.1618 -0.6180 -0.7563
  130MOL    H4641584   0.459   2.173   3.721  0.1840  0.3258 -0.3459
  130MOL    H4741585   0.633   2.261   3.839  1.0588 -1.8163  2.0901
  130MOL    H4841586   0.611   2.539   3.948  2.6185  1.1554 -1.1569
  130MOL    H4941587   0.630   2.577   4.124  1.6017  2.5751 -1.5448
  130MOL    C5041588   0.806   2.562   4.026  0.5398  1.1966 -0.7446
  130MOL    C5141589   0.882   2.474   3.928  0.0511  0.5963  0.6637
  130MOL    C5241590   0.860   2.484   3.791  0.2253  0.5189  0.6996
  130MOL    C5341591   0.938   2.401   3.705 -0.3635 -0.1104 -0.2889
  130MOL    C5441592   1.029   2.301   3.752  0.0088 -0.4251 -0.5127
  130MOL   Cl5541593   1.109   2.182   3.647  0.3112  0.1270 -0.2608
  130MOL    C5641594   1.051   2.297   3.889 -0.8003  0.0141 -0.1794
  130MOL    C5741595   0.979   2.382   3.977  0.0620  0.5950  0.0268
  130MOL    C5841596   0.814   2.714   3.998  0.2313 -0.8974  0.2373
  130MOL    H5941597   0.855   2.539   4.120 -0.6511 -0.8550 -0.6054
  130MOL    H6041598   0.793   2.556   3.747 -0.2055  0.2929  0.9792
  130MOL    H6141599   0.925   2.418   3.599  0.9690 -0.7353 -0.5634
  130MOL    H6241600   1.122   2.223   3.923 -0.7199  0.0209 -0.3289
  130MOL    H6341601   0.990   2.372   4.084  1.7699 -1.2787 -0.2964
  130MOL    H6441602   0.739   2.736   3.922  0.4024 -1.8442 -0.2221
  130MOL    H6541603   0.781   2.780   4.078  0.3919 -0.9140  0.3178
  130MOL    C6641604   0.953   2.765   3.945 -0.1489  0.3264 -1.2663
  130MOL    C6741605   0.933   2.909   3.893 -0.2687  0.0278  0.8116
  130MOL    C6841606   0.914   2.939   3.758 -0.3941 -0.0174 -1.0554
  130MOL    C6941607   0.893   3.071   3.721  0.5397 -0.6432  0.2741
  130MOL    C7041608   0.863   3.169   3.821 -0.1487 -0.0676  0.4337
  130MOL   Cl7141609   0.808   3.326   3.773 -0.3662  0.1399  0.7427
  130MOL    C7241610   0.867   3.136   3.956 -0.3799 -0.4370 -0.1543
  130MOL    C7341611   0.913   3.008   3.991 -0.6350 -0.1777 -0.4441
  130MOL    C7441612   1.069   2.755   4.047  0.5290 -0.1815  0.2014
  130MOL    H7541613   0.981   2.706   3.857  0.2354 -1.0961 -0.2012
  130MOL    H7641614   0.927   2.864   3.681  0.4212  0.4591 -1.3830
  130MOL    H7741615   0.895   3.091   3.614 -2.2746 -0.9816  0.1191
  130MOL    H7841616   0.849   3.208   4.034 -1.7863 -0.4292 -0.4631
  130MOL    H7941617   0.924   2.982   4.095 -2.3353  0.2283 -0.1558
  130MOL    H8041618   1.051   2.806   4.141 -0.4621  1.3722 -0.8091
  130MOL    H8141619   1.071   2.650   4.075 -0.6188 -0.1413  0.4604
  130MOL    C8241620   1.214   2.787   3.996  0.3480  0.4965  0.4931
  130MOL    C8341621   1.236   2.759   3.851 -0.2600 -0.5608  0.4895
  130MOL    C8441622   1.223   2.861   3.751 -0.0839 -0.6041  0.6786
  130MOL    C8541623   1.241   2.835   3.614 -0.0520  0.1113  0.6435
  130MOL    C8641624   1.250   2.699   3.577  0.4174  0.1731 -0.2670
  130MOL   Cl8741625   1.279   2.653   3.416  0.0345 -0.2735 -0.1710
  130MOL    C8841626   1.266   2.599   3.676 -0.1060  0.1293  0.6197
  130MOL    C8941627   1.247   2.625   3.812 -0.1522 -0.0524 -0.6595
  130MOL    C9041628   1.258   2.919   4.043 -0.6433 -0.1463 -0.0529
  130MOL    H9141629   1.284   2.721   4.047  2.7588  3.1740  0.7930
  130MOL    H9241630   1.198   2.963   3.778  2.3317 -0.2078  1.5349
  130MOL    H9341631   1.234   2.913   3.540  0.1903  0.0072  0.5118
  130MOL    H9441632   1.284   2.495   3.650 -2.5290  0.2093 -1.4944
  130MOL    H9541633   1.248   2.547   3.887  2.6718 -1.9646 -2.6451
  130MOL    H9641634   1.347   2.942   3.985 -2.2229  2.8029 -1.4787
  130MOL    H9741635   1.184   2.993   4.009 -0.6300  0.0570  0.3528
  130MOL    C9841636   1.277   2.943   4.189  0.6020 -0.1283  0.9200
  130MOL    C9941637   1.372   2.852   4.263 -0.0603  0.5836  0.3792
  130MOL   C10041638   1.319   2.769   4.363  0.0247  0.1675  0.6629
  130MOL   C10141639   1.392   2.663   4.411  0.6716 -0.3068  0.7504
  130MOL   C10241640   1.524   2.637   4.369  0.1735  0.2127 -0.5352
  130MOL  Cl10341641   1.608   2.499   4.433  0.3069  0.1859  0.1369
  130MOL   C10441642   1.577   2.718   4.266  0.3571  0.5603  0.1675
  130MOL   C10541643   1.503   2.829   4.216  0.7958  0.6426 -0.7666
  130MOL   C10641644   1.332   3.086   4.209 -0.1054  0.9081  0.2147
  130MOL   H10741645   1.179   2.942   4.237 -1.3239  2.4489 -2.6811
  130MOL   H10841646   1.218   2.772   4.401  0.3065 -1.8206  1.6585
  130MOL   H10941647   1.337   2.596   4.475 -0.7500 -1.5453 -1.7300
  130MOL   H11041648   1.672   2.689   4.225  0.8189  0.5661  1.2176
  130MOL   H11141649   1.548   2.889   4.138  0.8379 -0.1808 -1.3905
  130MOL   H11241650   1.387   3.087   4.303  0.1333  2.6381  0.0791
  130MOL   H11341651   1.413   3.098   4.137 -0.1396 -2.2401 -0.4041
  130MOL   C11441652   1.239   3.205   4.219  0.3284 -0.0600  0.2499
  130MOL   C11541653   1.134   3.200   4.329  0.3344 -0.4904 -0.4516
  130MOL   C11641654   1.159   3.229   4.469  0.1937 -0.9506  0.2884
  130MOL   C11741655   1.060   3.225   4.567  0.4413 -0.4433  0.3944
  130MOL   C11841656   0.927   3.186   4.535 -0.6881  0.7636  0.3643
  130MOL  Cl11941657   0.807   3.183   4.647 -0.0123  0.4841 -0.2269
  130MOL   C12041658   0.903   3.146   4.397 -0.1415 -0.3419  0.0154
  130MOL   C12141659   1.001   3.159   4.303  0.3276 -0.2351 -0.2661
  130MOL   C12241660   1.321   3.333   4.230 -0.1046 -0.2776 -0.2017
  130MOL   H12341661   1.181   3.209   4.126  1.6147  1.5223 -0.5314
  130MOL   H12441662   1.259   3.258   4.497 -0.1526 -0.1628  0.7363
  130MOL   H12541663   1.083   3.249   4.670 -1.2802 -1.6538  1.0749
  130MOL   H12641664   0.804   3.109   4.375  0.1724 -0.1666 -1.7734
  130MOL   H12741665   0.968   3.131   4.204  0.6881 -0.5549 -0.2979
  130MOL   H12841666   1.249   3.415   4.226  0.0137 -0.2125 -1.2903
  130MOL   H12941667   1.359   3.341   4.331  0.2880 -1.1554 -0.2743
  130MOL   C13041668   1.418   3.375   4.116 -0.1552 -0.4712 -0.5465
  130MOL   C13141669   1.357   3.356   3.976 -0.8894 -0.3324  0.8908
  130MOL   C13241670   1.429   3.279   3.879 -0.6414  1.1135 -0.1629
  130MOL   C13341671   1.388   3.281   3.742  0.0422  0.5098 -0.4825
  130MOL   C13441672   1.266   3.352   3.703 -0.3305 -0.5232 -0.2130
  130MOL  Cl13541673   1.204   3.331   3.541  0.1258  0.4942  0.0967
  130MOL   C13641674   1.196   3.427   3.797  0.2745 -1.0637  0.1174
  130MOL   C13741675   1.249   3.430   3.930 -0.4075  0.1297  0.2482
  130MOL   C13841676   1.461   3.517   4.140 -0.3926 -0.3261  0.1082
  130MOL   H13941677   1.506   3.310   4.115  1.3441  1.4853  0.7869
  130MOL   H14041678   1.527   3.238   3.896  0.8568  3.8608 -1.8018
  130MOL   H14141679   1.442   3.236   3.660  1.0418  0.0126  0.4339
  130MOL   H14241680   1.105   3.482   3.780 -0.2163 -1.7565  0.4944
  130MOL   H14341681   1.195   3.486   4.005  1.4159  0.6027  1.2320
  130MOL   H14441682   1.502   3.549   4.045 -2.3069 -0.2729 -0.7363
  130MOL   H14541683   1.373   3.579   4.158 -0.4614  0.2508 -2.0780
  130MOL   C14641684   1.559   3.535   4.253 -0.0874 -0.0653 -0.3359
  130MOL   C14741685   1.680   3.437   4.252  0.4344 -0.0342 -0.3384
  130MOL   C14841686   1.707   3.349   4.360  0.2160  0.7646 -0.6388
  130MOL   C14941687   1.825   3.270   4.360 -0.9862  0.4163  0.4430
  130MOL   C15041688   1.924   3.291   4.256 -0.4575  0.1935 -0.3386
  130MOL  Cl15141689   2.086   3.232   4.276  0.1609 -0.2968 -0.4134
  130MOL   C15241690   1.894   3.379   4.151  0.1289  0.0928  0.4365
  130MOL   C15341691   1.772   3.450   4.145  0.6366 -0.1915 -0.2553
  130MOL   C15441692   1.606   3.681   4.277  0.2443 -1.0162 -0.6424
  130MOL   H15541693   1.509   3.517   4.348 -0.4170  0.0092 -0.4957
  130MOL   H15641694   1.638   3.338   4.442  1.5274 -2.8290  0.1032
  130MOL   H15741695   1.845   3.209   4.447  0.6825 -0.1499 -0.3217
  130MOL   H15841696   1.971   3.402   4.079  0.3454  2.1931  1.2915
  130MOL   H15941697   1.752   3.517   4.063 -2.7970 -0.9623 -0.1309
  130MOL   H16041698   1.700   3.675   4.332 -0.5401  0.9358  0.9678
  130MOL   H16141699   1.628   3.728   4.181  1.6497  0.0432  0.1854
  130MOL   C16241700   1.509   3.778   4.356 -0.0902 -0.6397 -0.5089
  130MOL   C16341701   1.488   3.742   4.503  0.3991 -0.6288  0.1108
  130MOL   C16441702   1.598   3.716   4.585  0.4762 -0.1993  0.4270
  130MOL   C16541703   1.582   3.682   4.720 -0.4449  0.1210 -0.1383
  130MOL   C16641704   1.453   3.650   4.769 -0.3988 -0.1463  0.1022
  130MOL  Cl16741705   1.432   3.584   4.928 -0.1540  0.0394 -0.0700
  130MOL   C16841706   1.341   3.667   4.685  0.3912  0.1341 -0.1127
  130MOL   C16941707   1.356   3.726   4.553  0.1907  0.2300  0.3263
  130MOL   C17041708   1.558   3.919   4.337  0.6739 -0.5834  0.1999
  130MOL   H17141709   1.414   3.787   4.302 -0.9613  0.7400  1.2200
  130MOL   H17241710   1.703   3.714   4.559  0.7931  0.5237  1.6043
  130MOL   H17341711   1.668   3.676   4.784  0.8396 -1.7097 -1.9507
  130MOL   H17441712   1.238   3.651   4.716  0.3362  0.9554  0.1586
  130MOL   H17541713   1.273   3.743   4.486  0.5227  1.3985  0.1878
  130MOL   H17641714   1.505   3.981   4.409 -2.1947 -1.6445 -0.9065
  130MOL   H17741715   1.665   3.934   4.351 -0.0088  2.2930  2.8811
  130MOL   C17841716   1.515   4.007   4.214 -0.1545 -0.0463 -0.2499
  130MOL   C17941717   1.593   4.134   4.206  0.0553  0.3038 -0.4067
  130MOL   C18041718   1.525   4.260   4.223 -0.0460 -0.4953 -0.3868
  130MOL   C18141719   1.600   4.381   4.212 -0.6528 -0.1142  0.7439
  130MOL   C18241720   1.735   4.376   4.169  0.3892  0.7396  0.4762
  130MOL  Cl18341721   1.821   4.527   4.148  0.2297 -0.3363  0.3172
  130MOL   C18441722   1.796   4.257   4.147 -0.3491 -0.2614 -0.0455
  130MOL   C18541723   1.729   4.134   4.170  0.0383 -0.5162  0.7011
  130MOL   C18641724   1.516   3.924   4.084 -0.5990  0.4073 -0.3130
  130MOL   H18741725   1.408   4.024   4.220 -0.5577 -0.8716 -3.6897
  130MOL   H18841726   1.420   4.263   4.246 -0.3349 -0.0642 -1.7340
  130MOL   H18941727   1.547   4.475   4.223 -1.2276 -0.6089  2.3706
  130MOL   H19041728   1.901   4.259   4.123 -0.3117  0.9664  0.1655
  130MOL   H19141729   1.778   4.040   4.151 -0.2090 -0.1797 -1.7274
  130MOL   H19241730   1.622   3.912   4.060 -0.1081  2.1621  0.9160
  130MOL   H19341731   1.467   3.827   4.094 -0.4023  0.0980 -2.1573
  130MOL   C19441732   1.449   3.988   3.962  1.0215  0.7482 -0.1439
  130MOL   C19541733   1.484   3.899   3.841 -0.0484 -0.2511  0.3584
  130MOL   C19641734   1.574   3.948   3.743 -0.0309  0.2960 -0.4978
  130MOL   C19741735   1.598   3.872   3.625 -0.0946  0.3416 -0.8617
  130MOL   C19841736   1.546   3.741   3.621 -0.1670  0.4615  0.3456
  130MOL  Cl19941737   1.577   3.640   3.485 -0.3397 -0.2117 -0.6073
  130MOL   C20041738   1.460   3.693   3.717 -0.0744 -0.4958  0.0634
  130MOL   C20141739   1.429   3.769   3.832 -0.0972 -0.6069  0.1500
  130MOL   C20241740   1.297   4.002   3.990 -0.0924  0.6502 -0.2919
  130MOL   H20341741   1.502   4.083   3.958 -0.0005  1.3127 -0.3605
  130MOL   H20441742   1.633   4.036   3.766  1.6988 -0.7983 -0.6372
  130MOL   H20541743   1.666   3.903   3.546 -1.3032  0.0821 -2.0173
  130MOL   H20641744   1.417   3.594   3.714 -0.3598 -0.3808  0.2899
  130MOL   H20741745   1.353   3.732   3.899 -1.1911  1.0674 -0.1382
  130MOL   H20841746   1.250   3.905   4.004 -0.2487  0.8116  0.3014
  130MOL   H20941747   1.282   4.051   4.086 -0.0116  1.1292 -0.5243
  130MOL   C21041748   1.216   4.081   3.884  0.1694 -0.2740  0.2167
  130MOL   C21141749   1.066   4.079   3.900  1.0216  0.4266 -0.4523
  130MOL   C21241750   0.982   4.064   3.790 -0.0942  0.5910 -0.7925
  130MOL   C21341751   0.841   4.057   3.799 -0.1679  0.2828 -0.1130
  130MOL   C21441752   0.779   4.074   3.922  0.3744 -0.2499  0.3135
  130MOL  Cl21541753   0.610   4.068   3.945  0.1680 -0.4343  0.1336
  130MOL   C21641754   0.863   4.076   4.034  0.1055 -0.1943 -0.1531
  130MOL   C21741755   1.003   4.088   4.030 -0.5747 -0.4154 -0.0467
  130MOL   C21841756   1.266   4.226   3.900  0.0810 -0.6766 -0.4062
  130MOL   H21941757   1.235   4.038   3.786 -0.3842  0.2802 -0.1355
  130MOL   H22041758   1.020   4.059   3.688  2.0179 -0.4212  0.0093
  130MOL   H22141759   0.786   4.041   3.707 -1.6888  0.5890  0.7322
  130MOL   H22241760   0.815   4.071   4.130 -0.0508 -1.2678 -0.2780
  130MOL   H22341761   1.047   4.096   4.128 -2.0012  0.3083  0.5456
  130MOL   H22441762   1.177   4.287   3.912 -0.3980 -1.5362  0.4508
  130MOL   H22541763   1.322   4.236   3.993 -3.3610 -0.2815  1.6735
  130MOL   C22641764   1.351   4.285   3.775  0.0627  0.3251 -0.2453
  130MOL   C22741765   1.272   4.280   3.641  0.8063  0.0729 -0.4337
  130MOL   C22841766   1.335   4.245   3.522 -0.4065  0.3906 -0.0091
  130MOL   C22941767   1.257   4.229   3.403  0.3027 -0.5364  0.9568
  130MOL   C23041768   1.116   4.250   3.402 -0.0824 -0.3025  0.2476
  130MOL  Cl23141769   1.023   4.219   3.263  0.1292  0.3514  0.2157
  130MOL   C23241770   1.059   4.310   3.523  0.3472  0.0125 -0.1904
  130MOL   C23341771   1.137   4.317   3.638  0.3441  0.3011 -0.2305
  130MOL   C23441772   1.417   4.421   3.794  0.4141 -0.3726 -0.5916
  130MOL   H23541773   1.430   4.209   3.775  1.3025  1.5764  1.7884
  130MOL   H23641774   1.438   4.215   3.508 -1.2317 -2.4985 -0.2591
  130MOL   H23741775   1.302   4.194   3.312 -1.1554 -0.1906  0.0987
  130MOL   H23841776   0.956   4.342   3.528  1.1192  2.3572  1.4266
  130MOL   H23941777   1.089   4.352   3.728  1.4788  1.6683 -0.1452
  130MOL   H24041778   1.341   4.500   3.788  0.3794 -0.4414 -1.0186
  130MOL   H24141779   1.453   4.433   3.896  1.6553  0.7692 -1.1555
  130MOL   C24241780   1.543   4.451   3.710  0.7458 -0.5070 -0.6488
  130MOL   C24341781   1.577   4.597   3.727 -0.5352  0.2367  0.4610
  130MOL   C24441782   1.687   4.643   3.809  0.4268  0.1471  0.1377
  130MOL   C24541783   1.715   4.778   3.822  0.1601  0.5649 -0.1197
  130MOL   C24641784   1.644   4.875   3.755  0.0128 -0.2754  0.0698
  130MOL  Cl24741785   1.708   5.038   3.752 -0.4387 -0.1215 -0.4152
  130MOL   C24841786   1.531   4.835   3.681 -0.4536 -0.5122 -0.2370
  130MOL   C24941787   1.499   4.699   3.665  0.4485 -0.1079  0.2122
  130MOL   C25041788   1.660   4.359   3.734 -0.3100  0.2251  0.1926
  130MOL   H25141789   1.514   4.432   3.607  3.8828  2.0207 -2.0776
  130MOL   H25241790   1.751   4.577   3.867  1.2157  1.1877  0.4657
  130MOL   H25341791   1.800   4.810   3.880  0.4987 -1.6270  0.6451
  130MOL   H25441792   1.476   4.920   3.643  2.0459  0.4763 -1.7611
  130MOL   H25541793   1.413   4.661   3.612  1.9936 -1.6849 -1.2042
  130MOL   H25641794   1.693   4.365   3.838 -0.6470  2.6051  0.1918
  130MOL   H25741795   1.628   4.260   3.704 -1.6372  0.6101  0.2729
  130MOL   C25841796   1.787   4.375   3.644  0.4813 -0.0608 -0.0819
  130MOL   C25941797   1.881   4.251   3.671 -0.0321  0.2685  0.3177
  130MOL   C26041798   1.836   4.120   3.634  0.4108 -0.0096 -0.3267
  130MOL   C26141799   1.915   4.005   3.650 -0.5592  0.2216  0.8718
  130MOL   C26241800   2.046   4.019   3.687 -0.8405 -0.8486  0.5911
  130MOL  Cl26341801   2.144   3.874   3.696  0.0497 -0.1364 -0.3501
  130MOL   C26441802   2.088   4.146   3.744  0.2124  0.4875 -0.0651
  130MOL   C26541803   2.011   4.260   3.729  0.3522 -0.0133 -0.1174
  130MOL   C26641804   1.762   4.392   3.487  0.2055  0.1602  0.5748
  130MOL   H26741805   1.842   4.464   3.674 -0.6539  0.9174 -0.8683
  130MOL   H26841806   1.748   4.109   3.573 -0.8201  1.7871  1.0856
  130MOL   H26941807   1.887   3.904   3.624 -1.9324  0.9348 -0.5304
  130MOL   H27041808   2.188   4.156   3.783  0.4792  4.8852 -1.5560
  130MOL   H27141809   2.061   4.354   3.747  1.1831 -0.8523  2.1430
  130MOL   H27241810   1.713   4.308   3.439  0.9247 -0.6100  1.1794
  130MOL   H27341811   1.694   4.477   3.485  0.6756  0.6734  3.5535
  130MOL   C27441812   1.882   4.447   3.415 -0.4615  0.1593  0.2546
  130MOL   C27541813   1.989   4.336   3.393  0.1347 -0.4946  0.6267
  130MOL   C27641814   2.122   4.351   3.434  0.4855  0.2383  0.1978
  130MOL   C27741815   2.222   4.252   3.406  0.0567  0.3740  0.2769
  130MOL   C27841816   2.179   4.131   3.348  0.0346  0.4169 -0.0306
  130MOL  Cl27941817   2.298   4.003   3.330  0.4081  0.3826  0.1665
  130MOL   C28041818   2.047   4.104   3.304 -0.1679 -0.8432  0.1588
  130MOL   C28141819   1.954   4.208   3.336  0.0362 -0.0384 -0.2976
  130MOL   C28241820   1.867   4.522   3.276 -0.1228  0.5384 -0.4639
  130MOL   H28341821   1.923   4.530   3.474  3.2770 -1.6867  0.3224
  130MOL   H28441822   2.159   4.431   3.497 -1.9032  0.4403  1.3981
  130MOL   H28541823   2.326   4.258   3.437  0.0713  0.1231  0.2796
  130MOL   H28641824   2.021   4.005   3.269  2.7762 -1.0001 -1.7262
  130MOL   H28741825   1.852   4.189   3.306 -0.9507  0.5996  2.5512
  130MOL   H28841826   1.969   4.536   3.241 -0.2721  0.2521 -1.0280
  130MOL   H28941827   1.818   4.459   3.201 -1.1830  0.1606  0.5200
  130MOL   C29041828   1.799   4.659   3.276  0.1053 -0.1237  0.3093
  130MOL   C29141829   1.890   4.760   3.341 -0.5354 -0.0227 -0.1004
  130MOL   C29241830   2.021   4.793   3.287  0.4697 -0.3268 -0.3664
  130MOL   C29341831   2.100   4.894   3.349  0.2830 -0.6691  0.1355
  130MOL   C29441832   2.057   4.963   3.461 -0.3860  0.6106 -0.2823
  130MOL  Cl29541833   2.154   5.101   3.510 -0.3966 -0.2377 -0.1560
  130MOL   C29641834   1.932   4.941   3.510  0.3287  0.0520  0.2085
  130MOL   C29741835   1.851   4.838   3.454 -0.3143  0.0302 -0.0084
  130MOL   C29841836   1.757   4.713   3.139  0.4182 -0.1762  0.3494
  130MOL   H29941837   1.706   4.656   3.333 -0.0971 -0.3058 -0.0357
  130MOL   H30041838   2.061   4.739   3.203 -0.8472 -3.8329  1.1581
  130MOL   H30141839   2.203   4.903   3.316  0.5279  0.3316  1.1566
  130MOL   H30241840   1.890   4.998   3.592  0.3959 -0.0511  0.3148
  130MOL   H30341841   1.757   4.807   3.496  0.5132 -1.0916  1.0451
  130MOL   H30441842   1.732   4.819   3.146 -0.6524 -0.1407 -2.9742
  130MOL   H30541843   1.833   4.705   3.062 -0.1976  1.3255 -0.4279
  130MOL   C30641844   1.623   4.644   3.081 -0.1735  0.5295  0.6539
  130MOL   C30741845   1.504   4.632   3.176  0.1022 -0.2718 -0.4182
  130MOL   C30841846   1.439   4.511   3.181 -0.4995  0.3134  0.3723
  130MOL   C30941847   1.314   4.506   3.246  0.2345 -0.2855 -0.4156
  130MOL   C31041848   1.274   4.617   3.327 -0.3812 -0.1931 -0.4323
  130MOL  Cl31141849   1.127   4.595   3.409 -0.1305  0.0140  0.1413
  130MOL   C31241850   1.347   4.735   3.333  1.1222  0.0317  0.4520
  130MOL   C31341851   1.463   4.744   3.250  0.1819  0.0020  0.0179
  130MOL   C31441852   1.579   4.722   2.952 -0.0581  0.1323 -0.8238
  130MOL   H31541853   1.648   4.542   3.052 -1.1712  1.2758 -3.0753
  130MOL   H31641854   1.462   4.434   3.109  1.0989  1.5618 -0.4670
  130MOL   H31741855   1.237   4.431   3.236 -0.3446  0.1400  0.7367
  130MOL   H31841856   1.308   4.817   3.392 -1.1114  1.2046 -2.4983
  130MOL   H31941857   1.526   4.831   3.251 -0.5218  0.5155 -0.4035
  130MOL   H32041858   1.492   4.674   2.907  0.3379 -1.8646  0.4641
  130MOL   H32141859   1.541   4.822   2.975  0.0837 -0.5754  2.8915
  130MOL   H32241860   1.656   4.741   2.878 -0.0942 -0.4265 -1.0083
  131MOL     C141861   8.417   6.933   1.972 -0.6147 -0.0629 -0.1774
  131MOL     C241862   8.395   6.862   2.106  0.4229 -0.5511 -0.3454
  131MOL     C341863   8.279   6.778   2.120  0.8859 -0.0516  0.2385
  131MOL     C441864   8.257   6.721   2.249  0.7387  0.1715 -0.4959
  131MOL     C541865   8.345   6.739   2.353 -0.2079  0.2242 -0.0110
  131MOL    Cl641866   8.309   6.681   2.510  0.4042 -0.3725  0.2423
  131MOL     C741867   0.017   6.812   2.329 -0.9034 -0.3549  0.3716
  131MOL     C841868   0.047   6.872   2.205 -0.0122 -0.4061 -0.3522
  131MOL     C941869   8.440   7.084   1.998 -0.0368 -0.1996 -0.0415
  131MOL    H1041870   8.340   6.898   1.904  0.3822 -0.4568 -1.1227
  131MOL    H1141871   8.205   6.770   2.042  0.5079  0.2860  0.5613
  131MOL    H1241872   8.171   6.658   2.266  0.5360  0.0443 -1.8853
  131MOL    H1341873   0.066   6.835   2.423 -0.5508  1.4505 -0.2514
  131MOL    H1441874   0.139   6.928   2.195 -0.2325 -0.1187 -0.8139
  131MOL    H1541875   8.351   7.120   2.049  1.0482  2.1170  0.3000
  131MOL    H1641876   0.075   7.095   2.072  0.2486  1.1224 -0.5244
  131MOL    H1741877   0.061   6.898   1.917  0.8676  0.8322  1.5298
  131MOL    C1841878   0.016   7.172   1.877 -0.4085 -0.4682  0.4348
  131MOL    C1941879   8.364   7.129   1.765 -0.9642  1.0958 -0.1483
  131MOL    C2041880   8.402   7.070   1.644 -0.3412 -0.7870 -0.8352
  131MOL    C2141881   8.310   7.016   1.560  0.3449 -0.7068  0.8748
  131MOL    C2241882   8.175   7.035   1.582  0.0803 -0.5594  1.1812
  131MOL   Cl2341883   8.056   6.987   1.467  0.6501 -0.1339 -0.0654
  131MOL    C2441884   8.136   7.105   1.701  0.2577 -0.3554 -0.1156
  131MOL    C2541885   8.229   7.150   1.793 -0.4449  0.4326  0.0604
  131MOL    C2641886   0.018   7.323   1.906 -0.2534 -0.3814 -0.9392
  131MOL    H2741887   0.110   7.140   1.832  0.2026  0.8130  0.7642
  131MOL    H2841888   0.062   7.054   1.615 -0.5801 -0.0671 -2.0930
  131MOL    H2941889   8.350   6.960   1.476 -1.6733 -2.4508  1.0397
  131MOL    H3041890   8.034   7.118   1.732  0.5258  0.0161  0.6161
  131MOL    H3141891   8.196   7.197   1.885 -1.0460  0.0903  0.0202
  131MOL    H3241892   8.437   7.386   1.820  1.0645 -0.1372 -1.1308
  131MOL    H3341893   8.375   7.340   1.971 -0.2932  3.1834 -1.7836
  131MOL    C3441894   0.150   7.365   1.984 -0.8727 -0.8765  0.3074
  131MOL    C3541895   0.272   7.393   1.884 -0.1985  0.1638  0.1580
  131MOL    C3641896   0.389   7.313   1.898  0.1772 -0.4620 -0.1295
  131MOL    C3741897   0.507   7.334   1.822  0.1299  0.0423 -0.6455
  131MOL    C3841898   0.516   7.437   1.732  0.2895  0.0488 -0.1552
  131MOL   Cl3941899   0.657   7.476   1.639  0.1141 -0.5928  0.1724
  131MOL    C4041900   0.399   7.518   1.719 -0.8506  0.1987  0.4994
  131MOL    C4141901   0.282   7.499   1.793  0.4977 -0.1261  0.3550
  131MOL    C4241902   0.132   7.490   2.073  0.4330 -0.8227 -1.1266
  131MOL    H4341903   0.197   7.284   2.040  0.7182 -0.0360  0.2053
  131MOL    H4441904   0.385   7.235   1.972 -0.5410  1.1814  1.6120
  131MOL    H4541905   0.588   7.265   1.841 -0.5412 -0.8800 -1.1213
  131MOL    H4641906   0.397   7.593   1.641 -2.3938 -0.7172 -0.3543
  131MOL    H4741907   0.202   7.571   1.785  0.4667 -0.2788 -0.9245
  131MOL    H4841908   0.230   7.514   2.114 -1.4200  1.2635  2.3458
  131MOL    H4941909   0.102   7.574   2.009 -0.5343 -1.1044 -1.0489
  131MOL    C5041910   0.051   7.468   2.202  0.0951 -0.3842 -0.4271
  131MOL    C5141911   0.088   7.343   2.284 -0.2606 -0.3869  0.2911
  131MOL    C5241912   0.220   7.321   2.325  0.4044  0.1770 -0.2052
  131MOL    C5341913   0.253   7.212   2.410 -0.1645 -0.4120 -0.3062
  131MOL    C5441914   0.151   7.126   2.452 -0.2480 -0.8441 -0.3282
  131MOL   Cl5541915   0.188   7.020   2.575  0.0790 -0.3262  0.0510
  131MOL    C5641916   0.019   7.136   2.402 -0.7992  0.1550  0.2534
  131MOL    C5741917   8.434   7.245   2.318  0.2174 -0.7397  0.0780
  131MOL    C5841918   0.064   7.591   2.290 -0.4399  0.6772  0.5073
  131MOL    H5941919   8.389   7.448   2.178 -0.1428 -0.2581  0.4730
  131MOL    H6041920   0.298   7.394   2.306  2.0432 -0.8838  2.2749
  131MOL    H6141921   0.348   7.206   2.462 -1.1189 -0.7836  1.4234
  131MOL    H6241922   8.391   7.062   2.434  0.1617 -0.9454 -0.1129
  131MOL    H6341923   8.329   7.267   2.309  0.1630 -0.4471  1.3192
  131MOL    H6441924   0.138   7.574   2.369  2.5220  3.3394 -1.5644
  131MOL    H6541925   0.107   7.673   2.234  0.6601  0.1011  0.4919
  131MOL    C6641926   8.383   7.657   2.351 -0.7059 -0.0934  0.4463
  131MOL    C6741927   8.297   7.559   2.425  0.1116  0.1998 -0.3513
  131MOL    C6841928   8.348   7.507   2.543 -0.2833 -0.0423 -0.4432
  131MOL    C6941929   8.287   7.411   2.619 -1.1477 -0.4344 -0.0557
  131MOL    C7041930   8.157   7.371   2.577  0.1916  0.4381 -0.4171
  131MOL   Cl7141931   8.062   7.249   2.664 -0.2134 -0.0831 -0.0301
  131MOL    C7241932   8.099   7.427   2.460  0.5555 -0.2594 -0.1254
  131MOL    C7341933   8.169   7.519   2.378 -0.1887 -0.0398 -0.1451
  131MOL    C7441934   8.418   7.783   2.439  0.9870 -0.6795 -0.4816
  131MOL    H7541935   8.322   7.690   2.267 -2.5561  0.4953  1.9796
  131MOL    H7641936   0.006   7.538   2.568  0.1986 -0.7585 -1.4934
  131MOL    H7741937   8.336   7.365   2.704  1.6461 -0.2107 -1.4963
  131MOL    H7841938   8.004   7.387   2.429  0.9566 -0.4932 -1.0737
  131MOL    H7941939   8.133   7.551   2.282 -0.8752  1.0196  0.4630
  131MOL    H8041940   0.026   7.754   2.530 -0.1100 -0.3629  0.2444
  131MOL    H8141941   0.041   7.847   2.380  0.2759  1.5616  1.0887
  131MOL    C8241942   8.291   7.875   2.465  0.5875 -0.8721 -0.3122
  131MOL    C8341943   8.203   7.831   2.585 -0.5650  0.0911 -0.4636
  131MOL    C8441944   8.262   7.823   2.712  0.0552 -0.0483  0.1913
  131MOL    C8541945   8.189   7.763   2.814 -0.2603 -0.3361  0.7512
  131MOL    C8641946   8.052   7.718   2.796 -0.1380 -0.1303 -0.1307
  131MOL   Cl8741947   7.977   7.639   2.932 -0.0070 -0.3818 -0.4425
  131MOL    C8841948   7.991   7.735   2.672  0.2189  0.3940 -1.1215
  131MOL    C8941949   8.070   7.793   2.570  0.3322 -0.6611 -0.3907
  131MOL    C9041950   8.324   8.019   2.473 -0.5447 -0.3330  0.0682
  131MOL    H9141951   8.221   7.867   2.381 -1.2249 -0.8363  1.1592
  131MOL    H9241952   8.368   7.843   2.714 -0.2952  1.7851  2.6086
  131MOL    H9341953   8.240   7.736   2.905  1.1402 -0.5116 -0.0665
  131MOL    H9441954   7.890   7.702   2.650  0.0607 -0.5251  0.9293
  131MOL    H9541955   8.010   7.814   2.483  1.1156 -0.2437 -0.8236
  131MOL    H9641956   8.241   8.076   2.516 -2.9433 -2.1154 -2.0197
  131MOL    H9741957   8.403   8.038   2.545  0.9147 -1.6741 -1.1499
  131MOL    C9841958   8.375   8.099   2.352 -0.6915  0.3138 -0.0696
  131MOL    C9941959   8.261   8.091   2.256  0.3269  0.2849  0.5958
  131MOL   C10041960   8.281   8.061   2.117 -0.1114 -0.0813 -0.6919
  131MOL   C10141961   8.178   8.057   2.023  1.1080 -0.0461  0.7579
  131MOL   C10241962   8.050   8.095   2.061 -0.2260 -0.2432  0.2770
  131MOL  Cl10341963   7.933   8.094   1.937 -0.4308 -0.3969 -0.1006
  131MOL   C10441964   8.025   8.140   2.190  0.3791 -0.4514 -0.0539
  131MOL   C10541965   8.132   8.140   2.290 -0.4117 -0.0120 -0.0769
  131MOL   C10641966   8.415   8.240   2.391  0.6471 -0.8884 -0.5611
  131MOL   H10741967   0.022   8.057   2.308 -1.4896 -0.3745 -1.0703
  131MOL   H10841968   8.385   8.051   2.089 -0.0036 -0.0031 -0.3319
  131MOL   H10941969   8.198   8.034   1.919  0.5305 -2.8088  1.2207
  131MOL   H11041970   7.928   8.176   2.220 -0.0393  0.2889 -2.1536
  131MOL   H11141971   8.105   8.181   2.386  0.2534 -1.1743  0.6019
  131MOL   H11241972   8.414   8.296   2.298 -1.0849 -0.6395 -0.4080
  131MOL   H11341973   8.339   8.282   2.457  2.0607  1.5157 -0.4165
  131MOL   C11441974   0.123   8.262   2.459  0.4858  0.3153  0.2732
  131MOL   C11541975   0.218   8.342   2.367 -0.7270 -0.1303  0.8228
  131MOL   C11641976   0.194   0.026   2.315  0.3153  0.3086 -0.1797
  131MOL   C11741977   0.299   0.095   2.241  0.2167  0.5191 -0.7583
  131MOL   C11841978   0.425   0.044   2.215 -0.7292 -0.1383 -0.0651
  131MOL  Cl11941979   0.541   0.147   2.128 -0.4139  0.0986  0.0331
  131MOL   C12041980   0.456   8.357   2.269  0.2490  0.3829  0.0105
  131MOL   C12141981   0.351   8.294   2.348 -0.7202 -0.6203  0.2695
  131MOL   C12241982   0.110   8.347   2.585  0.0271 -0.5519  0.4235
  131MOL   H12341983   0.169   8.166   2.480  3.2923  0.7630 -3.1601
  131MOL   H12441984   0.104   0.081   2.337  0.2971 -0.4571  1.7817
  131MOL   H12541985   0.273   0.195   2.208 -0.1605  1.1635  1.3957
  131MOL   H12641986   0.551   8.311   2.247  0.7411  1.3558  0.0611
  131MOL   H12741987   0.373   8.193   2.379 -0.9275 -0.2930  1.5019
  131MOL   H12841988   0.198   8.411   2.586 -1.4737  1.5803 -0.7073
  131MOL   H12941989   0.027   8.418   2.576  2.2353  1.8738 -1.3236
  131MOL   C13041990   0.117   8.259   2.713  0.1744  0.1327 -0.6310
  131MOL   C13141991   0.235   8.173   2.724  0.3854  0.6968 -0.2503
  131MOL   C13241992   0.367   8.229   2.725  0.5742  0.2604  0.8691
  131MOL   C13341993   0.479   8.144   2.715  0.2432 -0.3422 -0.1555
  131MOL   C13441994   0.466   8.004   2.721  0.1800 -0.1770  0.7235
  131MOL  Cl13541995   0.602   7.904   2.719 -0.0358  0.2498  0.2573
  131MOL   C13641996   0.335   7.947   2.732  0.2199 -0.1930  0.5347
  131MOL   C13741997   0.225   8.031   2.723 -0.1483 -0.2268  0.3700
  131MOL   C13841998   0.090   8.335   2.851 -1.0118 -0.0349 -0.7685
  131MOL   H13941999   0.033   8.189   2.708  1.4771 -1.5544  0.4201
  131MOL   H14042000   0.383   8.336   2.721  0.4766  0.2943  1.3116
  131MOL   H14142001   0.579   8.185   2.715 -0.7222  2.0779  0.3330
  131MOL   H14242002   0.325   7.840   2.742  2.8108 -0.5077  0.1791
  131MOL   H14342003   0.126   7.988   2.718 -0.0728 -0.6198  1.9566
  131MOL   H14442004   0.090   8.256   2.926 -0.6584 -0.0055 -0.7358
  131MOL   H14542005   0.170   8.405   2.875 -1.5064  0.5004 -0.6993
  131MOL   C14642006   8.398   8.404   2.863  0.2419 -0.6534 -0.2954
  131MOL   C14742007   8.279   8.320   2.819  0.2977  0.0276 -0.6728
  131MOL   C14842008   8.249   8.193   2.880 -0.6796 -0.2448 -0.1634
  131MOL   C14942009   8.141   8.115   2.833 -0.0648 -0.1895  0.1818
  131MOL   C15042010   8.057   8.164   2.730  0.2549  0.6299 -0.0387
  131MOL  Cl15142011   7.909   8.088   2.699 -0.4126  0.0213 -0.0505
  131MOL   C15242012   8.091   8.288   2.671  0.4383  0.4884 -0.1939
  131MOL   C15342013   8.201   8.366   2.711 -0.1037  0.2454 -0.1541
  131MOL   C15442014   8.372   0.024   3.007 -0.3765  0.1672 -0.8151
  131MOL   H15542015   8.390   0.039   2.787  0.3820 -0.7844 -0.4430
  131MOL   H15642016   8.310   8.163   2.964  1.9409 -0.7646 -2.1584
  131MOL   H15742017   8.101   8.033   2.891 -1.9086  1.8974  1.9461
  131MOL   H15842018   8.021   8.319   2.594 -0.2845  0.3633  0.4025
  131MOL   H15942019   8.226   0.021   2.672 -0.5820  1.4172  2.3290
  131MOL   H16042020   8.374   8.378   3.070  1.8244 -0.4750 -1.7290
  131MOL   H16142021   0.013   0.079   3.048 -0.9558  1.2734 -1.0988
  131MOL   C16242022   8.239   0.103   3.033 -0.4276 -0.4963 -0.2489
  131MOL   C16342023   8.195   0.097   3.180  0.0040  0.3267 -0.5277
  131MOL   C16442024   8.262   0.176   3.271 -0.2671 -0.2399 -0.8434
  131MOL   C16542025   8.205   0.190   3.402  0.1673 -1.0783 -0.5398
  131MOL   C16642026   8.090   0.120   3.441 -0.5111  0.3530 -0.1677
  131MOL  Cl16742027   8.035   0.128   3.603  0.5711  0.4193 -0.0175
  131MOL   C16842028   8.020   0.045   3.341 -0.0247 -0.6625 -0.3638
  131MOL   C16942029   8.071   0.037   3.215  0.5380 -0.5271  0.4542
  131MOL   C17042030   8.250   0.242   2.966  0.0532  0.3795 -0.1690
  131MOL   H17142031   8.157   0.072   2.967 -1.1976 -1.2899  1.0685
  131MOL   H17242032   8.360   0.217   3.252 -0.2938 -0.1030 -0.6825
  131MOL   H17342033   8.251   0.254   3.475 -1.0455  0.0651 -0.7492
  131MOL   H17442034   7.927   8.442   3.369 -1.0062 -0.0651 -2.5341
  131MOL   H17542035   8.002   8.431   3.148 -4.0506  2.0246  2.9959
  131MOL   H17642036   8.326   0.281   3.034  1.0169 -2.7003  0.5878
  131MOL   H17742037   8.296   0.231   2.868 -0.8207  1.8750 -0.7671
  131MOL   C17842038   8.131   0.337   2.977 -0.3585  0.1517  0.2433
  131MOL   C17942039   8.178   0.483   2.989 -0.0890  0.8408  0.4070
  131MOL   C18042040   8.292   0.530   2.915 -0.0394  0.1286  0.1591
  131MOL   C18142041   8.318   0.667   2.915  0.3039 -0.4170  0.3118
  131MOL   C18242042   8.250   0.754   3.001 -0.0566  0.0522 -0.6197
  131MOL  Cl18342043   8.301   0.917   3.005 -0.3240 -0.5846  0.2225
  131MOL   C18442044   8.141   0.709   3.077 -1.4083  0.2822  0.5548
  131MOL   C18542045   8.111   0.569   3.075  0.5136  0.1944  0.0089
  131MOL   C18642046   8.024   0.304   2.867  0.5776 -0.0099 -1.0766
  131MOL   H18742047   8.076   0.321   3.070 -3.0259 -0.2659 -1.3261
  131MOL   H18842048   8.357   0.463   2.861  1.2134 -0.2859  2.1089
  131MOL   H18942049   8.395   0.704   2.849 -0.6836 -1.0987 -1.2780
  131MOL   H19042050   8.102   0.786   3.142 -0.9603  1.0650 -0.0935
  131MOL   H19142051   8.029   0.533   3.135  3.0065 -2.7874  1.7489
  131MOL   H19242052   8.004   0.197   2.859  1.7032 -0.4586  1.4212
  131MOL   H19342053   7.929   0.333   2.914  1.1602 -0.2973  0.3131
  131MOL   C19442054   8.050   0.359   2.728 -0.1386  0.4373  0.0271
  131MOL   C19542055   8.024   0.267   2.608 -0.8401  0.7924 -0.1285
  131MOL   C19642056   7.901   0.203   2.594 -0.2265 -0.0063 -0.2660
  131MOL   C19742057   7.870   0.126   2.481 -0.0960  0.3898  0.0552
  131MOL   C19842058   7.963   0.108   2.385 -0.1102  0.7609  0.1934
  131MOL  Cl19942059   7.928   0.017   2.245  0.0984  0.1178 -0.2459
  131MOL   C20042060   8.091   0.165   2.397  0.1519  0.8675  0.2948
  131MOL   C20142061   8.125   0.247   2.507  0.0626  0.1520 -0.2838
  131MOL   C20242062   7.983   0.494   2.706  0.4552  0.2027  0.2146
  131MOL   H20342063   8.157   0.378   2.726 -0.4037  2.0475  0.7688
  131MOL   H20442064   7.828   0.227   2.670 -1.6487 -1.6803 -1.0739
  131MOL   H20542065   7.770   0.086   2.476 -0.1463  0.4602  0.4367
  131MOL   H20642066   8.170   0.141   2.328  1.3151  0.1505  1.8262
  131MOL   H20742067   8.215   0.306   2.511 -0.3031  0.6649  0.4006
  131MOL   H20842068   7.875   0.477   2.711  0.6048 -0.9771 -0.2893
  131MOL   H20942069   8.022   0.562   2.782 -0.0744  1.2137 -0.3954
  131MOL   C21042070   8.016   0.581   2.574  0.5746  0.3871 -0.0957
  131MOL   C21142071   7.924   0.705   2.566 -0.1860  0.1725  0.1592
  131MOL   C21242072   7.830   0.709   2.462 -0.4546  0.3159  0.2320
  131MOL   C21342073   7.746   0.823   2.442  0.4993  0.6542 -0.7942
  131MOL   C21442074   7.751   0.930   2.533  0.4080  0.4639  1.0498
  131MOL  Cl21542075   7.640   1.062   2.520 -0.1217  0.0997 -0.1476
  131MOL   C21642076   7.842   0.925   2.635 -0.4518  0.4714 -0.5765
  131MOL   C21742077   7.932   0.813   2.656 -0.1139 -0.2219  0.3320
  131MOL   C21842078   8.167   0.619   2.571 -0.2117  0.8476 -0.5668
  131MOL   H21942079   7.998   0.526   2.482  0.8150  1.7097 -0.9484
  131MOL   H22042080   7.826   0.639   2.380  0.0777  0.8845 -0.2832
  131MOL   H22142081   7.680   0.828   2.357  0.5799  2.4470 -0.7666
  131MOL   H22242082   7.846   1.015   2.696 -2.9269 -0.1734  0.5868
  131MOL   H22342083   8.010   0.807   2.730 -0.0505  0.2230  0.3045
  131MOL   H22442084   8.186   0.646   2.675  1.2218 -1.7043 -0.1280
  131MOL   H22542085   8.224   0.527   2.558  0.2030  1.1172 -0.6823
  131MOL   C22642086   8.211   0.733   2.477  0.0952  0.1226 -0.4875
  131MOL   C22742087   8.331   0.812   2.544 -0.2168  0.3228  0.3845
  131MOL   C22842088   0.022   0.759   2.547 -0.3930  0.2733 -0.0938
  131MOL   C22942089   0.117   0.833   2.619 -0.4526 -0.6934 -0.7072
  131MOL   C23042090   0.084   0.953   2.690  0.7176 -0.5175 -0.4955
  131MOL  Cl23142091   0.202   1.055   2.756  0.2334  0.3907  0.3715
  131MOL   C23242092   8.399   1.010   2.681 -0.0088  0.9603 -0.4956
  131MOL   C23342093   8.299   0.937   2.605 -0.5209  0.3534 -0.1619
  131MOL   C23442094   8.236   0.677   2.334 -0.1468 -0.2938 -0.7198
  131MOL   H23542095   8.127   0.802   2.476 -0.2669 -0.2943  0.4248
  131MOL   H23642096   0.052   0.673   2.489  0.4840  0.7208 -0.3284
  131MOL   H23742097   0.219   0.806   2.599 -0.0693  0.1930  0.0182
  131MOL   H23842098   8.378   1.104   2.730 -1.1539 -0.4962  1.8465
  131MOL   H23942099   8.200   0.975   2.584 -0.2429  1.9769  1.3033
  131MOL   H24042100   8.311   0.599   2.340 -0.7642 -1.0325 -2.2851
  131MOL   H24142101   8.144   0.632   2.298  0.4789 -3.8950  1.9575
  131MOL   C24242102   8.273   0.782   2.227  0.0124  0.7050 -0.5209
  131MOL   C24342103   8.408   0.847   2.253 -0.0772  0.1227 -0.5382
  131MOL   C24442104   8.424   0.982   2.290 -0.2302  0.6346 -0.6151
  131MOL   C24542105   0.109   1.034   2.311 -0.3720 -0.2432 -0.1880
  131MOL   C24642106   0.224   0.959   2.281  0.3974 -0.7520  1.0322
  131MOL  Cl24742107   0.381   1.033   2.288  0.2769 -0.2860  0.0544
  131MOL   C24842108   0.206   0.825   2.233 -0.4537 -0.6538 -0.5458
  131MOL   C24942109   0.075   0.771   2.224 -0.7439 -0.1524 -0.2745
  131MOL   C25042110   8.261   0.727   2.087  0.0856  0.5496  0.9267
  131MOL   H25142111   8.202   0.864   2.235 -1.5056 -0.6887  0.5591
  131MOL   H25242112   8.336   1.043   2.304 -1.3385 -0.8295 -1.1041
  131MOL   H25342113   0.123   1.137   2.343  1.8172 -0.8287  0.8794
  131MOL   H25442114   0.291   0.758   2.227 -1.0054 -1.5620  1.2990
  131MOL   H25542115   0.066   0.664   2.210  3.2646 -0.3957 -1.8732
  131MOL   H25642116   8.317   0.796   2.024 -0.9208 -0.0523 -0.6680
  131MOL   H25742117   8.314   0.632   2.074 -1.8208 -0.3887 -0.2837
  131MOL   C25842118   8.124   0.717   2.024  0.3187  0.4288 -0.3883
  131MOL   C25942119   8.055   0.854   2.007  0.1793 -0.6186 -0.4751
  131MOL   C26042120   7.925   0.871   2.054  0.3318  0.6469  0.7192
  131MOL   C26142121   7.866   0.996   2.040  0.3105 -0.7592  0.2581
  131MOL   C26242122   7.933   1.100   1.969  0.6741  0.2328 -0.1775
  131MOL  Cl26342123   7.843   1.247   1.940  0.2242  0.1569  0.2726
  131MOL   C26442124   8.060   1.081   1.918 -0.4139  0.3155 -0.0719
  131MOL   C26542125   8.124   0.962   1.938 -0.6732 -0.8474 -0.4982
  131MOL   C26642126   8.125   0.648   1.883  0.1417  0.1985 -0.3741
  131MOL   H26742127   8.061   0.647   2.080 -0.0792  1.5905  0.6382
  131MOL   H26842128   7.879   0.790   2.108  0.0347  1.1168  1.1680
  131MOL   H26942129   7.768   1.009   2.082 -0.3318 -1.5449 -0.9727
  131MOL   H27042130   8.109   1.160   1.862 -1.8849  0.6756 -0.8639
  131MOL   H27142131   8.223   0.948   1.896 -0.6795 -2.9266  0.1258
  131MOL   H27242132   8.165   0.721   1.812 -0.2371  0.1490 -0.6419
  131MOL   H27342133   8.200   0.571   1.899  0.5104  0.7678  0.6356
  131MOL   C27442134   7.992   0.584   1.830  0.7185  0.1370 -0.2744
  131MOL   C27542135   7.895   0.688   1.771  0.4768 -0.5700  0.3048
  131MOL   C27642136   7.934   0.767   1.659  0.7845  0.1677 -0.8040
  131MOL   C27742137   7.842   0.865   1.603  0.6587  0.2436 -0.4947
  131MOL   C27842138   7.714   0.870   1.651  0.2911  0.8725  0.4996
  131MOL  Cl27942139   7.612   0.990   1.581 -0.4059  0.5890  0.0145
  131MOL   C28042140   7.672   0.790   1.759  0.4515 -0.1243  0.1630
  131MOL   C28142141   7.764   0.704   1.817 -0.0257  0.1809  0.1399
  131MOL   C28242142   8.026   0.467   1.730  0.7025 -0.7690 -0.2663
  131MOL   H28342143   7.924   0.549   1.908  1.0203 -1.9977 -0.9437
  131MOL   H28442144   8.034   0.758   1.620 -0.3036 -2.4740 -3.1739
  131MOL   H28542145   7.872   0.919   1.515 -0.2919 -1.3746 -1.8457
  131MOL   H28642146   7.569   0.795   1.789  0.6917 -2.3577  1.4571
  131MOL   H28742147   7.725   0.635   1.889  0.7276 -1.5002 -1.0283
  131MOL   H28842148   7.953   0.467   1.649 -0.9340  1.5083  1.1584
  131MOL   H28942149   8.121   0.490   1.682  2.2235 -2.4099  1.8677
  131MOL   C29042150   8.033   0.330   1.790 -0.5117 -0.1737 -0.1025
  131MOL   C29142151   8.141   0.331   1.902 -0.0284  0.1125  0.0965
  131MOL   C29242152   8.281   0.313   1.867  0.1620 -0.3483  0.5024
  131MOL   C29342153   8.380   0.327   1.967 -0.0924  0.2822 -1.0784
  131MOL   C29442154   8.344   0.364   2.096  0.1925  0.9429 -0.4150
  131MOL  Cl29542155   0.022   0.381   2.216  0.0230 -0.0368  0.3572
  131MOL   C29642156   8.206   0.366   2.134  0.3868 -0.4781 -0.0147
  131MOL   C29742157   8.105   0.358   2.039 -0.0294 -0.5518 -0.9038
  131MOL   C29842158   7.893   0.265   1.830  0.0619 -0.6131  0.3415
  131MOL   H29942159   8.084   0.274   1.711  2.0704  1.2838  0.4680
  131MOL   H30042160   8.318   0.290   1.768  1.7766  1.9982  0.5176
  131MOL   H30142161   0.039   0.310   1.936  0.7656 -2.1361  2.7536
  131MOL   H30242162   8.176   0.386   2.235 -2.5009 -3.0538 -0.3154
  131MOL   H30342163   8.002   0.369   2.069  0.0089  0.3757 -1.0858
  131MOL   H30442164   7.847   0.304   1.921  1.5322 -0.3695  0.9920
  131MOL   H30542165   7.832   0.300   1.747 -0.5387 -0.7104  0.7363
  131MOL   C30642166   7.896   0.111   1.838 -0.1065  0.2184 -0.2817
  131MOL   C30742167   7.759   0.050   1.819 -0.4209  0.1181 -0.6209
  131MOL   C30842168   7.702   8.424   1.927  0.3137 -0.3617 -0.5018
  131MOL   C30942169   7.568   8.384   1.914  0.4771 -0.1041 -0.1008
  131MOL   C31042170   7.493   8.409   1.801  0.0298 -0.5945 -0.0586
  131MOL  Cl31142171   7.324   8.360   1.788 -0.0239  0.2400  0.0116
  131MOL   C31242172   7.556   0.033   1.694  0.1523  0.1594 -0.9904
  131MOL   C31342173   7.687   0.075   1.703  0.6160  0.0081  0.1570
  131MOL   C31442174   7.986   0.041   1.739 -0.2288  0.0174  0.1390
  131MOL   H31542175   7.930   0.082   1.937  0.3774  0.2496 -0.4381
  131MOL   H31642176   7.762   8.411   2.016 -2.3955  1.5928  1.6925
  131MOL   H31742177   7.516   8.331   1.993 -0.5032  0.6265 -0.2428
  131MOL   H31842178   7.503   0.041   1.600 -0.7941 -1.3732 -0.6118
  131MOL   H31942179   7.745   0.114   1.621  1.7532 -1.6437  0.1413
  131MOL   H32042180   8.091   0.042   1.768 -0.7025  0.3097  1.9646
  131MOL   H32142181   7.958   8.379   1.746  0.4660 -0.1657  0.2355
  131MOL   H32242182   7.972   0.087   1.642 -0.0273 -0.8110 -0.2901
  132MOL     C142183   2.444   7.344   6.106 -0.1011 -0.0715  0.0679
  132MOL     C242184   2.543   7.313   6.219  0.4673  0.1638 -0.3778
  132MOL     C342185   2.516   7.206   6.306  0.2564 -0.1730  0.4660
  132MOL     C442186   2.599   7.186   6.422  0.5475 -0.3258 -0.2872
  132MOL     C542187   2.720   7.258   6.435  0.4230 -0.3046 -0.2110
  132MOL    Cl642188   2.829   7.201   6.556 -0.0026  0.2544  0.3617
  132MOL     C742189   2.757   7.356   6.345 -0.0101 -0.1794  0.7469
  132MOL     C842190   2.659   7.389   6.245 -0.4202  0.1422 -0.2026
  132MOL     C942191   2.502   7.324   5.966  0.3488 -0.5694 -0.3353
  132MOL    H1042192   2.415   7.448   6.121  0.4823  0.1604 -0.4227
  132MOL    H1142193   2.422   7.154   6.292  1.6681 -2.7912  0.5699
  132MOL    H1242194   2.557   7.107   6.481  0.1253 -0.2449 -0.4783
  132MOL    H1342195   2.848   7.414   6.355 -1.2253  1.8673  0.3594
  132MOL    H1442196   2.679   7.468   6.174  0.9835 -1.1402 -1.2580
  132MOL    H1542197   2.435   7.359   5.887 -1.0045  0.1212  1.0891
  132MOL    H1642198   2.598   7.375   5.953 -0.0766  0.2554 -0.2503
  132MOL    H1742199   2.363   7.273   6.127 -0.6622  0.0098 -1.7239
  132MOL    C1842200   2.534   7.182   5.937  0.6448 -0.3516 -0.3201
  132MOL    C1942201   2.414   7.089   5.950 -0.1488  0.5968 -0.0284
  132MOL    C2042202   2.295   7.101   5.875 -0.2411  0.0587 -0.0567
  132MOL    C2142203   2.191   7.007   5.898  0.3210  0.3110  0.7958
  132MOL    C2242204   2.196   6.907   5.989 -0.7064  0.3308 -0.0532
  132MOL   Cl2342205   2.062   6.804   6.013 -0.0267  0.1387  0.2367
  132MOL    C2442206   2.311   6.902   6.070 -0.2206  0.4104  0.6343
  132MOL    C2542207   2.414   6.996   6.051 -0.4826 -0.3114 -0.1424
  132MOL    C2642208   2.609   7.151   5.806 -0.3730  0.5582  0.6728
  132MOL    H2742209   2.605   7.155   6.016  1.6652 -0.0240 -1.1059
  132MOL    H2842210   2.280   7.170   5.794 -0.9671 -0.1168 -0.0705
  132MOL    H2942211   2.097   7.027   5.849  2.1472  0.3363 -2.8911
  132MOL    H3042212   2.317   6.831   6.151  2.2149  1.9005  1.8260
  132MOL    H3142213   2.504   6.984   6.109 -0.7525 -3.0128 -0.2387
  132MOL    H3242214   2.608   7.043   5.790 -1.0549  0.8887 -1.5629
  132MOL    H3342215   2.559   7.185   5.716 -0.9226  0.6494  1.0143
  132MOL    C3442216   2.762   7.191   5.797 -0.1630 -0.5751  0.1283
  132MOL    C3542217   2.838   7.141   5.916  0.0959  0.2753 -0.4370
  132MOL    C3642218   2.898   7.234   6.007 -0.2184 -0.3679 -0.2186
  132MOL    C3742219   2.979   7.184   6.110  0.1073  0.8158 -0.5489
  132MOL    C3842220   3.005   7.046   6.132 -0.4062  0.4877  0.1222
  132MOL   Cl3942221   3.117   7.000   6.246 -0.0245  0.2200  0.0905
  132MOL    C4042222   2.943   6.959   6.047 -0.3763  0.4667 -0.6483
  132MOL    C4142223   2.872   7.004   5.938  0.1406 -0.8542  0.4000
  132MOL    C4242224   2.829   7.149   5.661 -0.1116  1.0779  0.1707
  132MOL    H4342225   2.775   7.299   5.796 -2.2597 -0.3127  0.4065
  132MOL    H4442226   2.879   7.340   6.007  0.6231 -0.1895  1.7849
  132MOL    H4542227   3.031   7.245   6.182 -2.0669  0.9084  1.0133
  132MOL    H4642228   2.952   6.853   6.067 -0.0624  0.4999 -0.6031
  132MOL    H4742229   2.843   6.928   5.868  0.8208 -0.4265 -0.3569
  132MOL    H4842230   2.831   7.042   5.645 -1.7291  1.2877 -1.6579
  132MOL    H4942231   2.774   7.183   5.573 -0.3074  0.0081 -0.1166
  132MOL    C5042232   2.980   7.208   5.657 -0.0602 -0.3473 -0.0363
  132MOL    C5142233   3.086   7.107   5.621  0.0984  0.2581 -0.0365
  132MOL    C5242234   3.076   7.054   5.491 -0.0202 -0.3662  0.2353
  132MOL    C5342235   3.164   6.956   5.448  0.0399 -0.0648 -0.4141
  132MOL    C5442236   3.261   6.907   5.543  0.8332  0.5475 -0.4096
  132MOL   Cl5542237   3.354   6.768   5.508  0.5191  0.4095  0.2329
  132MOL    C5642238   3.269   6.957   5.670 -0.0145  0.2356  0.6502
  132MOL    C5742239   3.182   7.064   5.716  0.3142  0.3429  0.8294
  132MOL    C5842240   2.979   7.335   5.580 -0.1533  0.2654  0.2720
  132MOL    H5942241   3.006   7.238   5.758 -0.1081 -0.7205  0.0884
  132MOL    H6042242   2.997   7.074   5.421  0.6718 -0.6260 -0.6349
  132MOL    H6142243   3.144   6.902   5.357 -0.8467  0.2526 -0.4087
  132MOL    H6242244   3.347   6.921   5.735  0.4748 -0.8703 -0.5145
  132MOL    H6342245   3.182   7.107   5.815  0.7832  1.3212  0.4146
  132MOL    H6442246   3.007   7.319   5.476 -0.5860 -1.5194  0.4135
  132MOL    H6542247   2.880   7.380   5.576 -1.5449 -2.4140  2.8702
  132MOL    C6642248   3.080   7.445   5.636 -0.1828 -0.4970 -0.2307
  132MOL    C6742249   3.228   7.394   5.628  0.1942  0.7154 -1.1412
  132MOL    C6842250   3.299   7.371   5.752 -0.3092  0.6000 -0.1956
  132MOL    C6942251   3.430   7.309   5.747  0.2578  0.6874  0.2266
  132MOL    C7042252   3.472   7.255   5.623 -0.1018  0.5530  1.0889
  132MOL   Cl7142253   3.625   7.172   5.615  0.0876  0.2125  0.1464
  132MOL    C7242254   3.398   7.277   5.505 -0.3226 -0.1971 -0.4313
  132MOL    C7342255   3.280   7.355   5.509 -1.2641 -0.2128  0.0913
  132MOL    C7442256   3.075   7.584   5.567  0.7241  0.5743 -0.2988
  132MOL    H7542257   3.071   7.465   5.742 -0.0416  0.3396 -0.3688
  132MOL    H7642258   3.265   7.417   5.845  0.3714  0.4337  0.1349
  132MOL    H7742259   3.492   7.302   5.835  0.2542  0.8285  0.2413
  132MOL    H7842260   3.438   7.248   5.409 -0.4161  0.9824 -0.8276
  132MOL    H7942261   3.221   7.377   5.421 -3.1238 -0.3567  1.2686
  132MOL    H8042262   3.130   7.646   5.638  0.7379 -0.7877  0.8887
  132MOL    H8142263   3.133   7.592   5.476  1.1655  0.6167 -0.0130
  132MOL    C8242264   2.935   7.643   5.540  0.3968  0.4741 -0.7148
  132MOL    C8342265   2.845   7.642   5.659 -0.0557 -0.4978 -0.0391
  132MOL    C8442266   2.718   7.580   5.659 -1.4705 -0.1074 -0.1180
  132MOL    C8542267   2.629   7.582   5.769  0.4976 -0.0967  0.2690
  132MOL    C8642268   2.667   7.651   5.885 -0.0455  0.1063 -0.2899
  132MOL   Cl8742269   2.561   7.670   6.022  0.4045  0.0008  0.1312
  132MOL    C8842270   2.795   7.712   5.889 -0.2239  0.2095  0.4424
  132MOL    C8942271   2.875   7.716   5.774 -0.2313  0.0567  0.0628
  132MOL    C9042272   2.928   7.786   5.478  0.3092 -0.3495 -0.4334
  132MOL    H9142273   2.897   7.576   5.463 -0.1206 -0.2114  0.1262
  132MOL    H9242274   2.689   7.535   5.565  1.9260  0.3941 -1.4862
  132MOL    H9342275   2.528   7.546   5.756  0.1074  0.5191  1.6007
  132MOL    H9442276   2.828   7.775   5.970 -0.4547  0.0989  0.6219
  132MOL    H9542277   2.964   7.774   5.790 -0.3239 -0.4500  2.5373
  132MOL    H9642278   2.960   7.862   5.550 -0.3245 -1.0983  0.6632
  132MOL    H9742279   3.007   7.795   5.403  0.3045  0.6119 -0.3223
  132MOL    C9842280   2.789   7.830   5.416  0.6966  0.0018  0.3754
  132MOL    C9942281   2.810   7.963   5.360 -0.1868 -0.7034  0.3472
  132MOL   C10042282   2.884   7.985   5.242  0.0500  0.4521 -0.3111
  132MOL   C10142283   2.918   8.116   5.209  0.4518  0.5044 -0.7613
  132MOL   C10242284   2.880   8.229   5.287 -0.7916 -0.8851  0.0505
  132MOL  Cl10342285   2.890   8.386   5.214 -0.3604  0.1055  0.4284
  132MOL   C10442286   2.801   8.202   5.406  0.5293 -0.3273 -0.1198
  132MOL   C10542287   2.772   8.069   5.438  0.2867  0.1568  0.0429
  132MOL   C10642288   2.731   7.725   5.309  0.5456  0.0719  0.0757
  132MOL   H10742289   2.707   7.840   5.487 -0.9929 -0.0214 -1.5123
  132MOL   H10842290   2.915   7.904   5.177 -1.7549  0.9606 -1.8735
  132MOL   H10942291   2.974   8.136   5.118  0.4687 -0.5293 -0.9816
  132MOL   H11042292   2.772   8.285   5.469  2.7800 -0.7185  1.5017
  132MOL   H11142293   2.707   8.059   5.524 -2.2009  0.2586 -1.7433
  132MOL   H11242294   2.809   7.695   5.239  0.3965 -1.4865  0.5657
  132MOL   H11342295   2.692   7.642   5.366  0.9413  1.3808  2.3188
  132MOL   C11442296   2.620   7.776   5.222 -0.6890 -0.3674  0.6541
  132MOL   C11542297   2.588   7.681   5.110  0.1848 -0.4040  0.0912
  132MOL   C11642298   2.539   7.556   5.144 -0.3211 -0.0284 -0.2052
  132MOL   C11742299   2.514   7.461   5.045 -0.6208 -0.6572  0.3215
  132MOL   C11842300   2.524   7.498   4.909 -0.1629  0.3388  0.3692
  132MOL  Cl11942301   2.507   7.385   4.773 -0.1300 -0.0704 -0.0310
  132MOL   C12042302   2.574   7.628   4.875  0.4876 -0.1910 -0.1289
  132MOL   C12142303   2.607   7.718   4.972 -0.0945 -0.7883 -0.3696
  132MOL   C12242304   2.497   7.812   5.302  0.0878 -0.0946  0.5073
  132MOL   H12342305   2.662   7.864   5.174 -0.9747 -0.9447 -0.6935
  132MOL   H12442306   2.526   7.526   5.247 -0.6272  0.5326 -0.0793
  132MOL   H12542307   2.488   7.359   5.073  1.7692 -0.4488  3.5798
  132MOL   H12642308   2.584   7.641   4.769 -1.3348  0.5615 -0.2195
  132MOL   H12742309   2.667   7.807   4.960 -0.6996 -0.3491 -0.1591
  132MOL   H12842310   2.444   7.719   5.323 -0.6252 -0.7026 -3.6144
  132MOL   H12942311   2.523   7.856   5.398  0.8089 -0.0698  0.3042
  132MOL   C13042312   2.397   7.911   5.239  0.3360  0.0841 -0.2031
  132MOL   C13142313   2.252   7.890   5.292  0.2799  0.3086 -0.0829
  132MOL   C13242314   2.226   7.863   5.428  0.7802  0.7278  0.4767
  132MOL   C13342315   2.089   7.840   5.464  0.5480  0.2300  0.3177
  132MOL   C13442316   1.987   7.824   5.369  0.9156  0.1869 -0.1946
  132MOL  Cl13542317   1.830   7.775   5.420 -0.1039  0.1303  0.1597
  132MOL   C13642318   2.020   7.840   5.238 -0.1713 -0.4972 -0.0833
  132MOL   C13742319   2.147   7.888   5.200 -0.5578  0.6697 -0.3830
  132MOL   C13842320   2.456   8.059   5.266 -0.5457  0.4864 -0.0037
  132MOL   H13942321   2.403   7.892   5.132  0.2635 -1.2034  0.0133
  132MOL   H14042322   2.312   7.872   5.493  1.4908  3.1290 -0.7768
  132MOL   H14142323   2.071   7.821   5.569 -0.0166  1.7106  0.5083
  132MOL   H14242324   1.945   7.812   5.166  0.6615  0.4831 -1.3481
  132MOL   H14342325   2.173   7.899   5.096  0.6086  0.6495 -0.0924
  132MOL   H14442326   2.456   8.077   5.373  0.0611 -0.0463  0.0911
  132MOL   H14542327   2.557   8.061   5.225 -0.3538 -1.1598  0.3504
  132MOL   C14642328   2.379   8.177   5.187  0.5635 -0.2564  0.0031
  132MOL   C14742329   2.383   8.310   5.263  0.1312 -0.5547  0.2330
  132MOL   C14842330   2.261   8.381   5.300 -0.1077 -0.3858  0.7885
  132MOL   C14942331   2.266   0.053   5.382  0.0393  0.5013 -0.4405
  132MOL   C15042332   2.388   0.090   5.446  0.6033  0.4043 -0.0169
  132MOL  Cl15142333   2.396   0.225   5.554 -0.3162 -0.4237  0.3370
  132MOL   C15242334   2.502   0.010   5.427 -0.3617  0.6030  0.1082
  132MOL   C15342335   2.499   8.342   5.341  0.1447  0.5360  0.0753
  132MOL   C15442336   2.423   8.204   5.041  0.1899  0.0977  0.0385
  132MOL   H15542337   2.274   8.150   5.181  0.7582 -0.7893 -1.0130
  132MOL   H15642338   2.169   8.338   5.262 -0.1838 -0.3942  0.9866
  132MOL   H15742339   2.180   0.110   5.414  0.5384  0.6099  0.7416
  132MOL   H15842340   2.594   0.046   5.470 -0.8923  0.7126  1.1679
  132MOL   H15942341   2.590   8.285   5.328 -0.8525 -1.6227  2.1570
  132MOL   H16042342   2.473   8.301   5.035  2.8777 -1.2160  0.6223
  132MOL   H16142343   2.504   8.133   5.027  0.3229  0.4900 -1.3311
  132MOL   C16242344   2.318   8.179   4.936  0.3632  0.6345  0.0606
  132MOL   C16342345   2.221   8.296   4.918 -0.8767 -0.2354 -0.8846
  132MOL   C16442346   2.261   8.422   4.872  0.2996 -0.9556 -0.1145
  132MOL   C16542347   2.173   0.086   4.843  0.0216  0.0769  0.1243
  132MOL   C16642348   2.040   0.061   4.850  0.1010 -0.3068  0.2414
  132MOL  Cl16742349   1.925   0.194   4.813 -0.2776  0.1255 -0.5280
  132MOL   C16842350   1.993   8.379   4.879 -0.3760  0.3104  0.1041
  132MOL   C16942351   2.081   8.277   4.922 -0.8334  0.0075 -0.0366
  132MOL   C17042352   2.381   8.136   4.801 -0.2736 -0.8776  0.4447
  132MOL   H17142353   2.241   8.111   4.970  1.3034 -0.5551 -0.1734
  132MOL   H17242354   2.366   0.001   4.871  0.3465 -1.1047  0.9940
  132MOL   H17342355   2.210   0.183   4.815 -0.8364  0.4938  0.4028
  132MOL   H17442356   1.888   8.360   4.896 -0.3624 -0.7991 -0.9933
  132MOL   H17542357   2.031   8.184   4.944 -1.6533  0.6417  0.8559
  132MOL   H17642358   2.321   8.163   4.715  3.4677  0.9258 -1.6748
  132MOL   H17742359   2.481   8.173   4.783 -0.3536 -0.1064  1.5499
  132MOL   C17842360   2.389   7.987   4.784  0.2972  0.8592  0.1376
  132MOL   C17942361   2.255   7.915   4.789  0.0157 -0.1113  0.5190
  132MOL   C18042362   2.248   7.789   4.863  0.0635 -0.2178  0.2040
  132MOL   C18142363   2.120   7.736   4.893  0.6359 -0.5453 -0.2944
  132MOL   C18242364   2.006   7.796   4.838  0.0444 -0.2208  0.1155
  132MOL  Cl18342365   1.855   7.727   4.889  0.1488  0.2206  0.1682
  132MOL   C18442366   2.017   7.911   4.753 -0.0775 -0.4286  0.8477
  132MOL   C18542367   2.142   7.969   4.731  0.8905 -0.0799  0.3964
  132MOL   C18642368   2.477   7.945   4.664 -0.0785  0.4419  0.2667
  132MOL   H18742369   2.442   7.948   4.871  1.1731 -0.6841 -1.0507
  132MOL   H18842370   2.333   7.737   4.905  0.2748 -1.2380 -1.4456
  132MOL   H18942371   2.104   7.655   4.962 -3.0985 -0.2679 -0.7064
  132MOL   H19042372   1.934   7.965   4.710  0.9556  0.1194 -0.5210
  132MOL   H19142373   2.145   8.060   4.673 -0.0892  0.1784  0.7344
  132MOL   H19242374   2.574   7.994   4.664  0.2863 -0.2721  1.3665
  132MOL   H19342375   2.505   7.842   4.685 -3.2622 -0.4613  0.3222
  132MOL   C19442376   2.410   7.953   4.524  0.2407  0.0465  0.2564
  132MOL   C19542377   2.390   8.099   4.475  0.4425 -0.1497  0.3917
  132MOL   C19642378   2.483   8.200   4.504 -0.3356 -0.2281 -0.2133
  132MOL   C19742379   2.464   8.335   4.451  0.1385 -0.1192 -0.3376
  132MOL   C19842380   2.355   8.357   4.363 -0.0300 -0.3449  0.9269
  132MOL  Cl19942381   2.332   0.076   4.291 -0.1217  0.1709  0.4552
  132MOL   C20042382   2.262   8.257   4.324  0.1858  0.8103  0.1885
  132MOL   C20142383   2.281   8.130   4.383  0.1633 -0.0499  0.0012
  132MOL   C20242384   2.493   7.870   4.418 -0.3564  0.4445  0.6911
  132MOL   H20342385   2.306   7.922   4.517 -0.1014  1.2479 -0.0061
  132MOL   H20442386   2.576   8.185   4.558 -1.3226  0.3409  1.6858
  132MOL   H20542387   2.535   8.413   4.474 -0.3806  0.5848 -1.1003
  132MOL   H20642388   2.176   8.281   4.263 -0.2143 -0.1520  0.3580
  132MOL   H20742389   2.208   8.057   4.351 -0.8045  0.6019  0.6787
  132MOL   H20842390   2.433   7.884   4.328 -1.5016 -1.2549  1.1631
  132MOL   H20942391   2.579   7.930   4.389  0.4952 -1.5699 -1.0364
  132MOL   C21042392   2.520   7.717   4.437 -0.4120 -1.2312  0.2031
  132MOL   C21142393   2.385   7.641   4.428  1.3881  0.0211  0.0445
  132MOL   C21242394   2.314   7.624   4.553  0.2649  0.8758  0.3111
  132MOL   C21342395   2.194   7.550   4.560 -0.2683 -0.3183  0.1406
  132MOL   C21442396   2.135   7.502   4.441  0.3951 -0.9292 -0.4310
  132MOL  Cl21542397   1.982   7.405   4.442  0.1532 -0.7224  0.1871
  132MOL   C21642398   2.208   7.510   4.320  0.1469  0.0727  0.6313
  132MOL   C21742399   2.331   7.581   4.314 -0.5880 -0.5220 -0.5797
  132MOL   C21842400   2.639   7.657   4.358  0.2898  0.4180  0.0623
  132MOL   H21942401   2.553   7.707   4.541 -1.8650 -2.2151  0.5938
  132MOL   H22042402   2.353   7.666   4.645 -0.9308 -0.9390  1.6893
  132MOL   H22142403   2.142   7.534   4.653  0.8237  3.3140  1.4740
  132MOL   H22242404   2.172   7.476   4.224  1.9821 -0.9501  0.2909
  132MOL   H22342405   2.385   7.589   4.221  0.6536 -1.3581  0.0651
  132MOL   H22442406   2.632   7.550   4.375 -2.6966  0.5534  0.0848
  132MOL   H22542407   2.623   7.681   4.253 -0.0277 -2.2088 -0.5209
  132MOL   C22642408   2.771   7.719   4.389 -0.5084 -0.1717 -1.1997
  132MOL   C22742409   2.813   7.700   4.533 -0.0777  0.1052 -0.5738
  132MOL   C22842410   2.820   7.568   4.577 -0.0129  0.5515  0.1457
  132MOL   C22942411   2.861   7.542   4.707  0.1564 -0.4367 -0.1020
  132MOL   C23042412   2.896   7.651   4.795 -0.5958 -0.2379 -0.2615
  132MOL  Cl23142413   2.955   7.611   4.951 -0.2437  0.0528 -0.1564
  132MOL   C23242414   2.896   7.785   4.749  0.5053 -0.0476 -0.1495
  132MOL   C23342415   2.854   7.810   4.618  0.2860 -0.0872  0.1842
  132MOL   C23442416   2.886   7.678   4.293  0.4370  0.2898  0.4137
  132MOL   H23542417   2.760   7.827   4.384  0.4282 -0.0668 -1.0884
  132MOL   H23642418   2.785   7.485   4.517 -0.4955 -0.6200  2.0043
  132MOL   H23742419   2.871   7.439   4.735 -2.2355 -0.5535  0.4455
  132MOL   H23842420   2.941   7.852   4.821 -0.0826 -0.0560  0.2302
  132MOL   H23942421   2.869   7.910   4.579  2.5298 -0.8007 -0.8597
  132MOL   H24042422   2.977   7.711   4.342  0.1299  1.1036  0.4420
  132MOL   H24142423   2.891   7.569   4.284 -1.1258  0.3863 -1.9492
  132MOL   C24242424   2.866   7.728   4.151 -0.6632  0.6050 -0.1839
  132MOL   C24342425   2.815   7.873   4.154 -0.0550  0.4766  0.1092
  132MOL   C24442426   2.901   7.981   4.194  0.2372  0.1817  0.3862
  132MOL   C24542427   2.845   8.115   4.200  0.3330 -0.3773 -0.2308
  132MOL   C24642428   2.723   8.137   4.153  0.1812  0.0228  0.0122
  132MOL  Cl24742429   2.657   8.295   4.159 -0.0910  0.2150 -0.0973
  132MOL   C24842430   2.640   8.030   4.105 -0.4736  0.4741  0.3706
  132MOL   C24942431   2.687   7.900   4.107 -0.9321  0.0186  0.4925
  132MOL   C25042432   3.001   7.714   4.065 -0.3402  0.7363 -0.1845
  132MOL   H25142433   2.783   7.678   4.101 -2.1321  3.5200 -0.7722
  132MOL   H25242434   3.003   7.960   4.221  0.3308 -1.4794 -1.1562
  132MOL   H25342435   2.892   8.198   4.251  0.0845 -0.7990  0.6961
  132MOL   H25442436   2.540   8.046   4.067 -0.4305  0.1506  0.1143
  132MOL   H25542437   2.614   7.830   4.070 -0.7610 -0.1484  0.4693
  132MOL   H25642438   2.997   7.784   3.981 -0.0464 -0.5292 -1.2754
  132MOL   H25742439   3.090   7.735   4.124 -0.7941  0.9333  0.4348
  132MOL   C25842440   3.012   7.571   3.989 -0.1401 -0.1602 -0.4936
  132MOL   C25942441   2.892   7.545   3.898 -0.0080  0.1763  0.4736
  132MOL   C26042442   2.874   7.615   3.775 -0.2530 -0.1146 -0.1643
  132MOL   C26142443   2.757   7.597   3.703  0.1005 -0.0811 -0.1431
  132MOL   C26242444   2.660   7.509   3.748  0.4782  1.0466  0.5765
  132MOL  Cl26342445   2.529   7.482   3.638 -0.1431 -0.3384  0.2453
  132MOL   C26442446   2.684   7.421   3.860 -0.1728  0.2132  0.1254
  132MOL   C26542447   2.801   7.449   3.933 -0.1187  0.0779  0.1754
  132MOL   C26642448   3.148   7.567   3.907  1.1745  0.0118  0.7214
  132MOL   H26742449   3.019   7.489   4.062  0.6449  1.0125  0.7786
  132MOL   H26842450   2.951   7.684   3.742  0.6476 -0.4902  1.0922
  132MOL   H26942451   2.728   7.656   3.617  0.7520  0.9295  0.3152
  132MOL   H27042452   2.620   7.336   3.883 -2.6777  1.4106 -2.1228
  132MOL   H27142453   2.832   7.380   4.010  1.9094 -0.6114 -1.2154
  132MOL   H27242454   3.151   7.484   3.837  2.0150  2.2173 -1.9566
  132MOL   H27342455   3.141   7.654   3.841 -1.2690 -0.2472  0.5845
  132MOL   C27442456   3.273   7.567   3.989  0.7538  0.7978 -0.1261
  132MOL   C27542457   3.302   7.427   4.050  0.0396  0.4756  0.9138
  132MOL   C27642458   3.375   7.325   3.970  0.5897 -0.6720 -0.3209
  132MOL   C27742459   3.404   7.203   4.032  0.1026 -0.4041  0.8371
  132MOL   C27842460   3.359   7.171   4.163  0.6219  0.9326 -0.1196
  132MOL  Cl27942461   3.398   7.023   4.224 -0.0516 -0.1197 -0.3306
  132MOL   C28042462   3.287   7.272   4.236  0.5044 -0.9997 -0.2187
  132MOL   C28142463   3.253   7.395   4.179  0.4533 -0.5244  0.6207
  132MOL   C28242464   3.396   7.630   3.925 -0.0242 -0.2800 -0.1213
  132MOL   H28342465   3.259   7.631   4.076  0.4087  0.1094  0.3327
  132MOL   H28442466   3.414   7.343   3.871  1.7150 -1.4886 -0.0348
  132MOL   H28542467   3.459   7.128   3.978 -2.4704 -2.2720  0.7188
  132MOL   H28642468   3.262   7.244   4.338 -0.9408  0.0657 -0.2761
  132MOL   H28742469   3.187   7.465   4.228 -3.4478 -2.8241 -1.1032
  132MOL   H28842470   3.480   7.612   3.992 -1.5757 -2.8935  1.1730
  132MOL   H28942471   3.428   7.579   3.834 -1.7267  0.8457 -1.3759
  132MOL   C29042472   3.391   7.779   3.893 -0.3826 -0.5728 -0.1326
  132MOL   C29142473   3.362   7.872   4.009  0.3278 -0.4742  1.4980
  132MOL   C29242474   3.276   7.987   3.984  0.0788 -0.0325 -0.0691
  132MOL   C29342475   3.235   8.075   4.089 -0.5161  0.1277 -0.2624
  132MOL   C29442476   3.285   8.059   4.212  0.7827 -0.2054 -0.2207
  132MOL  Cl29542477   3.234   8.161   4.342  0.2150 -0.2829 -0.5142
  132MOL   C29642478   3.377   7.955   4.236 -0.5528  0.4816  0.4738
  132MOL   C29742479   3.416   7.859   4.138  0.4227  0.5759 -0.0749
  132MOL   C29842480   3.505   7.839   3.800  0.7428 -0.1071 -0.1653
  132MOL   H29942481   3.303   7.799   3.832  0.0572 -0.4360 -0.7289
  132MOL   H30042482   3.234   8.009   3.887 -2.4723  1.0089  1.2390
  132MOL   H30142483   3.173   8.163   4.074 -0.4140  0.3841  0.8083
  132MOL   H30242484   3.424   7.940   4.333 -1.0357  0.3939  0.6931
  132MOL   H30342485   3.494   7.787   4.159  1.1450  0.5372 -2.7553
  132MOL   H30442486   3.492   7.947   3.802 -1.4831 -0.3587  0.4314
  132MOL   H30542487   3.603   7.821   3.843  0.0298 -3.1689  0.3250
  132MOL   C30642488   3.503   7.792   3.651  0.5988  0.0670  0.6747
  132MOL   C30742489   3.355   7.795   3.600  0.3347 -0.0058 -0.3454
  132MOL   C30842490   3.273   7.684   3.578 -0.2275  0.5405 -0.4590
  132MOL   C30942491   3.152   7.692   3.518 -0.4901  0.0718 -0.2277
  132MOL   C31042492   3.110   7.818   3.479 -0.2677  0.7896  0.8704
  132MOL  Cl31142493   2.965   7.834   3.391 -0.0015  0.0500 -0.5741
  132MOL   C31242494   3.185   7.936   3.508 -0.2990  0.0068  0.6374
  132MOL   C31342495   3.311   7.925   3.570  0.0283  0.3793  0.2182
  132MOL   C31442496   3.605   7.861   3.567  0.0452 -0.0372  0.2298
  132MOL   H31542497   3.525   7.686   3.667  0.8833 -0.0967 -0.7457
  132MOL   H31642498   3.308   7.582   3.590 -0.2971  0.4171 -1.3208
  132MOL   H31742499   3.089   7.610   3.486 -0.2873 -0.4138  0.6017
  132MOL   H31842500   3.143   8.028   3.469  0.0739 -0.3744 -0.6974
  132MOL   H31942501   3.378   8.008   3.582  1.3595 -0.3865 -1.6439
  132MOL   H32042502   3.705   7.840   3.605  0.1603  2.9655  1.6963
  132MOL   H32142503   3.601   7.827   3.463 -0.4435  1.3628 -0.2250
  132MOL   H32242504   3.591   7.968   3.555  3.1790  0.1949 -2.1145
  133MOL     C142505   7.082   0.406   4.315 -0.4682 -0.4928  0.0215
  133MOL     C242506   6.976   0.378   4.411 -0.3769 -0.2171  0.0309
  133MOL     C342507   6.924   0.479   4.498 -0.2667  0.2576  0.3225
  133MOL     C442508   6.814   0.448   4.581  0.0816  0.4410 -0.0908
  133MOL     C542509   6.766   0.311   4.583  0.9929  0.1776  0.6375
  133MOL    Cl642510   6.649   0.268   4.704 -0.2952 -0.0084 -0.1198
  133MOL     C742511   6.811   0.216   4.489 -0.0657  0.2253  0.1683
  133MOL     C842512   6.922   0.252   4.404 -0.1649  0.1907  0.1114
  133MOL     C942513   7.093   0.548   4.269  0.2242  0.2720 -0.5082
  133MOL    H1042514   7.069   0.340   4.229 -0.0340 -0.5725  0.0138
  133MOL    H1142515   6.956   0.582   4.492  0.1991  0.0305 -1.1907
  133MOL    H1242516   6.789   0.523   4.655  0.9855  1.0439 -0.3831
  133MOL    H1342517   6.769   0.117   4.482 -4.2584  1.9821 -1.2733
  133MOL    H1442518   6.966   0.185   4.332 -0.7550 -1.2574  1.0843
  133MOL    H1542519   6.995   0.587   4.239 -0.3532  0.9797  2.1873
  133MOL    H1642520   7.127   0.607   4.354  1.5374 -1.7137  0.3727
  133MOL    H1742521   7.175   0.375   4.364 -0.1329 -0.0329 -0.3302
  133MOL    C1842522   7.209   0.564   4.158  0.0803  0.3312  0.1797
  133MOL    C1942523   7.165   0.513   4.017 -0.1728 -0.3624 -0.7328
  133MOL    C2042524   7.255   0.427   3.955 -0.3802 -0.0472  0.0863
  133MOL    C2142525   7.224   0.388   3.820 -0.0846  0.2094 -0.8120
  133MOL    C2242526   7.102   0.423   3.756 -0.0239 -0.0872  0.2048
  133MOL   Cl2342527   7.061   0.358   3.602 -0.0081  0.0932  0.0650
  133MOL    C2442528   7.015   0.506   3.825  0.3412 -0.0098  0.1305
  133MOL    C2542529   7.047   0.551   3.952 -0.0073  0.4335  0.7854
  133MOL    C2642530   7.267   0.708   4.161 -0.6581 -0.3847 -0.8329
  133MOL    H2742531   7.286   0.497   4.196 -0.3320  0.2751  0.9225
  133MOL    H2842532   7.351   0.412   4.003 -0.5983 -2.9759 -0.3048
  133MOL    H2942533   7.300   0.324   3.778 -0.1243  0.0115 -0.5830
  133MOL    H3042534   6.924   0.541   3.780  0.0931  0.8366  1.2532
  133MOL    H3142535   6.972   0.621   3.987 -1.0244 -0.7039  0.9344
  133MOL    H3242536   7.183   0.777   4.167  2.1197  3.1795 -1.0437
  133MOL    H3342537   7.310   0.723   4.260 -1.3738  1.4270 -0.7810
  133MOL    C3442538   7.353   0.757   4.038 -0.4225 -0.0449 -0.0284
  133MOL    C3542539   7.383   0.905   4.043  0.2962 -0.5355 -0.0399
  133MOL    C3642540   7.479   0.957   4.129  0.1288  0.3686  0.5420
  133MOL    C3742541   7.507   1.094   4.130 -0.0930 -0.1939 -0.4450
  133MOL    C3842542   7.437   1.176   4.044 -0.9473  0.6129  0.0742
  133MOL   Cl3942543   7.483   1.339   4.039  0.1493 -0.2682 -0.3692
  133MOL    C4042544   7.331   1.129   3.965  0.7564  0.1938 -0.4777
  133MOL    C4142545   7.306   0.990   3.963 -0.3631 -0.0631 -0.2945
  133MOL    C4242546   7.494   0.678   4.020  0.3678  0.3505 -0.5080
  133MOL    H4342547   7.278   0.740   3.962 -0.9553  0.1624  0.4479
  133MOL    H4442548   7.528   0.883   4.190  0.6480  1.4937  1.5010
  133MOL    H4542549   7.585   1.136   4.192 -0.3378 -0.2460 -0.0959
  133MOL    H4642550   7.271   1.194   3.902  1.0201 -1.2201 -2.2437
  133MOL    H4742551   7.227   0.942   3.908 -0.3832  1.0585 -1.2708
  133MOL    H4842552   7.556   0.690   4.108 -1.5259  2.1723  0.6376
  133MOL    H4942553   7.465   0.573   4.030  2.1115 -0.1299 -0.4905
  133MOL    C5042554   7.562   0.701   3.881 -0.2347  0.4145 -0.0416
  133MOL    C5142555   7.677   0.598   3.871 -0.0096  0.0033  0.1103
  133MOL    C5242556   7.811   0.652   3.846  0.2237  0.0508  0.0417
  133MOL    C5342557   7.918   0.568   3.874  0.5637 -0.0945  0.1499
  133MOL    C5442558   7.894   0.427   3.894  0.0952 -1.0697  0.2384
  133MOL   Cl5542559   8.032   0.327   3.901 -0.0243  0.0802 -0.2314
  133MOL    C5642560   7.767   0.378   3.909  0.2585 -0.3822  0.2124
  133MOL    C5742561   7.658   0.462   3.908  0.4485 -0.2146  0.0405
  133MOL    C5842562   7.457   0.685   3.766  0.5887  0.5488  0.4048
  133MOL    H5942563   7.605   0.801   3.885  4.1498 -1.3781  0.4140
  133MOL    H6042564   7.827   0.757   3.827  0.1182  0.3651  1.5881
  133MOL    H6142565   8.016   0.611   3.863  0.7761  0.1331  2.5254
  133MOL    H6242566   7.761   0.271   3.920 -2.0415 -0.1801  1.1104
  133MOL    H6342567   7.563   0.411   3.910  0.5501 -0.6150 -2.5245
  133MOL    H6442568   7.398   0.594   3.777  1.3751 -0.1330 -0.8116
  133MOL    H6542569   7.384   0.766   3.772 -0.4201 -0.0317 -3.0014
  133MOL    C6642570   7.508   0.690   3.618  0.4323  0.0032 -0.1783
  133MOL    C6742571   7.533   0.559   3.550  0.3447  0.2697  0.6542
  133MOL    C6842572   7.428   0.480   3.498  0.6453 -0.1344  0.3329
  133MOL    C6942573   7.450   0.353   3.443  0.2249  0.0472 -0.1387
  133MOL    C7042574   7.584   0.306   3.421 -0.0983 -0.5358 -0.2602
  133MOL   Cl7142575   7.614   0.150   3.354  0.3293  0.1213  0.3409
  133MOL    C7242576   7.692   0.389   3.456  0.2287  0.0985  0.2670
  133MOL    C7342577   7.666   0.510   3.522  0.7648 -0.8200 -0.5364
  133MOL    C7442578   7.434   0.787   3.522 -0.1136  0.6114 -0.2170
  133MOL    H7542579   7.608   0.731   3.634  0.0004  1.1960 -0.4558
  133MOL    H7642580   7.326   0.512   3.513  0.7160 -0.3672  1.3594
  133MOL    H7742581   7.372   0.293   3.399  1.1859 -1.1361 -0.2522
  133MOL    H7842582   7.792   0.351   3.445  0.7783  1.7924 -0.8716
  133MOL    H7942583   7.753   0.570   3.541 -0.4448  0.3407  1.5405
  133MOL    H8042584   7.486   0.769   3.428  1.4643  1.6038  0.4373
  133MOL    H8142585   7.335   0.742   3.511 -0.9993  2.0826  1.5084
  133MOL    C8242586   7.420   0.943   3.553 -0.4024 -0.7598 -1.0180
  133MOL    C8342587   7.549   1.004   3.609 -0.0792 -0.4671 -0.1815
  133MOL    C8442588   7.678   0.973   3.552 -0.2844 -0.2698 -0.3010
  133MOL    C8542589   7.800   1.032   3.608 -0.5242  0.1635 -0.0229
  133MOL    C8642590   7.787   1.115   3.716  0.2832  0.2120 -0.5187
  133MOL   Cl8742591   7.927   1.189   3.791  0.4275 -0.1698 -0.6836
  133MOL    C8842592   7.661   1.148   3.766 -0.2361 -0.0791 -0.4631
  133MOL    C8942593   7.546   1.097   3.712  0.8967 -0.1545  0.2018
  133MOL    C9042594   7.360   1.022   3.432 -0.3965 -0.1091  0.2049
  133MOL    H9142595   7.351   0.953   3.636  1.7490 -1.2135  0.8623
  133MOL    H9242596   7.691   0.898   3.476 -1.6151 -1.0252  0.2026
  133MOL    H9342597   7.899   1.013   3.570  0.8242  4.6376  1.0158
  133MOL    H9442598   7.664   1.228   3.839  1.2993 -0.0855 -0.4981
  133MOL    H9542599   7.454   1.139   3.749  0.8403 -0.0237 -0.0836
  133MOL    H9642600   7.366   1.129   3.454 -1.7006  0.1292 -0.5465
  133MOL    H9742601   7.424   0.987   3.350 -0.4275 -0.7256  0.4401
  133MOL    C9842602   7.216   0.984   3.396  0.5836  0.7121 -0.1588
  133MOL    C9942603   7.125   1.025   3.511  0.1016  0.0704  0.0985
  133MOL   C10042604   7.116   1.164   3.550  0.0429 -0.7186  0.6737
  133MOL   C10142605   7.030   1.203   3.656 -0.7842 -0.0232 -0.3359
  133MOL   C10242606   6.974   1.105   3.741 -0.1508  0.4675 -0.0688
  133MOL  Cl10342607   6.872   1.163   3.872 -0.4008 -0.0617  0.1695
  133MOL   C10442608   6.993   0.970   3.710 -0.7741  0.0225 -0.0659
  133MOL   C10542609   7.072   0.927   3.602 -0.5090  0.4531 -0.4814
  133MOL   C10642610   7.172   1.048   3.266 -0.5591 -0.0095 -0.1065
  133MOL   H10742611   7.212   0.875   3.389 -1.3397  0.7833 -0.5111
  133MOL   H10842612   7.158   1.248   3.497 -0.3346 -0.7787  0.2779
  133MOL   H10942613   7.013   1.309   3.668 -1.8426 -0.0060 -1.8383
  133MOL   H11042614   6.946   0.898   3.775 -0.3529 -0.3793 -0.1988
  133MOL   H11142615   7.095   0.823   3.583  1.2852  0.7860 -0.2436
  133MOL   H11242616   7.065   1.036   3.247 -0.7573 -0.9132  1.5057
  133MOL   H11342617   7.192   1.155   3.274  1.6184 -0.5335  2.0916
  133MOL   C11442618   7.242   0.994   3.138 -0.2642  1.0442 -0.0514
  133MOL   C11542619   7.229   0.843   3.117  0.6659  0.7289  0.6385
  133MOL   C11642620   7.105   0.787   3.077  0.6557 -0.0718  0.1949
  133MOL   C11742621   7.088   0.647   3.055 -0.3193  0.2379  0.5420
  133MOL   C11842622   7.205   0.563   3.064  0.1477  0.2708  0.2435
  133MOL  Cl11942623   7.185   0.389   3.019  0.0724 -0.0687  0.3829
  133MOL   C12042624   7.327   0.612   3.104 -0.3781 -0.6984  0.1074
  133MOL   C12142625   7.336   0.752   3.127 -0.1599  0.0325  0.1688
  133MOL   C12242626   7.216   1.071   3.010 -0.0306  0.7343 -0.2374
  133MOL   H12342627   7.350   1.005   3.153 -0.0794 -1.1044  0.3081
  133MOL   H12442628   7.030   0.862   3.057 -0.4080 -1.3638 -0.7364
  133MOL   H12542629   6.991   0.613   3.022 -0.0018  0.1985 -0.3454
  133MOL   H12642630   7.414   0.549   3.116  1.2994  1.4600 -0.2358
  133MOL   H12742631   7.433   0.769   3.172  0.1711 -2.6219  0.5694
  133MOL   H12842632   7.120   1.041   2.968 -0.0584 -1.2122  1.1181
  133MOL   H12942633   7.216   1.174   3.046  1.3269  1.1572 -1.4068
  133MOL   C13042634   7.323   1.050   2.900  0.0808 -0.2918 -0.8638
  133MOL   C13142635   7.256   1.050   2.755 -0.2201 -0.0545 -0.3317
  133MOL   C13242636   7.292   0.949   2.664 -0.5101 -0.0501  0.1676
  133MOL   C13342637   7.217   0.923   2.547 -0.3435 -0.7519  0.0157
  133MOL   C13442638   7.112   1.006   2.509 -0.0696 -0.2250 -0.4344
  133MOL  Cl13542639   7.025   0.980   2.368  0.2686 -0.3700  0.0727
  133MOL   C13642640   7.087   1.119   2.591 -0.0424  0.5443  0.1710
  133MOL   C13742641   7.151   1.139   2.716  0.1480  0.3406  0.4161
  133MOL   C13842642   7.439   1.147   2.901  0.9163  0.4519  0.1767
  133MOL   H13942643   7.369   0.951   2.902 -0.5428 -0.5739 -0.2617
  133MOL   H14042644   7.366   0.879   2.700  1.3083  2.0059  0.5338
  133MOL   H14142645   7.238   0.833   2.491 -0.9018 -1.3552  0.7579
  133MOL   H14242646   7.008   1.189   2.568 -0.6643 -0.4617 -0.7575
  133MOL   H14342647   7.113   1.216   2.782 -0.4944 -0.3340  0.8409
  133MOL   H14442648   7.486   1.143   2.803  0.3938  1.6452 -0.1307
  133MOL   H14542649   7.398   1.248   2.899 -2.4862 -0.8253  2.0705
  133MOL   C14642650   7.549   1.151   3.021  0.1430  0.8132  0.4265
  133MOL   C14742651   7.618   1.011   3.048 -0.6176  0.2460 -0.1579
  133MOL   C14842652   7.642   0.967   3.183 -1.3307 -0.0493 -0.0847
  133MOL   C14942653   7.690   0.835   3.194  0.2714 -0.5378 -0.0931
  133MOL   C15042654   7.717   0.758   3.081  0.3370 -0.3996 -0.8798
  133MOL  Cl15142655   7.767   0.592   3.112  0.0619  0.2412  0.1875
  133MOL   C15242656   7.707   0.805   2.949  0.2275 -0.0148 -0.7945
  133MOL   C15342657   7.648   0.930   2.936  0.7210 -0.2035  0.8795
  133MOL   C15442658   7.655   1.262   3.005  0.4833 -0.4171 -0.3182
  133MOL   H15542659   7.483   1.163   3.107  1.9284  0.5093  1.8499
  133MOL   H15642660   7.627   1.032   3.268 -1.7377 -0.4222  0.1316
  133MOL   H15742661   7.702   0.785   3.289 -2.8854 -1.7125 -0.2629
  133MOL   H15842662   7.721   0.735   2.867 -0.1749 -0.3478 -0.5822
  133MOL   H15942663   7.611   0.955   2.837  0.8157  3.3027  1.6759
  133MOL   H16042664   7.746   1.230   3.054 -0.1243 -1.6132  0.0484
  133MOL   H16142665   7.677   1.253   2.899  1.6522  0.3141 -0.1400
  133MOL   C16242666   7.606   1.411   3.035 -0.4090  0.2791  0.6318
  133MOL   C16342667   7.593   1.431   3.182 -0.6000  0.2396 -0.7084
  133MOL   C16442668   7.471   1.448   3.255 -0.0094 -0.5985  0.1638
  133MOL   C16542669   7.474   1.457   3.392 -0.1074 -0.5802 -0.8016
  133MOL   C16642670   7.593   1.444   3.465  0.6852  1.2122  0.2341
  133MOL  Cl16742671   7.590   1.442   3.635 -0.0189 -0.1573 -0.0781
  133MOL   C16842672   7.713   1.432   3.394 -0.1701  0.5598  0.6936
  133MOL   C16942673   7.714   1.422   3.251  0.4302  0.1569  0.2841
  133MOL   C17042674   7.692   1.518   2.965 -0.1590  0.3070 -0.1386
  133MOL   H17142675   7.504   1.426   3.001 -0.1007 -3.4543 -2.2879
  133MOL   H17242676   7.387   1.456   3.188  0.8650 -2.2138 -1.1705
  133MOL   H17342677   7.382   1.474   3.445  1.6927  2.3443  1.5649
  133MOL   H17442678   7.805   1.437   3.451  0.2017  3.5800 -0.0997
  133MOL   H17542679   7.812   1.403   3.211  0.8578 -0.1050  1.4421
  133MOL   H17642680   7.673   1.617   3.005 -3.1899 -0.6012  0.7618
  133MOL   H17742681   7.791   1.478   2.987  0.7514  1.7499 -1.5272
  133MOL   C17842682   7.679   1.532   2.813  0.2479 -0.2729 -0.6214
  133MOL   C17942683   7.543   1.550   2.760  0.1190 -0.4431  0.2592
  133MOL   C18042684   7.458   1.654   2.818 -0.4748  0.0748  0.0590
  133MOL   C18142685   7.325   1.671   2.782 -0.2492 -0.8427 -0.3115
  133MOL   C18242686   7.270   1.593   2.679 -0.1664  1.0897  0.1458
  133MOL  Cl18342687   7.100   1.615   2.644 -0.1980  0.1363 -0.3737
  133MOL   C18442688   7.352   1.494   2.614  0.6968 -0.1756 -0.6258
  133MOL   C18542689   7.485   1.468   2.661 -0.5750 -0.6659  0.0084
  133MOL   C18642690   7.768   1.647   2.761  0.1905 -0.0813 -0.6640
  133MOL   H18742691   7.705   1.440   2.760  2.2453 -0.8749  1.3172
  133MOL   H18842692   7.507   1.716   2.890 -0.5428  0.7316 -0.4580
  133MOL   H18942693   7.263   1.746   2.829 -0.7493 -0.3111 -1.7784
  133MOL   H19042694   7.315   1.444   2.526 -1.8384 -0.0242  0.3124
  133MOL   H19142695   7.550   1.395   2.614  0.6623  0.7028 -0.4325
  133MOL   H19242696   7.753   1.665   2.654  0.5257  1.7913 -0.4252
  133MOL   H19342697   7.754   1.743   2.811  2.6654 -0.6485  1.1729
  133MOL   C19442698   7.914   1.614   2.757  0.0142  0.2050 -0.5914
  133MOL   C19542699   7.943   1.482   2.674  0.3236 -0.6901 -0.5579
  133MOL   C19642700   7.923   1.484   2.537 -0.1500 -0.2194 -0.6544
  133MOL   C19742701   7.930   1.369   2.465 -0.2611 -1.4916 -0.4023
  133MOL   C19842702   7.991   1.253   2.522  0.0912  0.2323  0.8862
  133MOL  Cl19942703   8.027   1.126   2.407  0.4955 -0.1339  0.2475
  133MOL   C20042704   8.019   1.246   2.659 -0.2502  0.0016  0.3472
  133MOL   C20142705   7.993   1.364   2.733  0.2343  0.5268 -0.1540
  133MOL   C20242706   8.002   1.733   2.714  0.1224 -0.4507  0.1908
  133MOL   H20342707   7.938   1.584   2.859 -0.0968 -0.4714 -0.7636
  133MOL   H20442708   7.872   1.573   2.503  2.6169  1.4620 -0.5597
  133MOL   H20542709   7.897   1.377   2.363 -1.0169  4.2639  0.1150
  133MOL   H20642710   8.074   1.162   2.698  0.5092  0.6540  0.7003
  133MOL   H20742711   8.016   1.361   2.839 -1.0861 -1.7533  0.0910
  133MOL   H20842712   8.107   1.706   2.725  0.0892 -0.5374  0.2856
  133MOL   H20942713   7.974   1.753   2.611  1.3469  4.0141  0.5997
  133MOL   C21042714   7.992   1.863   2.805 -0.4810 -0.5986  0.6618
  133MOL   C21142715   7.971   1.829   2.954 -0.3690  0.0563  0.0576
  133MOL   C21242716   8.056   1.740   3.025  0.2825  0.7227  0.5601
  133MOL   C21342717   8.033   1.706   3.159 -0.2582 -0.0476  0.3116
  133MOL   C21442718   7.916   1.750   3.225 -0.2764  0.7541 -0.2671
  133MOL  Cl21542719   7.894   1.727   3.391 -0.3544  0.3931 -0.0459
  133MOL   C21642720   7.828   1.831   3.151  0.2943  0.3186  0.3677
  133MOL   C21742721   7.856   1.878   3.021  0.2513 -0.5444  0.4412
  133MOL   C21842722   8.123   1.952   2.776 -0.1861  0.6849 -0.2007
  133MOL   H21942723   7.907   1.922   2.770  1.4386  1.1529 -1.2620
  133MOL   H22042724   8.133   1.694   2.964 -1.3965 -1.4968  0.0069
  133MOL   H22142725   8.105   1.645   3.211 -0.3896  0.0059  0.5596
  133MOL   H22242726   7.738   1.863   3.200 -0.8826 -2.2125 -0.0758
  133MOL   H22342727   7.786   1.943   2.970  0.6328 -0.6295 -0.2018
  133MOL   H22442728   8.105   2.040   2.838  1.8435  0.6757  0.4269
  133MOL   H22542729   8.213   1.900   2.809 -0.4059 -0.1633 -0.8919
  133MOL   C22642730   8.147   1.983   2.624  0.2462  0.1550 -0.2214
  133MOL   C22742731   8.057   2.095   2.580  0.2203  0.7987 -0.4177
  133MOL   C22842732   7.944   2.067   2.511  0.0391 -0.1579 -0.6134
  133MOL   C22942733   7.862   2.174   2.466 -0.5520  0.9035 -0.4444
  133MOL   C23042734   7.897   2.307   2.483  0.2860 -0.3202  1.2033
  133MOL  Cl23142735   7.805   2.428   2.393  0.1143  0.3677  0.1386
  133MOL   C23242736   8.008   2.339   2.563  0.3670 -0.1735 -0.3595
  133MOL   C23342737   8.085   2.232   2.617  0.0173 -0.0487 -0.1356
  133MOL   C23442738   8.294   2.009   2.590  0.7594  0.5679  0.5110
  133MOL   H23542739   8.121   1.894   2.566 -2.9340 -0.4533  2.0232
  133MOL   H23642740   7.905   1.967   2.500  0.3065 -0.1342 -1.8844
  133MOL   H23742741   7.771   2.147   2.415 -1.3659  1.0104  0.9205
  133MOL   H23842742   8.021   2.444   2.584  1.9285 -1.0886  3.7106
  133MOL   H23942743   8.176   2.253   2.672  0.5228 -0.3880 -0.8335
  133MOL   H24042744   8.312   2.100   2.533 -1.3748  1.5124  1.2883
  133MOL   H24142745   8.347   2.028   2.683  0.8715  1.4557  0.2677
  133MOL   C24242746   8.355   1.892   2.511 -0.5110  0.1196  0.3427
  133MOL   C24342747   8.365   1.752   2.587 -0.0465 -0.3285  0.3998
  133MOL   C24442748   8.285   1.649   2.539  0.7822 -0.0153 -0.2463
  133MOL   C24542749   8.288   1.527   2.612  0.4267 -0.6538 -0.8587
  133MOL   C24642750   8.358   1.521   2.738  0.1076 -0.1245 -0.4366
  133MOL  Cl24742751   8.336   1.372   2.829 -0.1516 -0.0473 -0.2294
  133MOL   C24842752   0.002   1.629   2.782  0.0312  0.7733  0.7382
  133MOL   C24942753   8.442   1.742   2.702 -0.7972 -0.3770 -0.7813
  133MOL   C25042754   8.305   1.892   2.361 -0.4377  0.6898 -0.3529
  133MOL   H25142755   0.020   1.910   2.508 -0.5309  0.5161  1.5928
  133MOL   H25242756   8.233   1.655   2.445  2.8997  0.2825 -1.4463
  133MOL   H25342757   8.228   1.442   2.580 -0.8528 -0.4119  0.8407
  133MOL   H25442758   0.062   1.627   2.871  0.5946  0.7624  0.3583
  133MOL   H25542759   0.067   1.816   2.742 -0.6140  0.2813 -2.3063
  133MOL   H25642760   8.199   1.869   2.363 -0.1451 -0.6549 -0.0270
  133MOL   H25742761   8.316   1.992   2.318  1.0924  0.6434 -0.1235
  133MOL   C25842762   8.387   1.812   2.261  0.4413  0.3087 -0.2381
  133MOL   C25942763   8.295   1.749   2.161  0.0049  0.2069 -0.7250
  133MOL   C26042764   8.275   1.607   2.165  0.3994  0.2018 -0.0220
  133MOL   C26142765   8.181   1.547   2.074 -0.1854  0.4810 -0.1863
  133MOL   C26242766   8.103   1.631   1.991  0.1002 -0.7089 -0.1663
  133MOL  Cl26342767   7.998   1.563   1.867  0.1926 -0.0671  0.3440
  133MOL   C26442768   8.125   1.769   1.984  0.3435 -0.2851  0.0497
  133MOL   C26542769   8.223   1.831   2.064 -0.1275  0.1040  0.5925
  133MOL   C26642770   0.060   1.890   2.188  0.5982 -0.0330  0.7536
  133MOL   H26742771   8.436   1.732   2.317  1.1297  1.2126  0.4656
  133MOL   H26842772   8.345   1.546   2.221  1.1202  1.2050  0.1791
  133MOL   H26942773   8.161   1.441   2.075 -0.6739  0.5460  3.4373
  133MOL   H27042774   8.078   1.825   1.905 -0.9862 -1.7721 -0.2279
  133MOL   H27142775   8.248   1.935   2.050  0.8351 -0.1630  0.3233
  133MOL   H27242776   0.033   1.907   2.083  0.4828 -1.0497  0.6188
  133MOL   H27342777   0.072   1.987   2.236  1.4665  1.3079 -2.0339
  133MOL   C27442778   0.194   1.817   2.181 -0.8171  0.3901  0.0082
  133MOL   C27542779   0.286   1.880   2.078 -0.6739 -0.8848  0.3728
  133MOL   C27642780   0.300   2.020   2.069  0.4700  0.2577  0.6118
  133MOL   C27742781   0.381   2.075   1.968 -0.7114  0.8707  0.5084
  133MOL   C27842782   0.446   1.987   1.877 -0.3376 -0.4779 -0.2771
  133MOL  Cl27942783   0.549   2.052   1.755 -0.3683  0.2976 -0.1699
  133MOL   C28042784   0.427   1.849   1.879 -0.8740 -0.1516  0.4590
  133MOL   C28142785   0.348   1.792   1.984 -0.2967  0.0083  0.8696
  133MOL   C28242786   0.255   1.801   2.319  0.5925 -0.6318 -0.6205
  133MOL   H28342787   0.175   1.717   2.140 -0.2675 -0.4733  1.8111
  133MOL   H28442788   0.245   2.083   2.137  1.5082  0.5194  1.2106
  133MOL   H28542789   0.386   2.182   1.960 -0.7462  0.6795 -2.4241
  133MOL   H28642790   0.472   1.788   1.802  0.9001  0.8296  0.6865
  133MOL   H28742791   0.340   1.684   1.990 -1.4522  0.1800  2.9316
  133MOL   H28842792   0.352   1.850   2.318 -0.1197  0.7815 -1.2230
  133MOL   H28942793   0.202   1.860   2.394  1.8408 -0.4300  0.1130
  133MOL   C29042794   0.283   1.652   2.361 -0.0342  0.5896 -0.1504
  133MOL   C29142795   0.379   1.587   2.263  0.8816  0.2489  0.0943
  133MOL   C29242796   0.507   1.637   2.255  0.3244 -0.4051 -0.0257
  133MOL   C29342797   0.605   1.576   2.176  0.5611 -0.2060 -0.1038
  133MOL   C29442798   0.559   1.476   2.088 -0.5941  0.9397 -0.7785
  133MOL  Cl29542799   0.661   1.404   1.971 -0.3596 -0.0491  0.2317
  133MOL   C29642800   0.429   1.419   2.100  0.5487  0.8693  0.3931
  133MOL   C29742801   0.341   1.469   2.192  0.0335 -0.9993  0.5578
  133MOL   C29842802   0.336   1.630   2.504  0.9927  0.1219  0.1985
  133MOL   H29942803   0.187   1.601   2.358 -0.3340  1.0812  0.8028
  133MOL   H30042804   0.534   1.718   2.322  2.4645 -1.9412  1.0135
  133MOL   H30142805   0.705   1.615   2.179  0.5297  0.0160 -1.3615
  133MOL   H30242806   0.390   1.338   2.040  0.8427  0.7438  0.3715
  133MOL   H30342807   0.241   1.427   2.193 -1.0387  1.4231 -0.4674
  133MOL   H30442808   0.428   1.688   2.514 -0.7781  2.9640  0.3671
  133MOL   H30542809   0.253   1.664   2.566  1.9245  0.4873  1.2620
  133MOL   C30642810   0.374   1.489   2.545 -0.2115  0.4595 -0.2712
  133MOL   C30742811   0.395   1.485   2.698 -0.5497  0.1121  0.3076
  133MOL   C30842812   0.300   1.425   2.782 -0.5006 -0.0816  0.2602
  133MOL   C30942813   0.322   1.429   2.924 -0.3827 -0.5677  0.2828
  133MOL   C31042814   0.436   1.482   2.979  0.3539  0.2268 -0.1365
  133MOL  Cl31142815   0.456   1.462   3.148  0.1875 -0.3759 -0.0835
  133MOL   C31242816   0.537   1.542   2.892  1.6465  0.4440 -0.5183
  133MOL   C31342817   0.513   1.539   2.752 -0.1624  0.1856 -0.5667
  133MOL   C31442818   0.272   1.380   2.495 -0.1304 -0.0634 -0.5278
  133MOL   H31542819   0.468   1.470   2.493 -1.2549  0.0218 -2.0202
  133MOL   H31642820   0.205   1.384   2.754  0.2430 -2.6696  1.3431
  133MOL   H31742821   0.252   1.375   2.985 -0.1151 -2.5912 -1.1491
  133MOL   H31842822   0.625   1.588   2.934  1.2602  0.9196 -0.2333
  133MOL   H31942823   0.586   1.575   2.681  1.7777 -2.2029  0.1557
  133MOL   H32042824   0.277   1.358   2.388 -1.3629 -3.6133  0.0820
  133MOL   H32142825   0.291   1.279   2.532 -2.0023 -0.6496 -1.0994
  133MOL   H32242826   0.172   1.408   2.529  0.3902 -0.4280  1.3362
  134MOL     C142827   2.889   0.175   4.561  0.2005 -0.7273 -0.3884
  134MOL     C242828   2.865   0.043   4.622  0.6081 -0.3266  0.5566
  134MOL     C342829   2.852   8.370   4.542  0.2645 -0.4132  0.6275
  134MOL     C442830   2.822   8.246   4.598 -0.0119 -0.1789  0.8855
  134MOL     C542831   2.818   8.240   4.734  0.1677  1.3162 -0.5145
  134MOL    Cl642832   2.784   8.097   4.819  0.0463 -0.1266 -0.1574
  134MOL     C742833   2.835   8.353   4.819 -0.4126 -0.3631  0.4561
  134MOL     C842834   2.856   0.035   4.760 -0.0300  0.1515 -0.0272
  134MOL     C942835   2.768   0.266   4.581  0.0571  0.4015  0.3081
  134MOL    H1042836   2.903   0.162   4.453 -0.3976  0.6715 -0.6482
  134MOL    H1142837   2.856   8.376   4.435 -2.7579  0.9131  0.5345
  134MOL    H1242838   2.805   8.168   4.524  2.0363  1.2274 -1.1478
  134MOL    H1342839   2.839   8.352   4.926  1.7041 -0.3743  0.3951
  134MOL    H1442840   2.866   0.127   4.816 -0.5907 -1.1811  2.3617
  134MOL    H1542841   2.678   0.204   4.574 -0.0483  0.3578  1.8829
  134MOL    H1642842   2.769   0.296   4.686  1.2526  0.5323  0.2670
  134MOL    H1742843   2.982   0.214   4.603  1.1811 -3.0485 -0.3151
  134MOL    C1842844   2.761   0.385   4.484 -0.4721  0.3976 -0.7537
  134MOL    C1942845   2.745   0.344   4.340  0.1031 -0.0662  0.6487
  134MOL    C2042846   2.645   0.257   4.296  0.5852  0.3647 -0.1480
  134MOL    C2142847   2.627   0.218   4.160 -0.0585 -0.2820  0.6164
  134MOL    C2242848   2.723   0.266   4.060  0.3667  0.5332 -0.1142
  134MOL   Cl2342849   2.696   0.219   3.897 -0.0456  0.2639 -0.7124
  134MOL    C2442850   2.828   0.352   4.106  0.1012  0.0060 -0.7936
  134MOL    C2542851   2.843   0.391   4.242  0.2449 -0.4139 -0.1325
  134MOL    C2642852   2.657   0.486   4.529  0.0820 -0.3534  0.4576
  134MOL    H2742853   2.860   0.429   4.495 -0.8161  0.8099  0.7018
  134MOL    H2842854   2.573   0.214   4.365  0.0486  2.4424  0.6118
  134MOL    H2942855   2.542   0.157   4.137 -0.0729 -0.4317  1.0726
  134MOL    H3042856   2.896   0.394   4.034 -1.4462  0.3837 -2.0659
  134MOL    H3142857   2.919   0.465   4.263 -0.6051  0.3647  0.2299
  134MOL    H3242858   2.564   0.429   4.533 -1.0811  1.5423  1.1006
  134MOL    H3342859   2.678   0.511   4.633  1.6548 -1.5623  0.4505
  134MOL    C3442860   2.635   0.601   4.428 -0.7246  0.1488  0.2437
  134MOL    C3542861   2.506   0.665   4.469 -0.1855 -1.1004 -0.0708
  134MOL    C3642862   2.388   0.671   4.394  0.4688  0.4826 -0.1608
  134MOL    C3742863   2.272   0.736   4.448 -0.9850  0.3778  0.7991
  134MOL    C3842864   2.273   0.784   4.576  0.3142  0.2291 -0.0455
  134MOL   Cl3942865   2.130   0.857   4.635  0.2784 -0.5048 -0.2000
  134MOL    C4042866   2.381   0.773   4.655  0.3582 -0.3770  0.1650
  134MOL    C4142867   2.506   0.726   4.599 -0.4295  0.4967  0.0441
  134MOL    C4242868   2.751   0.704   4.427 -0.1909 -0.3973 -0.3441
  134MOL    H4342869   2.612   0.556   4.331 -3.6909  0.5850  0.6759
  134MOL    H4442870   2.388   0.621   4.298  0.4605 -0.7315  0.4573
  134MOL    H4542871   2.177   0.725   4.398 -0.5384 -2.8667  0.5516
  134MOL    H4642872   2.382   0.806   4.758 -1.8365 -1.5467  0.5850
  134MOL    H4742873   2.588   0.724   4.669 -0.7211  1.0600  0.4111
  134MOL    H4842874   2.748   0.775   4.509  0.9737  0.2473 -0.8571
  134MOL    H4942875   2.843   0.646   4.432 -0.0169 -0.0484  0.4690
  134MOL    C5042876   2.756   0.796   4.303  0.1125  0.3029 -0.1843
  134MOL    C5142877   2.831   0.925   4.318  0.1383  0.0992 -0.3157
  134MOL    C5242878   2.774   1.044   4.277 -0.2804 -0.1250 -0.1965
  134MOL    C5342879   2.838   1.166   4.314 -0.5159  0.2160 -0.2267
  134MOL    C5442880   2.968   1.165   4.376 -0.1923 -0.3183 -0.2998
  134MOL   Cl5542881   3.047   1.313   4.409 -0.0124 -0.3064 -0.3082
  134MOL    C5642882   3.024   1.044   4.409  0.0940  0.0502  0.6518
  134MOL    C5742883   2.955   0.922   4.385 -0.0669 -1.0778  0.3039
  134MOL    C5842884   2.811   0.716   4.182 -0.1059 -0.3702 -0.4416
  134MOL    H5942885   2.659   0.826   4.265  0.6291 -1.2057 -2.8026
  134MOL    H6042886   2.686   1.050   4.214 -0.9387  1.0093  0.8109
  134MOL    H6142887   2.780   1.255   4.296  1.2638  1.7750  1.4923
  134MOL    H6242888   3.125   1.048   4.447  1.4887  2.7684 -3.0640
  134MOL    H6342889   2.993   0.828   4.420 -0.7200 -0.6624  2.1791
  134MOL    H6442890   2.906   0.673   4.214 -0.2462  0.8267  1.6477
  134MOL    H6542891   2.749   0.629   4.157 -0.6265 -0.1537  0.0770
  134MOL    C6642892   2.853   0.782   4.047  0.0555 -0.0351  0.3567
  134MOL    C6742893   3.004   0.816   4.045  0.4016  0.3791 -0.2094
  134MOL    C6842894   3.105   0.723   4.068 -0.4016  0.3880  0.9001
  134MOL    C6942895   3.243   0.759   4.055 -0.2258  0.0683  0.3528
  134MOL    C7042896   3.277   0.895   4.026 -0.2722  0.1639 -0.2623
  134MOL   Cl7142897   3.446   0.946   4.049  0.2323 -0.1319  0.1393
  134MOL    C7242898   3.182   0.988   4.007 -1.1124  0.3227 -0.1890
  134MOL    C7342899   3.045   0.948   4.010 -0.2375 -1.0312 -0.7766
  134MOL    C7442900   2.800   0.700   3.928 -0.1418 -0.5771  0.1155
  134MOL    H7542901   2.803   0.877   4.033 -0.5744 -0.2589  1.0431
  134MOL    H7642902   3.080   0.622   4.097  0.3146  0.1186  0.5894
  134MOL    H7742903   3.321   0.692   4.088 -0.1851  1.2104  2.6793
  134MOL    H7842904   3.200   1.093   3.988  0.5237  0.0719 -0.1051
  134MOL    H7942905   2.963   1.017   3.995  0.8927  0.3519 -0.6695
  134MOL    H8042906   2.835   0.599   3.951 -0.0812 -0.5083  0.3209
  134MOL    H8142907   2.692   0.684   3.926 -0.1820 -0.3129  0.1620
  134MOL    C8242908   2.869   0.725   3.792 -0.3938 -0.5184  0.2836
  134MOL    C8342909   2.835   0.612   3.700  0.2205 -0.1207  0.1118
  134MOL    C8442910   2.697   0.589   3.662  0.4920  0.1811  0.1678
  134MOL    C8542911   2.662   0.470   3.599 -0.1442  0.4251 -0.2268
  134MOL    C8642912   2.767   0.380   3.565  0.3887  0.9879 -0.4875
  134MOL   Cl8742913   2.727   0.233   3.482  0.0359 -0.6239 -0.4024
  134MOL    C8842914   2.904   0.414   3.585 -0.0652 -0.5148 -0.3218
  134MOL    C8942915   2.939   0.527   3.651 -0.0595  0.1598 -0.9065
  134MOL    C9042916   2.828   0.863   3.735 -0.2891 -0.5349 -0.1452
  134MOL    H9142917   2.978   0.724   3.805 -0.3237 -1.0762 -0.2659
  134MOL    H9242918   2.621   0.649   3.709 -0.8408  0.2645 -1.9851
  134MOL    H9342919   2.558   0.453   3.576  0.1480 -0.8283 -0.6890
  134MOL    H9442920   2.988   0.358   3.545 -0.7461 -0.7524 -1.4310
  134MOL    H9542921   3.040   0.558   3.672  0.4553 -0.9098 -1.7660
  134MOL    H9642922   2.724   0.856   3.705 -0.4738 -2.0988  0.7946
  134MOL    H9742923   2.839   0.939   3.813 -0.7887 -0.9499  0.3309
  134MOL    C9842924   2.903   0.915   3.613  0.1072  0.0853 -0.2617
  134MOL    C9942925   2.814   0.990   3.511 -0.2621 -0.1187 -0.0842
  134MOL   C10042926   2.742   0.914   3.417  0.1006  0.0763 -0.4873
  134MOL   C10142927   2.649   0.984   3.337 -0.0102 -0.7902  0.2650
  134MOL   C10242928   2.635   1.124   3.334  0.2450 -0.5742  0.2553
  134MOL  Cl10342929   2.515   1.204   3.241  0.0098  0.3021  0.1238
  134MOL   C10442930   2.716   1.199   3.422  0.3580  0.8469 -0.7293
  134MOL   C10542931   2.803   1.131   3.508 -0.6095  0.7910 -0.2396
  134MOL   C10642932   3.044   0.973   3.649  0.5743 -0.1090  0.1237
  134MOL   H10742933   2.921   0.828   3.549 -0.2826 -1.6970  2.0075
  134MOL   H10842934   2.747   0.807   3.404 -2.2495  0.0996 -1.9501
  134MOL   H10942935   2.588   0.922   3.272  1.4058 -0.3932 -1.4917
  134MOL   H11042936   2.695   1.305   3.426  0.3836  0.7634  2.4356
  134MOL   H11142937   2.873   1.182   3.572 -1.8871  0.5759  1.3451
  134MOL   H11242938   3.040   1.082   3.656 -1.7531 -0.2979  2.6749
  134MOL   H11342939   3.066   0.936   3.749  4.0829  2.6231  0.4926
  134MOL   C11442940   3.162   0.921   3.565  0.3368 -0.0511 -0.4094
  134MOL   C11542941   3.135   0.933   3.418 -0.4931  0.4962  0.1166
  134MOL   C11642942   3.121   1.055   3.357 -0.2610  0.3133  0.1820
  134MOL   C11742943   3.071   1.063   3.223  0.6685 -0.6708  0.4170
  134MOL   C11842944   3.072   0.946   3.143  0.4829  0.6207 -0.2547
  134MOL  Cl11942945   3.031   0.955   2.979 -0.1255  0.2856 -0.1552
  134MOL   C12042946   3.093   0.821   3.207  0.6943 -0.7703  0.1750
  134MOL   C12142947   3.120   0.820   3.346 -0.0727 -0.2745  0.1044
  134MOL   C12242948   3.290   0.994   3.615 -0.5037  0.0726 -0.3322
  134MOL   H12342949   3.179   0.815   3.586 -1.9386 -0.1246  1.2837
  134MOL   H12442950   3.133   1.140   3.423  0.9438 -0.4451  0.9471
  134MOL   H12542951   3.035   1.159   3.189 -1.7294 -1.6185  0.1715
  134MOL   H12642952   3.080   0.723   3.163  0.0486 -0.2762 -0.7667
  134MOL   H12742953   3.138   0.724   3.393  1.8396 -0.2273 -0.4942
  134MOL   H12842954   3.299   1.094   3.572  3.6082  0.9004  2.1639
  134MOL   H12942955   3.294   1.003   3.724  0.2207  2.7796 -0.5617
  134MOL   C13042956   3.427   0.919   3.595  0.0963  0.5745 -0.4117
  134MOL   C13142957   3.467   0.890   3.449 -0.2445  0.1622  0.1758
  134MOL   C13242958   3.526   0.767   3.431 -0.3792  0.2774  0.0073
  134MOL   C13342959   3.586   0.727   3.313  0.2400  0.8634  0.0951
  134MOL   C13442960   3.572   0.810   3.198  0.0511 -0.5598  0.3799
  134MOL  Cl13542961   3.627   0.762   3.043 -0.3164  0.3137  0.4835
  134MOL   C13642962   3.506   0.936   3.210  0.0210  0.5049  0.0496
  134MOL   C13742963   3.455   0.973   3.340 -0.9229 -0.3261  0.1588
  134MOL   C13842964   3.544   0.990   3.671 -0.2768 -0.0323  0.0646
  134MOL   H13942965   3.411   0.822   3.642 -0.7492  0.5114 -0.8161
  134MOL   H14042966   3.548   0.699   3.512 -0.6710 -0.4233 -0.5006
  134MOL   H14142967   3.621   0.626   3.297  0.5267  1.1354 -1.0585
  134MOL   H14242968   3.503   1.004   3.125 -2.2377  0.6151  0.1844
  134MOL   H14342969   3.421   1.074   3.357  0.2598 -0.2136  2.0777
  134MOL   H14442970   3.511   0.995   3.775 -0.4944 -0.3600  0.0142
  134MOL   H14542971   3.626   0.918   3.665 -2.6827 -2.7185 -2.1949
  134MOL   C14642972   3.596   1.132   3.639 -0.0169 -0.6029  0.1921
  134MOL   C14742973   3.487   1.245   3.649 -0.5463 -0.6360 -0.0676
  134MOL   C14842974   3.418   1.268   3.769  0.0193  0.0700 -0.0400
  134MOL   C14942975   3.321   1.365   3.769  0.2688 -0.7090  0.1967
  134MOL   C15042976   3.276   1.435   3.652  0.6332  0.2774  0.2707
  134MOL  Cl15142977   3.122   1.528   3.656 -0.0173  0.1813  0.5110
  134MOL   C15242978   3.353   1.414   3.532  0.3034 -0.5212  0.2898
  134MOL   C15342979   3.461   1.327   3.539  0.7167  0.0359 -0.3338
  134MOL   C15442980   3.711   1.162   3.739  0.1444  0.3878 -0.5071
  134MOL   H15542981   3.638   1.126   3.539  0.2220 -2.3556  0.3813
  134MOL   H15642982   3.434   1.210   3.859 -1.6204  0.2336  0.3652
  134MOL   H15742983   3.262   1.380   3.858  0.7110  2.1609  0.0724
  134MOL   H15842984   3.325   1.449   3.434  1.1618  0.9329  0.5321
  134MOL   H15942985   3.517   1.303   3.449  0.0970 -0.2066 -0.6553
  134MOL   H16042986   3.682   1.148   3.843  1.7232 -3.7302 -0.4974
  134MOL   H16142987   3.780   1.078   3.728 -1.2338 -1.5316  4.4336
  134MOL   C16242988   3.778   1.305   3.739 -0.2204 -0.4745  0.2057
  134MOL   C16342989   3.824   1.358   3.881  0.8751 -0.6148  0.0662
  134MOL   C16442990   3.726   1.405   3.972  0.0046 -0.1452 -0.1362
  134MOL   C16542991   3.760   1.478   4.087 -0.5790 -0.2318 -0.0318
  134MOL   C16642992   3.897   1.473   4.127  1.0494  0.1515  0.1844
  134MOL  Cl16742993   3.941   1.517   4.288  0.3632 -0.1657 -0.0551
  134MOL   C16842994   3.994   1.419   4.041 -0.3551  0.7382  0.3844
  134MOL   C16942995   3.958   1.371   3.919  0.0719 -0.7762  0.6370
  134MOL   C17042996   3.876   1.334   3.621 -0.0824  0.2369 -0.4537
  134MOL   H17142997   3.691   1.367   3.719 -0.0368  0.3679  1.9614
  134MOL   H17242998   3.621   1.398   3.950  0.2821  0.5303 -1.7048
  134MOL   H17342999   3.684   1.522   4.149 -0.9132 -1.5804  0.5286
  134MOL   H17443000   4.094   1.403   4.078 -1.1000 -3.0086  0.9407
  134MOL   H17543001   4.033   1.329   3.855  0.5453  1.3915 -0.2662
  134MOL   H17643002   3.978   1.355   3.653 -0.2753 -0.6778  0.7642
  134MOL   H17743003   3.869   1.246   3.557  1.4057  0.1308 -0.4886
  134MOL   C17843004   3.833   1.452   3.533 -0.1475  0.7064 -0.4416
  134MOL   C17943005   3.827   1.581   3.612 -0.3897  0.1848 -0.6305
  134MOL   C18043006   3.699   1.616   3.661 -0.0031  0.1341  0.0197
  134MOL   C18143007   3.686   1.727   3.751 -0.1989  0.2733  0.0126
  134MOL   C18243008   3.798   1.806   3.779 -0.2331 -0.6059 -0.0488
  134MOL  Cl18343009   3.776   1.947   3.868 -0.2033  0.2713 -0.6263
  134MOL   C18443010   3.927   1.776   3.724 -0.4845 -0.8974  0.7406
  134MOL   C18543011   3.940   1.659   3.643 -0.2696  0.1854  0.2580
  134MOL   C18643012   3.922   1.458   3.412 -0.3679  0.4870  0.3128
  134MOL   H18743013   3.740   1.420   3.487  1.2909 -1.6156 -1.8231
  134MOL   H18843014   3.614   1.552   3.643  0.6812 -1.1984  1.4244
  134MOL   H18943015   3.590   1.745   3.797  0.1487  0.2276  0.7685
  134MOL   H19043016   4.016   1.828   3.756  0.9353 -2.8802  0.1511
  134MOL   H19143017   4.036   1.626   3.605 -0.8186  1.3442 -2.2215
  134MOL   H19243018   4.025   1.465   3.445  0.2534  1.3519 -1.6807
  134MOL   H19343019   3.911   1.370   3.349 -1.0531  1.7630 -1.4221
  134MOL   C19443020   3.902   1.574   3.309  0.0993 -0.3123 -0.1617
  134MOL   C19543021   4.017   1.578   3.213 -0.9556 -0.6394 -0.2237
  134MOL   C19643022   4.013   1.494   3.099  0.9277  0.2456  0.3853
  134MOL   C19743023   4.123   1.490   3.008  0.7497 -0.0262  0.8113
  134MOL   C19843024   4.228   1.575   3.031  0.2635  0.1055  0.0554
  134MOL  Cl19943025   4.363   1.570   2.934 -0.2021  0.0418  0.0758
  134MOL   C20043026   4.227   1.672   3.139 -0.0342  0.6880  0.0594
  134MOL   C20143027   4.124   1.666   3.236  0.3160 -0.7060  0.1904
  134MOL   C20243028   3.763   1.590   3.245  0.3290 -0.4314 -0.1413
  134MOL   H20343029   3.916   1.662   3.371  0.0066 -1.1654  1.0912
  134MOL   H20443030   3.924   1.436   3.079  1.7495 -0.0634 -2.7260
  134MOL   H20543031   4.123   1.430   2.918 -1.3799  2.1079 -0.6738
  134MOL   H20643032   4.312   1.737   3.151 -0.0890  1.0133 -1.1890
  134MOL   H20743033   4.135   1.733   3.321  0.3355  0.4579 -0.7246
  134MOL   H20843034   3.778   1.616   3.141 -0.6256 -0.9200 -0.4050
  134MOL   H20943035   3.723   1.488   3.242 -1.6150  0.3379 -0.8503
  134MOL   C21043036   3.662   1.682   3.316  0.2646 -0.4373 -0.1160
  134MOL   C21143037   3.701   1.828   3.292 -0.3107  0.2266 -0.5621
  134MOL   C21243038   3.693   1.885   3.166  0.3568  0.3261  0.1654
  134MOL   C21343039   3.722   2.028   3.152  0.5217 -0.0561 -0.0747
  134MOL   C21443040   3.761   2.105   3.262  0.4210 -0.2547  0.3171
  134MOL  Cl21543041   3.799   2.272   3.241  0.2690  0.1108  0.4207
  134MOL   C21643042   3.768   2.047   3.385  0.9078 -0.7680  0.3095
  134MOL   C21743043   3.742   1.908   3.404  0.1280  0.3860  0.6870
  134MOL   C21843044   3.519   1.635   3.268 -0.5710  0.0584  0.5437
  134MOL   H21943045   3.647   1.652   3.419  0.1977  0.5871  0.1783
  134MOL   H22043046   3.663   1.828   3.079  0.6500  2.4486 -1.3681
  134MOL   H22143047   3.719   2.086   3.060  0.5442  1.9326  1.1494
  134MOL   H22243048   3.795   2.103   3.473 -0.4532 -2.6211  1.9527
  134MOL   H22343049   3.755   1.856   3.498 -0.4567  1.7970  1.5678
  134MOL   H22443050   3.524   1.627   3.160  0.2445  0.2787  0.5593
  134MOL   H22543051   3.505   1.535   3.309  0.4022 -0.9027 -1.4259
  134MOL   C22643052   3.399   1.731   3.287 -0.7312  0.0843 -0.9814
  134MOL   C22743053   3.270   1.661   3.238 -0.5279 -0.1834  0.3576
  134MOL   C22843054   3.260   1.617   3.100 -0.5574  0.6522 -1.2777
  134MOL   C22943055   3.160   1.534   3.062 -0.3580 -0.2716 -0.4000
  134MOL   C23043056   3.067   1.487   3.156  0.0340 -0.3029 -0.1735
  134MOL  Cl23143057   2.936   1.387   3.111  0.0922 -0.1177 -0.1347
  134MOL   C23243058   3.073   1.529   3.295 -0.2166 -0.3806  0.0769
  134MOL   C23343059   3.176   1.617   3.332  0.2003 -0.0288 -0.1559
  134MOL   C23443060   3.386   1.802   3.421 -0.2378 -0.0487 -0.1747
  134MOL   H23543061   3.408   1.811   3.213  0.0009  0.1905 -0.7837
  134MOL   H23643062   3.334   1.639   3.024 -0.8319  1.2862 -1.3697
  134MOL   H23743063   3.144   1.490   2.965 -2.0380 -0.0270 -0.2521
  134MOL   H23843064   3.002   1.492   3.367 -0.9625  0.3885 -0.2652
  134MOL   H23943065   3.177   1.639   3.438 -0.9533  0.0600 -0.1619
  134MOL   H24043066   3.361   1.724   3.494  0.5370  0.8878  1.1235
  134MOL   H24143067   3.482   1.841   3.456 -0.8765 -0.0699  1.6699
  134MOL   C24243068   3.284   1.915   3.425 -0.1342  0.5934  0.0326
  134MOL   C24343069   3.207   1.914   3.557  0.5737  0.0594 -0.1460
  134MOL   C24443070   3.065   1.901   3.561 -0.0543  0.0563  0.5265
  134MOL   C24543071   2.995   1.921   3.683 -0.4490 -0.4218 -0.6539
  134MOL   C24643072   3.071   1.925   3.804 -0.1300  0.1514  0.0677
  134MOL  Cl24743073   2.990   1.971   3.956 -0.0753 -0.4085 -0.5316
  134MOL   C24843074   3.209   1.920   3.804 -0.4592  0.5512  0.5636
  134MOL   C24943075   3.279   1.923   3.680  0.6769 -0.6094 -0.0101
  134MOL   C25043076   3.335   2.053   3.389 -0.0188 -0.5823 -0.4002
  134MOL   H25143077   3.212   1.896   3.346  0.5177 -1.7393 -0.0506
  134MOL   H25243078   3.010   1.912   3.469  0.0855  1.5298  0.6029
  134MOL   H25343079   2.890   1.943   3.697 -0.5857 -0.4472 -1.5890
  134MOL   H25443080   3.275   1.924   3.889 -0.3168  0.5702  0.4532
  134MOL   H25543081   3.387   1.918   3.681  0.6720 -1.9361 -2.0598
  134MOL   H25643082   3.398   2.092   3.469 -0.0279  1.5878 -1.3956
  134MOL   H25743083   3.412   2.043   3.312  1.1303 -0.2593  0.7025
  134MOL   C25843084   3.241   2.164   3.353 -0.3592 -0.0245  0.5333
  134MOL   C25943085   3.285   2.308   3.379 -0.1289  0.0383 -0.4716
  134MOL   C26043086   3.187   2.401   3.414 -0.0347  0.6481  0.1907
  134MOL   C26143087   3.219   2.537   3.439  0.3659 -0.3135  0.0032
  134MOL   C26243088   3.353   2.578   3.417 -0.6547 -0.1471  1.0131
  134MOL  Cl26343089   3.400   2.739   3.401  0.1128  0.1396  0.1978
  134MOL   C26443090   3.457   2.479   3.385 -0.3318 -0.7671  0.6608
  134MOL   C26543091   3.420   2.345   3.370  0.1447 -0.1273  0.2293
  134MOL   C26643092   3.185   2.155   3.207 -0.1493  0.1545  0.0410
  134MOL   H26743093   3.154   2.147   3.417 -0.5501 -1.7329 -0.1540
  134MOL   H26843094   3.084   2.369   3.408 -0.6175  1.9959  2.3045
  134MOL   H26943095   3.142   2.610   3.460  1.2171 -0.2933  3.3232
  134MOL   H27043096   3.559   2.508   3.364 -0.0273 -2.7885 -0.7217
  134MOL   H27143097   3.496   2.273   3.344 -1.9252 -3.0067  1.7209
  134MOL   H27243098   3.145   2.054   3.195  1.2140 -0.3656 -0.2395
  134MOL   H27343099   3.103   2.226   3.207  1.0942  1.6216  1.3552
  134MOL   C27443100   3.279   2.182   3.091 -0.3850 -0.0091  0.2444
  134MOL   C27543101   3.252   2.084   2.980 -0.3154  0.1507 -0.0751
  134MOL   C27643102   3.338   1.976   2.957  0.2169  0.0904 -0.3052
  134MOL   C27743103   3.315   1.897   2.843  0.0480 -0.3284 -0.4153
  134MOL   C27843104   3.209   1.929   2.754  0.1950  0.4258 -0.1373
  134MOL  Cl27943105   3.179   1.815   2.626  0.2155  0.1707  0.0462
  134MOL   C28043106   3.124   2.035   2.784  0.6892  0.7684 -0.8285
  134MOL   C28143107   3.143   2.117   2.896 -0.2360 -0.5589 -0.1305
  134MOL   C28243108   3.289   2.332   3.041 -0.4324  0.2415  0.5203
  134MOL   H28343109   3.380   2.155   3.119 -0.8277  0.2849  2.1784
  134MOL   H28443110   3.421   1.951   3.022 -0.1190 -0.4092 -0.0597
  134MOL   H28543111   3.379   1.813   2.822  2.3177  1.1176  0.4129
  134MOL   H28643112   3.036   2.044   2.722  0.5353 -3.3489 -1.3949
  134MOL   H28743113   3.082   2.203   2.920 -1.1936 -1.9312  2.6376
  134MOL   H28843114   3.200   2.359   2.984 -1.3116 -1.5077  1.0340
  134MOL   H28943115   3.276   2.398   3.127 -1.0188  0.5693  0.1880
  134MOL   C29043116   3.420   2.364   2.962 -0.0354 -0.2766 -0.6694
  134MOL   C29143117   3.376   2.399   2.820  0.5097 -0.0357 -0.4458
  134MOL   C29243118   3.381   2.295   2.720 -0.4693 -1.1134 -0.8217
  134MOL   C29343119   3.330   2.319   2.592  0.0420  0.3878 -0.4143
  134MOL   C29443120   3.266   2.441   2.567 -0.4257 -0.1099 -0.4863
  134MOL  Cl29543121   3.214   2.471   2.412  0.0610 -0.3889  0.1413
  134MOL   C29643122   3.274   2.545   2.660  0.4429 -0.0341 -0.1752
  134MOL   C29743123   3.321   2.521   2.788  0.2036 -0.4168  0.2429
  134MOL   C29843124   3.500   2.472   3.037  1.1885 -0.3693 -0.0884
  134MOL   H29943125   3.487   2.278   2.956 -1.2516 -1.2167 -1.0592
  134MOL   H30043126   3.411   2.195   2.745 -1.2422 -1.4935 -1.4091
  134MOL   H30143127   3.338   2.246   2.513  0.3205  0.0101 -0.0409
  134MOL   H30243128   3.233   2.643   2.639 -0.1134 -0.6400 -2.0525
  134MOL   H30343129   3.327   2.595   2.867 -1.9072  0.0822 -0.0201
  134MOL   H30443130   3.428   2.552   3.055 -0.1793 -1.2795 -1.3353
  134MOL   H30543131   3.540   2.442   3.133 -0.8163 -1.8917  0.3051
  134MOL   C30643132   3.611   2.542   2.958  0.4084 -1.3043 -0.2106
  134MOL   C30743133   3.669   2.662   3.042 -0.0411 -0.8412 -0.2952
  134MOL   C30843134   3.803   2.662   3.092 -0.2749  0.8579 -0.5137
  134MOL   C30943135   3.841   2.766   3.181 -0.2373 -1.1688 -0.5495
  134MOL   C31043136   3.754   2.876   3.208 -0.4605 -0.1315  0.4254
  134MOL  Cl31143137   3.807   3.005   3.303  0.0380 -0.2322  0.0415
  134MOL   C31243138   3.628   2.879   3.161 -0.3112  0.6452  0.2931
  134MOL   C31343139   3.585   2.772   3.079 -0.2790 -0.0471  0.2480
  134MOL   C31443140   3.719   2.445   2.919  0.9452  0.6909 -0.1243
  134MOL   H31543141   3.562   2.589   2.873  0.2092  0.5190  0.8833
  134MOL   H31643142   3.878   2.586   3.073 -0.0267 -0.0125  3.5768
  134MOL   H31743143   3.935   2.770   3.234  0.0060 -0.9107 -1.0005
  134MOL   H31843144   3.560   2.962   3.174 -1.2303  0.3556 -2.4851
  134MOL   H31943145   3.482   2.768   3.049 -0.6942  0.0727  1.6217
  134MOL   H32043146   3.672   2.374   2.851  0.4757  1.8498 -1.0119
  134MOL   H32143147   3.794   2.503   2.865 -1.5665  1.2157 -3.1582
  134MOL   H32243148   3.765   2.389   3.001  0.4702 -1.9394 -1.6022
  135MOL     C143149   4.341   2.122   2.766  0.5747  0.3952 -0.2981
  135MOL     C243150   4.441   2.061   2.674 -0.2333  0.0546  0.8340
  135MOL     C343151   4.534   2.145   2.603  0.6896  0.1641 -0.3473
  135MOL     C443152   4.622   2.079   2.519 -0.1544 -0.8259 -0.3108
  135MOL     C543153   4.626   1.941   2.500  0.8085 -0.6027  0.3699
  135MOL    Cl643154   4.748   1.874   2.396 -0.0327 -0.1681  0.0999
  135MOL     C743155   4.534   1.860   2.574  0.7109  0.6034  0.0656
  135MOL     C843156   4.445   1.920   2.664  0.2215 -0.1643  0.4873
  135MOL     C943157   4.360   2.086   2.911 -0.3111  0.3508  0.4139
  135MOL    H1043158   4.242   2.083   2.742  0.4459  0.1116  0.6536
  135MOL    H1143159   4.546   2.251   2.621  0.5393  0.2315 -0.6403
  135MOL    H1243160   4.689   2.154   2.478  0.7189 -0.1095  2.2931
  135MOL    H1343161   4.557   1.755   2.564 -1.7509  0.1427 -1.0235
  135MOL    H1443162   4.370   1.866   2.720  0.2065 -1.7404 -1.0227
  135MOL    H1543163   4.379   1.978   2.908 -0.8251  0.2256  1.4936
  135MOL    H1643164   4.453   2.130   2.947 -0.5664  0.8828  0.4262
  135MOL    H1743165   4.337   2.231   2.753 -0.7920  0.3941  0.0204
  135MOL    C1843166   4.256   2.126   3.012  0.1779  0.1524 -0.3187
  135MOL    C1943167   4.120   2.075   2.970 -0.1227 -0.2476  0.1169
  135MOL    C2043168   4.029   2.171   2.918  0.2905  0.3454  0.1618
  135MOL    C2143169   3.913   2.129   2.855  0.0200  0.5130  0.1984
  135MOL    C2243170   3.879   1.994   2.859  0.7961 -0.2755  0.2880
  135MOL   Cl2343171   3.726   1.947   2.799 -0.1769 -0.2686  0.1403
  135MOL    C2443172   3.960   1.896   2.920 -0.8168  0.0491 -0.7615
  135MOL    C2543173   4.081   1.940   2.981 -0.1893  0.0838  0.1526
  135MOL    C2643174   4.284   2.089   3.161  0.0359  0.3868 -0.1345
  135MOL    H2743175   4.245   2.234   3.018  2.1490  0.3017  0.9384
  135MOL    H2843176   4.054   2.276   2.930 -2.3043  0.8653  1.4565
  135MOL    H2943177   3.852   2.202   2.802  0.4109  0.5659 -0.1787
  135MOL    H3043178   3.923   1.796   2.932  0.9916 -0.7319 -1.5219
  135MOL    H3143179   4.149   1.865   3.018  1.4824  1.0596 -0.8566
  135MOL    H3243180   4.192   2.039   3.194 -0.4685  0.7882 -0.9136
  135MOL    H3343181   4.359   2.011   3.169 -0.0282  0.4620  1.5131
  135MOL    C3443182   4.306   2.213   3.246 -0.2052 -0.9278  0.2205
  135MOL    C3543183   4.264   2.163   3.390 -1.2248  0.2523  0.5324
  135MOL    C3643184   4.330   2.058   3.456 -0.0405 -0.1442  0.0422
  135MOL    C3743185   4.302   2.034   3.593  0.2348  0.1565 -0.3307
  135MOL    C3843186   4.200   2.100   3.661  0.4898 -0.7120  0.2379
  135MOL   Cl3943187   4.153   2.059   3.826  0.1726 -0.2169  0.2292
  135MOL    C4043188   4.123   2.188   3.585 -1.1710  0.4195  0.1693
  135MOL    C4143189   4.154   2.221   3.447  0.0141 -0.2389  1.0149
  135MOL    C4243190   4.445   2.270   3.242 -0.1891  0.0173  0.0853
  135MOL    H4343191   4.238   2.296   3.228  0.7608 -0.6752 -2.3722
  135MOL    H4443192   4.412   2.006   3.407  1.5230  0.6432  1.7797
  135MOL    H4543193   4.360   1.968   3.656 -0.5974  1.0149  1.3468
  135MOL    H4643194   4.038   2.230   3.638  0.0094  0.9794  1.6603
  135MOL    H4743195   4.095   2.297   3.398  1.0413 -1.0423 -1.5261
  135MOL    H4843196   4.496   2.212   3.319 -1.9390 -0.7284  0.6931
  135MOL    H4943197   4.500   2.253   3.149 -0.7756  0.5798 -0.3669
  135MOL    C5043198   4.461   2.419   3.278  0.8562  0.2606 -0.4840
  135MOL    C5143199   4.391   2.462   3.409  0.5221 -0.6239  0.1002
  135MOL    C5243200   4.275   2.541   3.411  0.5155  0.1608  0.1802
  135MOL    C5343201   4.214   2.567   3.536  0.0580  0.1462  0.4633
  135MOL    C5443202   4.254   2.508   3.653 -0.0363  0.2535 -0.3226
  135MOL   Cl5543203   4.161   2.520   3.804 -0.4640  0.3013  0.1165
  135MOL    C5643204   4.369   2.427   3.649 -0.1301 -0.4452 -0.3025
  135MOL    C5743205   4.439   2.408   3.531  0.3142  0.3612  0.2220
  135MOL    C5843206   4.612   2.465   3.280  0.0454  0.2002  0.2491
  135MOL    H5943207   4.403   2.462   3.197 -0.2093  0.4493  0.3685
  135MOL    H6043208   4.240   2.596   3.325 -0.5061 -0.6397  0.0813
  135MOL    H6143209   4.125   2.627   3.545 -0.8865 -0.8713 -1.6612
  135MOL    H6243210   4.398   2.381   3.742 -0.1044 -1.8882 -1.0157
  135MOL    H6343211   4.522   2.340   3.522 -0.2150 -0.1447 -1.0639
  135MOL    H6443212   4.636   2.521   3.371 -1.4974  1.2709  0.0050
  135MOL    H6543213   4.684   2.383   3.280  0.0597  0.2128  0.6588
  135MOL    C6643214   4.644   2.541   3.151 -0.3526 -0.0503 -0.2449
  135MOL    C6743215   4.560   2.670   3.144 -0.6426 -0.7712  0.1358
  135MOL    C6843216   4.565   2.770   3.250  0.6799  0.3194 -0.2528
  135MOL    C6943217   4.478   2.878   3.250 -0.3293 -0.1944  0.8967
  135MOL    C7043218   4.391   2.898   3.143  0.4646  0.4219 -0.7569
  135MOL   Cl7143219   4.282   3.035   3.147  0.0863 -0.2593 -0.3097
  135MOL    C7243220   4.399   2.815   3.030  0.1228  0.5202 -0.0793
  135MOL    C7343221   4.474   2.695   3.037 -0.2309 -1.1635  0.6050
  135MOL    C7443222   4.797   2.568   3.137  0.3502  0.2438 -0.6408
  135MOL    H7543223   4.618   2.472   3.071 -0.7159  0.4198 -0.5362
  135MOL    H7643224   4.627   2.758   3.337  0.5662  2.7182  0.1690
  135MOL    H7743225   4.483   2.951   3.329 -0.2986  1.3102 -0.4594
  135MOL    H7843226   4.332   2.819   2.946  0.1952 -0.5831 -0.2034
  135MOL    H7943227   4.468   2.623   2.956  0.5655 -0.4374 -0.1085
  135MOL    H8043228   4.822   2.638   3.216 -1.2517  0.6515 -0.4745
  135MOL    H8143229   4.863   2.484   3.159  1.3301  1.4158  1.0199
  135MOL    C8243230   4.832   2.640   3.015 -0.1214  0.5615  0.4294
  135MOL    C8343231   4.972   2.702   3.031 -0.5081  0.0306  0.3390
  135MOL    C8443232   4.994   2.840   3.056  0.6163  0.3949  0.6212
  135MOL    C8543233   5.124   2.891   3.057 -0.3184 -0.2472  0.5608
  135MOL    C8643234   5.237   2.809   3.032 -0.3878  0.3381 -0.6635
  135MOL   Cl8743235   5.401   2.869   3.016 -0.0038 -0.2421 -0.2839
  135MOL    C8843236   5.212   2.669   3.000  1.3653  0.3259  0.0528
  135MOL    C8943237   5.082   2.614   3.011 -0.8163  0.0573  0.1292
  135MOL    C9043238   4.817   2.561   2.884  0.9394  0.4600 -0.1620
  135MOL    H9143239   4.768   2.728   3.007 -0.8462 -0.0457 -0.6627
  135MOL    H9243240   4.913   2.905   3.084 -0.8623 -0.9852 -0.3455
  135MOL    H9343241   5.142   2.998   3.063  1.7816 -0.6446  1.8095
  135MOL    H9443242   5.291   2.599   2.977 -0.5835 -1.3692 -1.6712
  135MOL    H9543243   5.084   2.511   2.980 -0.2221  0.1620 -0.1897
  135MOL    H9643244   4.889   2.480   2.891  1.9285  1.4018  0.7584
  135MOL    H9743245   4.724   2.505   2.887  1.2657 -0.1009 -0.3613
  135MOL    C9843246   4.827   2.645   2.752 -0.4571  0.0523 -0.0083
  135MOL    C9943247   4.975   2.665   2.705 -0.3955 -0.0660 -0.2964
  135MOL   C10043248   5.061   2.554   2.683  0.2634  0.1520  0.1085
  135MOL   C10143249   5.196   2.568   2.644  0.0191 -0.8673 -0.8393
  135MOL   C10243250   5.245   2.701   2.642  0.1158  0.1652 -0.1218
  135MOL  Cl10343251   5.419   2.712   2.611  0.4772 -0.0209 -0.6145
  135MOL   C10443252   5.162   2.810   2.653  1.2099  0.3477 -0.1867
  135MOL   C10543253   5.022   2.795   2.677  0.0942  0.5949  0.2662
  135MOL   C10643254   4.740   2.573   2.645 -0.8003 -0.3760 -0.4056
  135MOL   H10743255   4.778   2.740   2.772 -1.1289 -0.5000  1.0529
  135MOL   H10843256   5.016   2.457   2.701  1.4904 -0.2602  0.9634
  135MOL   H10943257   5.262   2.486   2.620 -0.2978 -0.8843 -1.6663
  135MOL   H11043258   5.205   2.909   2.654  1.0589  0.4260 -1.0127
  135MOL   H11143259   4.958   2.882   2.679 -1.7511 -0.6704 -2.3578
  135MOL   H11243260   4.788   2.476   2.630 -1.2704 -1.0971  2.3569
  135MOL   H11343261   4.637   2.556   2.675 -0.9684 -0.1027 -0.8234
  135MOL   C11443262   4.742   2.641   2.507  0.0728 -0.5849 -0.2708
  135MOL   C11543263   4.775   2.539   2.401  0.1891  0.6783 -0.3135
  135MOL   C11643264   4.888   2.552   2.317 -0.2084  0.4097  0.1991
  135MOL   C11743265   4.908   2.464   2.205  0.6304 -0.5480 -0.0828
  135MOL   C11843266   4.818   2.364   2.176  0.6747 -0.7736  0.0004
  135MOL  Cl11943267   4.836   2.263   2.042 -0.1143 -0.6545 -0.0638
  135MOL   C12043268   4.702   2.347   2.267  0.4610 -0.2930  0.7083
  135MOL   C12143269   4.681   2.431   2.377 -0.5643 -0.0098  0.6388
  135MOL   C12243270   4.612   2.713   2.454 -0.0201  0.1337  0.4326
  135MOL   H12343271   4.821   2.716   2.501 -0.1526 -0.0657  2.5871
  135MOL   H12443272   4.948   2.633   2.355  0.4711 -0.0749  0.1752
  135MOL   H12543273   4.992   2.480   2.140  0.8710 -2.4065 -0.2607
  135MOL   H12643274   4.628   2.271   2.243  0.6603 -0.4845  0.7022
  135MOL   H12743275   4.593   2.422   2.439 -0.5684  0.8163  0.7609
  135MOL   H12843276   4.657   2.758   2.366 -0.0293  0.7632  0.7394
  135MOL   H12943277   4.539   2.644   2.413  0.9607 -0.9858  0.5646
  135MOL   C13043278   4.540   2.818   2.542 -0.3695 -0.1266 -0.2280
  135MOL   C13143279   4.633   2.926   2.606 -0.3098  0.1944 -0.3025
  135MOL   C13243280   4.618   2.959   2.740  0.1505  0.2116  0.4933
  135MOL   C13343281   4.710   3.045   2.800 -0.7106  0.2707  0.2827
  135MOL   C13443282   4.809   3.109   2.722  0.2067 -0.7549 -0.4947
  135MOL  Cl13543283   4.930   3.209   2.808  0.0390 -0.0868  0.0960
  135MOL   C13643284   4.813   3.090   2.582 -0.7858  0.3258 -0.1270
  135MOL   C13743285   4.722   2.998   2.519 -0.1280  0.0121 -1.0338
  135MOL   C13843286   4.405   2.873   2.483  0.1701 -0.1087 -0.8172
  135MOL   H13943287   4.511   2.759   2.629 -0.1656 -0.9738 -0.7336
  135MOL   H14043288   4.554   2.891   2.794 -1.0133  0.5003 -0.5169
  135MOL   H14143289   4.723   3.047   2.908  1.1149  0.5163  0.0705
  135MOL   H14243290   4.893   3.136   2.526  0.2962 -2.3383 -0.8316
  135MOL   H14343291   4.728   2.977   2.413  0.4141  1.5836 -1.3296
  135MOL   H14443292   4.327   2.797   2.491 -0.1055  0.0997 -1.4872
  135MOL   H14543293   4.375   2.950   2.554 -1.4583 -1.4765 -0.0012
  135MOL   C14643294   4.411   2.913   2.333 -0.4019  0.0127  0.7683
  135MOL   C14743295   4.396   2.781   2.239 -0.1593 -0.2953  0.8117
  135MOL   C14843296   4.504   2.750   2.159 -0.2378  0.0609 -0.5710
  135MOL   C14943297   4.505   2.626   2.091 -0.3833  0.7371 -0.4258
  135MOL   C15043298   4.395   2.539   2.096  0.1092  0.6678 -0.5747
  135MOL  Cl15143299   4.396   2.392   2.021 -0.3453 -0.3110 -0.0658
  135MOL   C15243300   4.282   2.576   2.166  1.1271  0.1306 -0.3681
  135MOL   C15343301   4.284   2.697   2.238 -0.1058 -0.3973  0.2788
  135MOL   C15443302   4.311   3.022   2.291 -0.3160 -0.7368 -0.6421
  135MOL   H15543303   4.508   2.958   2.315 -0.4686  0.2075  0.8935
  135MOL   H15643304   4.596   2.806   2.155  0.7920 -1.2908  2.4033
  135MOL   H15743305   4.599   2.597   2.046  0.3703 -0.1335  1.6539
  135MOL   H15843306   4.192   2.520   2.187  1.3941  0.0333  0.5269
  135MOL   H15943307   4.202   2.710   2.307 -1.3706 -1.9830 -0.8953
  135MOL   H16043308   4.302   3.033   2.183 -3.3330  0.8571 -0.2820
  135MOL   H16143309   4.214   2.988   2.329  0.1252  0.1468  1.3587
  135MOL   C16243310   4.342   3.159   2.349 -0.8892 -0.7565  0.5060
  135MOL   C16343311   4.476   3.213   2.283  0.7877 -0.1474  0.7122
  135MOL   C16443312   4.578   3.252   2.372  0.2141 -0.2699 -0.5020
  135MOL   C16543313   4.702   3.293   2.316  0.5063 -0.0693 -0.3609
  135MOL   C16643314   4.712   3.313   2.177 -0.0414  0.5943  0.4913
  135MOL  Cl16743315   4.851   3.388   2.115 -0.1999 -0.2420  0.0413
  135MOL   C16843316   4.606   3.270   2.093 -0.4540  0.0529  0.1011
  135MOL   C16943317   4.487   3.216   2.140 -0.3041  0.1772  0.8676
  135MOL   C17043318   4.241   3.274   2.341 -0.0283  0.1257 -0.2634
  135MOL   H17143319   4.374   3.145   2.452 -1.4688  0.5371  0.8619
  135MOL   H17243320   4.572   3.245   2.479 -0.1520 -0.4106 -0.5303
  135MOL   H17343321   4.787   3.314   2.380  0.2321  0.0379 -0.0283
  135MOL   H17443322   4.629   3.280   1.987 -3.1202 -1.6731 -0.6926
  135MOL   H17543323   4.419   3.178   2.066  1.2360 -0.5358 -0.2274
  135MOL   H17643324   4.272   3.373   2.376  0.1425  0.4279 -1.2764
  135MOL   H17743325   4.231   3.293   2.234 -2.7316  1.2239  0.1401
  135MOL   C17843326   4.092   3.241   2.393 -0.1072 -0.2735  0.1531
  135MOL   C17943327   4.088   3.148   2.510  0.7363 -0.5442  0.1795
  135MOL   C18043328   4.170   3.166   2.628  0.3945 -0.2878  0.5220
  135MOL   C18143329   4.165   3.071   2.736  0.5198 -0.1378  0.5005
  135MOL   C18243330   4.069   2.970   2.729  0.4869  0.2737  0.5453
  135MOL  Cl18343331   4.053   2.852   2.855  0.1672  0.1610  0.2093
  135MOL   C18443332   3.985   2.957   2.624 -0.2907  0.3599  0.5908
  135MOL   C18543333   3.994   3.046   2.515 -0.4078  0.1928  0.5757
  135MOL   C18643334   3.993   3.355   2.420 -0.2823 -0.1322  0.4683
  135MOL   H18743335   4.059   3.181   2.308  0.7990  1.6919 -1.6424
  135MOL   H18843336   4.248   3.240   2.625 -0.7227  0.8902  0.4291
  135MOL   H18943337   4.241   3.078   2.813  0.7824 -0.1346  0.2405
  135MOL   H19043338   3.917   2.873   2.616 -1.5224  1.2154  1.9980
  135MOL   H19143339   3.928   3.027   2.431 -1.8575  1.6221  1.3578
  135MOL   H19243340   3.961   3.358   2.524 -0.3253 -1.4989  0.5059
  135MOL   H19343341   4.055   3.444   2.411 -0.3492 -0.1715 -0.5121
  135MOL   C19443342   3.877   3.357   2.309 -0.6402 -0.1798  0.0179
  135MOL   C19543343   3.788   3.232   2.321  0.1401 -0.0542  0.0486
  135MOL   C19643344   3.764   3.150   2.208  0.2791 -0.2488  0.0322
  135MOL   C19743345   3.672   3.046   2.215  0.4390  0.4794  0.4728
  135MOL   C19843346   3.598   3.016   2.332  0.3994 -0.2373  0.4436
  135MOL  Cl19943347   3.487   2.883   2.323 -0.4612  0.1073 -0.0303
  135MOL   C20043348   3.622   3.092   2.445  0.5750  0.3533  0.1978
  135MOL   C20143349   3.721   3.196   2.441  0.3210 -0.3113 -0.1067
  135MOL   C20243350   3.787   3.486   2.317 -0.0152 -0.4932  0.2492
  135MOL   H20343351   3.934   3.362   2.216  1.1036 -1.3444  0.9777
  135MOL   H20443352   3.799   3.175   2.108 -1.3670  0.3849 -0.4007
  135MOL   H20543353   3.649   2.994   2.123  0.5898  1.7049 -0.2591
  135MOL   H20643354   3.578   3.058   2.538  0.8453 -0.7593 -0.0739
  135MOL   H20743355   3.737   3.252   2.532  0.6523 -1.9196  0.8377
  135MOL   H20843356   3.698   3.473   2.255  1.1821  0.0613 -1.6179
  135MOL   H20943357   3.740   3.494   2.415 -1.5973  0.0615 -0.5416
  135MOL   C21043358   3.857   3.619   2.264 -0.4621  0.2399 -0.0106
  135MOL   C21143359   3.871   3.628   2.114 -0.2387  0.4165  0.2357
  135MOL   C21243360   3.995   3.589   2.060 -0.7601 -0.1509  0.3298
  135MOL   C21343361   4.025   3.604   1.922  0.0220 -0.1354 -0.5445
  135MOL   C21443362   3.925   3.663   1.832 -0.1219  0.7558  0.1845
  135MOL  Cl21543363   3.950   3.680   1.658 -0.0031  0.8183 -0.0852
  135MOL   C21643364   3.800   3.699   1.886 -0.1716 -0.1170 -0.5228
  135MOL   C21743365   3.775   3.680   2.026 -0.7280  0.0582 -0.0861
  135MOL   C21843366   3.777   3.747   2.306 -0.0157  0.0100 -0.3762
  135MOL   H21943367   3.955   3.632   2.312 -0.3887  3.3589 -0.9421
  135MOL   H22043368   4.072   3.543   2.120 -1.1256 -2.7362 -1.1231
  135MOL   H22143369   4.113   3.561   1.877 -0.4119 -0.8122 -0.7459
  135MOL   H22243370   3.719   3.736   1.825  0.0888  1.7940  0.2508
  135MOL   H22343371   3.675   3.706   2.059  0.1541  0.1787  2.5764
  135MOL   H22443372   3.811   3.832   2.247 -0.7699 -0.1855 -1.1039
  135MOL   H22543373   3.670   3.735   2.288 -0.5219  0.0717  2.3827
  135MOL   C22643374   3.785   3.797   2.455  0.1684 -0.0215 -0.7459
  135MOL   C22743375   3.926   3.833   2.502  0.3499 -0.4800  0.1800
  135MOL   C22843376   3.989   3.958   2.471 -0.6822 -0.7144 -0.0632
  135MOL   C22943377   4.116   3.989   2.521  1.1853  0.4001 -0.0928
  135MOL   C23043378   4.175   3.896   2.610  0.4966 -0.3422  0.6137
  135MOL  Cl23143379   4.328   3.936   2.677  0.0123  0.2248  0.2046
  135MOL   C23243380   4.117   3.762   2.623 -0.7445 -0.0938  0.4061
  135MOL   C23343381   3.990   3.729   2.580  0.3520 -0.0915 -0.1405
  135MOL   C23443382   3.682   3.906   2.484  0.2087  0.5041  0.4858
  135MOL   H23543383   3.747   3.717   2.518  1.1782 -0.0038 -0.1104
  135MOL   H23643384   3.944   4.039   2.414 -0.0651 -0.3396 -0.0199
  135MOL   H23743385   4.159   4.088   2.516  0.1752  1.0030  2.3173
  135MOL   H23843386   4.162   3.687   2.687  0.8026  1.1549  0.7957
  135MOL   H23943387   3.941   3.635   2.597  0.7929 -0.5721 -1.4647
  135MOL   H24043388   3.711   3.981   2.410  1.1977 -0.3070  0.0425
  135MOL   H24143389   3.584   3.869   2.454  1.1958  1.4420 -4.3495
  135MOL   C24243390   3.672   3.971   2.623 -0.3783 -0.0309 -0.4275
  135MOL   C24343391   3.587   4.096   2.601  0.2275  0.6819  0.5943
  135MOL   C24443392   3.657   4.218   2.605  0.7052  0.8582  0.4183
  135MOL   C24543393   3.578   4.335   2.600 -0.4427  0.2617  0.4805
  135MOL   C24643394   3.440   4.331   2.584 -0.1449  0.3890  0.6642
  135MOL  Cl24743395   3.353   4.478   2.589  0.0484 -0.1769  0.4637
  135MOL   C24843396   3.372   4.203   2.558 -0.2357  0.0197 -1.2688
  135MOL   C24943397   3.448   4.088   2.578  0.6035  0.5218 -0.2371
  135MOL   C25043398   3.613   3.877   2.730  0.2332  0.6707 -1.0910
  135MOL   H25143399   3.770   4.002   2.659  0.1407 -1.1136 -0.8969
  135MOL   H25243400   3.765   4.224   2.604  0.6549  1.7282 -0.2079
  135MOL   H25343401   3.636   4.425   2.613  2.1007 -1.2624  0.1358
  135MOL   H25443402   3.266   4.199   2.541 -0.3417 -0.7159 -0.4485
  135MOL   H25543403   3.399   3.992   2.582 -2.4526  2.0441  0.3851
  135MOL   H25643404   3.548   3.940   2.789  1.8700  0.1376  1.3545
  135MOL   H25743405   3.543   3.810   2.681 -1.9098 -0.0174  2.7781
  135MOL   C25843406   3.698   3.806   2.835 -0.3625  0.4040 -0.2550
  135MOL   C25943407   3.771   3.902   2.929 -0.0599 -0.7792  0.5179
  135MOL   C26043408   3.907   3.925   2.919 -0.8565 -0.5162 -0.4403
  135MOL   C26143409   3.972   3.992   3.027 -0.0148 -0.4592  0.1445
  135MOL   C26243410   3.894   4.042   3.131 -0.3301 -0.1783  0.2126
  135MOL  Cl26343411   3.984   4.114   3.261  0.1521  0.1426 -0.0427
  135MOL   C26443412   3.754   4.034   3.127  1.1899  0.0448  0.0155
  135MOL   C26543413   3.688   3.964   3.022  0.8616  0.2664 -0.1158
  135MOL   C26643414   3.604   3.704   2.911  0.5317 -0.5022 -0.2089
  135MOL   H26743415   3.767   3.745   2.776  0.5920  2.2412 -1.0699
  135MOL   H26843416   3.960   3.878   2.837 -1.7176 -0.7057 -0.8923
  135MOL   H26943417   4.079   4.004   3.039 -0.5681  1.9934  3.4069
  135MOL   H27043418   3.695   4.072   3.209  1.7960  0.4045  0.2883
  135MOL   H27143419   3.581   3.957   3.031  0.6096  2.3984 -1.1048
  135MOL   H27243420   3.655   3.682   3.004  0.6745  0.5893 -0.0193
  135MOL   H27343421   3.509   3.751   2.938  1.0721  0.5297 -0.0720
  135MOL   C27443422   3.583   3.573   2.839 -0.0354  0.5540 -0.7205
  135MOL   C27543423   3.696   3.471   2.867  0.7303 -0.5527 -0.3957
  135MOL   C27643424   3.811   3.460   2.786  0.2188  0.1504  0.7116
  135MOL   C27743425   3.932   3.403   2.828 -0.3236 -0.1389 -0.3830
  135MOL   C27843426   3.929   3.343   2.958  0.0809  0.0218  0.6541
  135MOL  Cl27943427   4.071   3.261   3.019  0.1450  0.2047  0.4424
  135MOL   C28043428   3.814   3.342   3.040  0.1663 -0.3660 -0.3127
  135MOL   C28143429   3.699   3.409   2.991  0.5157  0.3938 -0.1776
  135MOL   C28243430   3.442   3.525   2.861 -0.3032  0.2899 -0.6734
  135MOL   H28343431   3.593   3.581   2.731  3.3196  0.7607 -0.4310
  135MOL   H28443432   3.801   3.504   2.687 -1.5010  0.3046  0.9405
  135MOL   H28543433   4.024   3.412   2.772 -0.7511 -2.4044 -1.5023
  135MOL   H28643434   3.816   3.307   3.142  2.3191 -0.8022 -0.4799
  135MOL   H28743435   3.615   3.409   3.059 -0.0268  3.0340 -0.8145
  135MOL   H28843436   3.445   3.416   2.857 -2.8654  0.1915 -0.7610
  135MOL   H28943437   3.415   3.544   2.965  1.9504  2.1171 -0.3744
  135MOL   C29043438   3.342   3.576   2.759 -1.1020 -0.2043 -0.4268
  135MOL   C29143439   3.383   3.559   2.617 -0.3847 -0.8609 -1.2103
  135MOL   C29243440   3.368   3.670   2.530  0.5749  0.2305 -0.4883
  135MOL   C29343441   3.396   3.666   2.394  0.3950 -0.2339 -0.1495
  135MOL   C29443442   3.424   3.540   2.334 -0.3902 -0.2133  0.2296
  135MOL  Cl29543443   3.442   3.532   2.163 -0.0926 -0.5854 -0.5133
  135MOL   C29643444   3.440   3.420   2.414  0.4227  0.1054  0.1737
  135MOL   C29743445   3.423   3.434   2.558 -0.2667 -0.7353  0.3123
  135MOL   C29843446   3.204   3.505   2.778  0.0782 -0.0784 -0.3112
  135MOL   H29943447   3.327   3.683   2.777  2.2946  0.1548  0.7426
  135MOL   H30043448   3.343   3.764   2.578 -0.1832 -0.0335 -0.3661
  135MOL   H30143449   3.391   3.754   2.332  2.3316 -1.3745 -1.9639
  135MOL   H30243450   3.466   3.322   2.378 -1.7242 -0.8578  1.1725
  135MOL   H30343451   3.442   3.348   2.621  1.1072  0.3459  1.4009
  135MOL   H30443452   3.146   3.542   2.693  0.3911  0.6921 -0.1942
  135MOL   H30543453   3.223   3.399   2.763  2.5369  0.3865 -0.6754
  135MOL   C30643454   3.138   3.537   2.916 -0.0001  0.1162 -0.0646
  135MOL   C30743455   3.084   3.680   2.930  0.3770  0.3316  1.1503
  135MOL   C30843456   2.952   3.715   2.889 -0.5268  0.0235 -0.3216
  135MOL   C30943457   2.899   3.849   2.918  0.5780  0.3783 -0.1137
  135MOL   C31043458   2.984   3.946   2.971  0.6088  0.5275  0.1222
  135MOL  Cl31143459   2.930   4.100   2.989 -0.1078 -0.4469 -0.1024
  135MOL   C31243460   3.118   3.907   3.004  0.1458  0.2392  0.0716
  135MOL   C31343461   3.164   3.777   2.982  0.0186 -0.2002 -2.0081
  135MOL   C31443462   3.034   3.427   2.940  0.3462 -0.6611  0.4774
  135MOL   H31543463   3.222   3.514   2.982  0.8517  0.3808 -1.0395
  135MOL   H31643464   2.894   3.649   2.825 -1.5770  0.6934 -0.0716
  135MOL   H31743465   2.795   3.866   2.896  0.3149  0.3512  1.0548
  135MOL   H31843466   3.181   3.990   3.033 -1.6598  1.7378 -0.1727
  135MOL   H31943467   3.268   3.758   3.003 -0.4245 -2.8938 -2.0938
  135MOL   H32043468   3.002   3.437   3.044 -0.2707  0.5498  0.1786
  135MOL   H32143469   2.948   3.429   2.874  0.9667 -1.7392 -0.3815
  135MOL   H32243470   3.082   3.329   2.948  2.1539  0.2426  0.8380
  136MOL     C143471   2.431   3.358   0.519 -0.1846  0.1230  0.3750
  136MOL     C243472   2.549   3.302   0.436  0.3217  0.3465  0.3117
  136MOL     C343473   2.667   3.376   0.415 -0.3319  0.3259  0.4914
  136MOL     C443474   2.763   3.316   0.327  0.1148  0.1869  0.6837
  136MOL     C543475   2.741   3.187   0.274  0.5583  0.0113 -0.2206
  136MOL    Cl643476   2.843   3.125   0.145  0.2214 -0.0127  0.2342
  136MOL     C743477   2.627   3.111   0.312 -0.1996 -0.0722 -0.2811
  136MOL     C843478   2.529   3.167   0.394  0.1423  0.0842  0.5300
  136MOL     C943479   2.422   3.325   0.667  0.1685 -0.6136  0.1448
  136MOL    H1043480   2.342   3.312   0.476 -0.4001  0.1635  0.7775
  136MOL    H1143481   2.692   3.468   0.466  0.2874 -0.1120  0.9885
  136MOL    H1243482   2.861   3.361   0.317  0.4882 -1.0416 -1.5048
  136MOL    H1343483   2.619   3.016   0.261  2.9905 -0.4804 -0.1199
  136MOL    H1443484   2.436   3.114   0.410 -0.3930  1.3452  1.6570
  136MOL    H1543485   2.317   3.336   0.694 -0.0091 -0.1147 -0.7491
  136MOL    H1643486   2.458   3.224   0.688 -0.0062 -1.1068 -1.8721
  136MOL    H1743487   2.424   3.466   0.506  0.0505  0.3245  1.8885
  136MOL    C1843488   2.497   3.421   0.761  0.1393  0.0333  0.4029
  136MOL    C1943489   2.425   3.554   0.778  0.5205 -0.1313  0.3622
  136MOL    C2043490   2.476   3.672   0.727 -0.1880 -0.7395 -0.0174
  136MOL    C2143491   2.406   3.790   0.740  0.0591  0.4457  0.0336
  136MOL    C2243492   2.284   3.794   0.809 -0.4843 -0.7915  0.9522
  136MOL   Cl2343493   2.213   3.949   0.844 -0.0411 -0.0513  0.0599
  136MOL    C2443494   2.232   3.674   0.868  0.7602  0.3984  0.0016
  136MOL    C2543495   2.299   3.554   0.839 -0.9528  0.8079 -0.0918
  136MOL    C2643496   2.535   3.369   0.898 -0.3211 -0.9965 -0.3456
  136MOL    H2743497   2.587   3.446   0.705 -1.0756  1.2322 -1.0430
  136MOL    H2843498   2.575   3.665   0.683  0.6900  0.1742  1.7804
  136MOL    H2943499   2.450   3.877   0.693  1.6375 -0.2114  0.2685
  136MOL    H3043500   2.136   3.680   0.918  0.5700 -1.6443 -0.0451
  136MOL    H3143501   2.249   3.461   0.862 -0.8087  0.5268 -0.8810
  136MOL    H3243502   2.600   3.445   0.941 -0.2343 -1.0537 -0.3763
  136MOL    H3343503   2.445   3.370   0.959 -0.7871  0.8135 -1.0553
  136MOL    C3443504   2.613   3.238   0.912  0.3620 -0.5067 -0.0347
  136MOL    C3543505   2.739   3.237   0.828  0.0150  0.5840 -0.2030
  136MOL    C3643506   2.748   3.141   0.719 -0.0879 -0.4004  0.0453
  136MOL    C3743507   2.867   3.126   0.644 -0.2888  0.3068 -0.2616
  136MOL    C3843508   2.978   3.211   0.666  0.0844  0.3954 -0.4740
  136MOL   Cl3943509   3.119   3.201   0.563 -0.0865  0.2459 -0.1790
  136MOL    C4043510   2.978   3.295   0.780  0.1593  0.1738 -0.6406
  136MOL    C4143511   2.863   3.308   0.861  0.0053 -0.1011  0.0655
  136MOL    C4243512   2.641   3.223   1.063 -0.3761 -0.1985 -0.3294
  136MOL    H4343513   2.553   3.150   0.890  0.7958 -1.0269  0.8376
  136MOL    H4443514   2.662   3.080   0.698  0.8134 -1.8876  0.6194
  136MOL    H4543515   2.870   3.059   0.559 -0.1802  0.7332 -0.6025
  136MOL    H4643516   3.064   3.356   0.802  0.5181 -0.5102 -0.1487
  136MOL    H4743517   2.872   3.374   0.945 -0.1388 -0.5608  0.4420
  136MOL    H4843518   2.729   3.279   1.095 -0.2622 -2.0655  2.8361
  136MOL    H4943519   2.551   3.260   1.112 -1.3183 -0.2124 -2.0368
  136MOL    C5043520   2.652   3.075   1.123 -0.1482 -0.5421  0.2002
  136MOL    C5143521   2.758   2.987   1.054  0.1589 -0.1536 -0.4236
  136MOL    C5243522   2.717   2.875   0.976 -0.3906 -0.7118 -0.6494
  136MOL    C5343523   2.807   2.804   0.893  0.0470 -0.3499  0.2044
  136MOL    C5443524   2.941   2.854   0.879 -0.4124  0.0043  0.4632
  136MOL   Cl5543525   3.043   2.783   0.761 -0.0886 -0.1193  0.2323
  136MOL    C5643526   2.983   2.961   0.958  0.1816 -0.1565  1.3814
  136MOL    C5743527   2.893   3.023   1.047 -1.0961  0.5540 -0.2006
  136MOL    C5843528   2.649   3.059   1.277 -0.5650  1.1255  0.5415
  136MOL    H5943529   2.554   3.040   1.091 -0.2049 -0.0593 -0.1600
  136MOL    H6043530   2.613   2.855   0.994 -1.0725  1.5076 -1.8926
  136MOL    H6143531   2.766   2.723   0.834  1.0456  0.5276 -1.7361
  136MOL    H6243532   3.080   3.003   0.933  0.4955 -0.2144  2.4842
  136MOL    H6343533   2.922   3.111   1.102  2.4171  0.7589 -2.2514
  136MOL    H6443534   2.748   3.082   1.315  0.4286 -1.1187 -0.5702
  136MOL    H6543535   2.592   3.137   1.326 -0.6397  1.7365 -0.4990
  136MOL    C6643536   2.615   2.918   1.339  0.1387 -0.2008 -0.5776
  136MOL    C6743537   2.645   2.916   1.489 -0.2604  0.6883  0.6320
  136MOL    C6843538   2.576   3.012   1.570  0.2559  0.2277 -0.7480
  136MOL    C6943539   2.612   3.018   1.707  0.1601 -0.1080  0.0924
  136MOL    C7043540   2.715   2.933   1.755  1.0502 -0.4012 -0.3100
  136MOL   Cl7143541   2.774   2.955   1.920 -0.2552  0.6048 -0.0429
  136MOL    C7243542   2.771   2.830   1.685  0.3857  0.0375  0.5410
  136MOL    C7343543   2.743   2.826   1.543 -0.1101 -0.4793 -0.4239
  136MOL    C7443544   2.462   2.877   1.325  0.4105 -0.0679  0.2455
  136MOL    H7543545   2.682   2.849   1.287 -1.2269  0.0438 -2.7247
  136MOL    H7643546   2.496   3.074   1.534  0.7956  2.6950  2.0758
  136MOL    H7743547   2.572   3.092   1.774 -2.9557  0.5477 -2.3746
  136MOL    H7843548   2.847   2.768   1.731  1.0268  0.9734  0.7457
  136MOL    H7943549   2.797   2.758   1.479  1.2009  1.5385 -1.5512
  136MOL    H8043550   2.429   2.831   1.418 -2.4786 -0.3296 -0.8880
  136MOL    H8143551   2.405   2.969   1.327  0.3156 -0.1019 -0.7852
  136MOL    C8243552   2.403   2.787   1.210 -0.0488 -0.5729 -0.7876
  136MOL    C8343553   2.480   2.658   1.178  0.4287  0.1278  0.3801
  136MOL    C8443554   2.483   2.612   1.038 -0.3767  0.3754 -0.3130
  136MOL    C8543555   2.563   2.495   1.009  0.9422 -0.5168  0.7643
  136MOL    C8643556   2.632   2.429   1.110 -0.5142  0.5608 -0.0075
  136MOL   Cl8743557   2.727   2.295   1.071  0.0793 -0.2610  0.3702
  136MOL    C8843558   2.633   2.478   1.243 -0.2351  0.2099  0.9938
  136MOL    C8943559   2.556   2.589   1.280  0.0327 -0.1834  0.5391
  136MOL    C9043560   2.257   2.736   1.244  0.1782  0.1423  0.1798
  136MOL    H9143561   2.399   2.849   1.121  2.2268 -1.6951 -1.7130
  136MOL    H9243562   2.422   2.664   0.965  1.1955 -1.6460 -3.1289
  136MOL    H9343563   2.563   2.467   0.905 -0.5571  0.0161  0.6169
  136MOL    H9443564   2.700   2.433   1.314  1.3025 -0.5361 -0.8874
  136MOL    H9543565   2.567   2.621   1.383 -0.1236 -1.5126  0.9744
  136MOL    H9643566   2.222   2.671   1.164  0.8701  0.0564 -0.0536
  136MOL    H9743567   2.263   2.669   1.329  0.1405  0.0388  0.1011
  136MOL    C9843568   2.152   2.851   1.265  0.4908  0.2598 -0.1897
  136MOL    C9943569   2.145   2.939   1.139 -0.0098 -0.4397  0.0583
  136MOL   C10043570   2.195   3.073   1.133 -0.3892  0.1905 -0.2409
  136MOL   C10143571   2.195   3.131   1.004  0.7002 -0.2057 -0.5978
  136MOL   C10243572   2.156   3.067   0.885 -0.3563 -0.2943 -0.1221
  136MOL  Cl10343573   2.130   3.138   0.737 -0.2398 -0.0468 -0.2089
  136MOL   C10443574   2.116   2.931   0.902 -0.5677 -1.3510  0.1712
  136MOL   C10543575   2.107   2.874   1.025 -0.2902  0.0399 -0.2421
  136MOL   C10643576   2.023   2.802   1.337  1.0317  0.1424 -0.1745
  136MOL   H10743577   2.206   2.904   1.344  3.6913  1.2313 -2.8842
  136MOL   H10843578   2.227   3.141   1.211  1.7237 -1.8165  0.6783
  136MOL   H10943579   2.219   3.236   1.004  0.8285 -0.1887  2.2148
  136MOL   H11043580   2.098   2.875   0.811  1.9846  0.2232 -1.3503
  136MOL   H11143581   2.086   2.768   1.026 -1.0685  0.1877  1.8654
  136MOL   H11243582   1.969   2.745   1.262 -2.3321  1.9317  0.8333
  136MOL   H11343583   2.039   2.736   1.423 -1.0829 -0.4754 -0.2473
  136MOL   C11443584   1.931   2.916   1.380  0.1400 -0.4621  0.3604
  136MOL   C11543585   1.785   2.869   1.361 -0.1434 -0.4447 -0.2133
  136MOL   C11643586   1.720   2.891   1.239  0.0060  0.6631 -0.5639
  136MOL   C11743587   1.577   2.879   1.225  0.2837  0.2290 -1.4708
  136MOL   C11843588   1.510   2.810   1.331  0.2221 -0.1610  0.2903
  136MOL  Cl11943589   1.341   2.792   1.339 -0.7817  0.4621 -0.2271
  136MOL   C12043590   1.578   2.768   1.449 -0.1317  0.0499  0.4117
  136MOL   C12143591   1.714   2.799   1.465 -0.0481  0.2206  0.3496
  136MOL   C12243592   1.955   2.973   1.525  0.0284  0.7433  0.2111
  136MOL   H12343593   1.941   2.994   1.304 -2.5855  1.2373  1.6644
  136MOL   H12443594   1.781   2.921   1.155  1.4523 -1.1907 -0.2032
  136MOL   H12543595   1.528   2.912   1.135  1.6594  3.0888 -1.2397
  136MOL   H12643596   1.517   2.724   1.527 -2.1089  1.0328 -0.5306
  136MOL   H12743597   1.761   2.761   1.554 -1.8169  0.0982  1.2558
  136MOL   H12843598   1.927   2.892   1.592  1.3456  0.2447  0.1705
  136MOL   H12943599   2.060   2.978   1.555  0.7554  0.0923 -2.1058
  136MOL   C13043600   1.898   3.114   1.557 -0.3513 -0.5354  0.1616
  136MOL   C13143601   1.935   3.211   1.449 -0.1784 -1.2152 -0.4642
  136MOL   C13243602   1.861   3.225   1.327  0.1909  0.2598 -0.4932
  136MOL   C13343603   1.911   3.298   1.214 -0.2375  0.9157  0.0939
  136MOL   C13443604   2.029   3.372   1.230  0.1727 -0.1937  0.3030
  136MOL  Cl13543605   2.093   3.461   1.101  0.1953  0.3524 -0.1392
  136MOL   C13643606   2.095   3.371   1.355 -0.0286 -0.3113 -0.4369
  136MOL   C13743607   2.048   3.290   1.464 -0.2279 -0.4249  0.3622
  136MOL   C13843608   1.751   3.117   1.589 -0.2431  0.0305  0.1616
  136MOL   H13943609   1.940   3.145   1.652  0.0943 -0.7353  0.0357
  136MOL   H14043610   1.763   3.180   1.335 -0.6008  1.9064 -0.8537
  136MOL   H14143611   1.860   3.308   1.120  1.5008  0.4349 -0.9173
  136MOL   H14243612   2.192   3.414   1.375  1.4037 -2.9893 -1.3919
  136MOL   H14343613   2.109   3.286   1.553 -1.9309  2.7513  1.7525
  136MOL   H14443614   1.716   3.219   1.575 -1.4510 -0.6647 -2.1080
  136MOL   H14543615   1.689   3.045   1.536 -0.0841 -0.6235  0.8573
  136MOL   C14643616   1.720   3.123   1.743 -0.3798 -0.8992  0.3046
  136MOL   C14743617   1.590   3.187   1.776 -0.0233  0.5053  0.6188
  136MOL   C14843618   1.469   3.142   1.717 -0.4761 -0.3217 -0.2224
  136MOL   C14943619   1.349   3.214   1.747  0.2796  0.6552 -0.6129
  136MOL   C15043620   1.356   3.330   1.831  0.4702  0.1928 -0.2281
  136MOL  Cl15143621   1.199   3.413   1.860 -0.0034 -0.4100 -0.0635
  136MOL   C15243622   1.478   3.374   1.886  0.2032 -0.3319  0.3235
  136MOL   C15343623   1.595   3.305   1.856  0.8957 -0.1934  0.2800
  136MOL   C15443624   1.724   2.978   1.805 -0.6655 -0.5893  0.1941
  136MOL   H15543625   1.797   3.184   1.790 -0.9073  0.3322 -0.4062
  136MOL   H15643626   1.458   3.059   1.650 -1.1118  1.1210 -1.9250
  136MOL   H15743627   1.248   3.183   1.723  0.8610 -1.1191 -0.7848
  136MOL   H15843628   1.483   3.464   1.947  1.0995  1.8776 -2.8730
  136MOL   H15943629   1.689   3.337   1.900  0.7595  0.1198  0.3475
  136MOL   H16043630   1.639   2.916   1.778 -0.1456 -0.9758 -0.5594
  136MOL   H16143631   1.812   2.938   1.754  0.7604 -0.4594  2.4612
  136MOL   C16243632   1.737   2.976   1.958  0.4663  0.3037  0.3903
  136MOL   C16343633   1.602   2.978   2.031 -0.0273 -0.1973  0.6843
  136MOL   C16443634   1.568   3.085   2.108 -0.1150  0.2474  0.3987
  136MOL   C16543635   1.449   3.080   2.188 -0.1477  0.3396 -0.2997
  136MOL   C16643636   1.376   2.962   2.205 -0.4226 -0.8815  0.3458
  136MOL  Cl16743637   1.256   2.947   2.325  0.1404 -0.1768  0.1693
  136MOL   C16843638   1.405   2.851   2.125  0.2973 -0.1955 -0.5794
  136MOL   C16943639   1.516   2.861   2.038  0.1893  0.2438 -0.0025
  136MOL   C17043640   1.808   2.846   1.999 -0.1760 -0.1994  0.0163
  136MOL   H17143641   1.790   3.069   1.978  1.5582 -0.3708  0.6849
  136MOL   H17243642   1.633   3.170   2.103  0.0631  0.0205 -1.4694
  136MOL   H17343643   1.421   3.159   2.255  0.3552  0.5585 -0.3446
  136MOL   H17443644   1.355   2.756   2.137  1.4995 -0.8157 -0.3592
  136MOL   H17543645   1.533   2.775   1.975  0.7246  0.4903 -0.1911
  136MOL   H17643646   1.812   2.866   2.106  0.4781  2.5267 -0.4701
  136MOL   H17743647   1.751   2.756   1.975  0.4317 -0.7315  0.5474
  136MOL   C17843648   1.955   2.816   1.956  0.0595 -0.4123  0.0685
  136MOL   C17943649   2.047   2.941   1.966  0.4699 -0.2021 -0.4381
  136MOL   C18043650   2.134   2.971   1.861  0.4681 -0.5288  0.4911
  136MOL   C18143651   2.233   3.078   1.865 -1.1494 -0.0515 -0.6079
  136MOL   C18243652   2.233   3.157   1.982  0.6581 -0.2845  0.1689
  136MOL  Cl18343653   2.344   3.294   1.992 -0.2880  0.0062  0.1731
  136MOL   C18443654   2.146   3.125   2.091 -0.2762  0.2652 -0.3509
  136MOL   C18543655   2.055   3.016   2.084 -0.0648 -0.8428 -0.3574
  136MOL   C18643656   2.018   2.690   2.018 -0.0711 -0.0639  0.6002
  136MOL   H18743657   1.944   2.793   1.850  0.6038 -0.8313  0.0952
  136MOL   H18843658   2.127   2.911   1.772  1.0488 -0.4316  0.3818
  136MOL   H18943659   2.307   3.082   1.787 -0.2082 -3.2852  0.0243
  136MOL   H19043660   2.144   3.189   2.178 -0.9371 -0.2504  0.0146
  136MOL   H19143661   2.000   2.994   2.174  4.7328 -4.1570  1.9957
  136MOL   H19243662   1.960   2.605   1.983  0.4577  0.7913 -2.5728
  136MOL   H19343663   2.110   2.673   1.962 -0.9620  1.2685 -1.3007
  136MOL   C19443664   2.040   2.687   2.173  0.4806 -0.0655  0.6776
  136MOL   C19543665   1.918   2.676   2.266  0.2292  0.1126 -0.2067
  136MOL   C19643666   1.848   2.555   2.268  0.2258 -0.1378 -0.4952
  136MOL   C19743667   1.738   2.539   2.359 -0.0046  0.6164 -0.6988
  136MOL   C19843668   1.686   2.650   2.432  0.6148  0.3609 -0.2024
  136MOL  Cl19943669   1.546   2.631   2.537  0.1655  0.3821 -0.1833
  136MOL   C20043670   1.758   2.770   2.424  0.1698  0.3444  0.2364
  136MOL   C20143671   1.872   2.783   2.343 -0.4466  0.0370 -0.0755
  136MOL   C20243672   2.152   2.576   2.204 -0.3786  0.3137  0.2986
  136MOL   H20343673   2.094   2.777   2.206 -1.3386  1.3700 -0.1628
  136MOL   H20443674   1.865   2.475   2.197 -2.6846  1.0207 -2.6031
  136MOL   H20543675   1.673   2.454   2.357  1.5448 -0.5745 -1.8638
  136MOL   H20643676   1.736   2.857   2.484 -0.3079  0.7998 -0.5886
  136MOL   H20743677   1.927   2.876   2.345  0.8615 -0.6902 -1.1757
  136MOL   H20843678   2.140   2.542   2.307  0.4284 -2.0456 -0.3678
  136MOL   H20943679   2.126   2.485   2.150  1.8031  0.4277 -0.9906
  136MOL   C21043680   2.305   2.602   2.166  0.0819 -0.1065 -0.5077
  136MOL   C21143681   2.353   2.734   2.228  0.4615  0.5510  0.3569
  136MOL   C21243682   2.408   2.834   2.145  1.1903 -0.3441 -0.0828
  136MOL   C21343683   2.437   2.961   2.201  0.2200 -0.6370 -0.2519
  136MOL   C21443684   2.411   2.989   2.334  0.5326 -0.2692  0.5353
  136MOL  Cl21543685   2.418   3.153   2.376 -0.0028  0.3828  0.0985
  136MOL   C21643686   2.357   2.887   2.418  0.4027  0.0265 -0.3207
  136MOL   C21743687   2.327   2.757   2.365  0.0899 -0.5538  0.8103
  136MOL   C21843688   2.395   2.475   2.192  0.2388  0.2391 -0.0573
  136MOL   H21943689   2.305   2.628   2.060 -0.1030  0.5852 -0.3426
  136MOL   H22043690   2.410   2.809   2.040 -1.9038  0.9541 -0.5243
  136MOL   H22143691   2.464   3.048   2.144  1.0677  0.4643  1.7700
  136MOL   H22243692   2.319   2.918   2.514  0.7424  1.6157 -0.6863
  136MOL   H22343693   2.269   2.681   2.416  0.1175 -1.0076  0.1742
  136MOL   H22443694   2.421   2.473   2.298  0.4120  1.1866 -0.0783
  136MOL   H22543695   2.329   2.388   2.192  0.7113 -0.1287  0.8354
  136MOL   C22643696   2.523   2.455   2.098 -0.2633  0.2429 -0.1022
  136MOL   C22743697   2.486   2.499   1.954  0.9944  0.0348  0.2273
  136MOL   C22843698   2.379   2.429   1.897  0.0856 -0.6271 -0.0616
  136MOL   C22943699   2.317   2.476   1.777  0.2052 -0.2713 -0.3013
  136MOL   C23043700   2.358   2.597   1.727 -0.0917 -0.3860  0.5145
  136MOL  Cl23143701   2.252   2.672   1.603 -0.4804  0.2271 -0.2719
  136MOL   C23243702   2.468   2.667   1.780 -0.4726  0.2201  0.1067
  136MOL   C23343703   2.540   2.607   1.885 -0.7844 -0.3221  0.0130
  136MOL   C23443704   2.656   2.501   2.158  0.1924  0.1525  0.4925
  136MOL   H23543705   2.522   2.347   2.079  0.3150  0.2522 -0.2088
  136MOL   H23643706   2.337   2.339   1.941 -0.5134  0.4118  1.5215
  136MOL   H23743707   2.233   2.429   1.729 -1.2323  0.6145  1.2534
  136MOL   H23843708   2.499   2.762   1.741  1.9520 -1.0326 -1.1626
  136MOL   H23943709   2.627   2.656   1.926 -0.9919  1.0577 -1.1617
  136MOL   H24043710   2.733   2.504   2.081 -0.8128  1.1288 -0.4881
  136MOL   H24143711   2.646   2.602   2.197 -2.2100  0.3121 -0.4769
  136MOL   C24243712   2.704   2.397   2.261  0.4248  0.0165  0.4967
  136MOL   C24343713   2.761   2.267   2.196 -0.4249  1.1473 -0.0729
  136MOL   C24443714   2.702   2.139   2.233 -0.1372  0.1032 -0.2739
  136MOL   C24543715   2.749   2.019   2.171 -0.6854 -1.2290  0.1680
  136MOL   C24643716   2.851   2.022   2.076 -0.4775  0.6382  0.9322
  136MOL  Cl24743717   2.905   1.876   1.993  0.0845  0.1040  0.4992
  136MOL   C24843718   2.900   2.150   2.035 -0.2385  0.5410 -0.1621
  136MOL   C24943719   2.858   2.265   2.096  0.2169  0.2044 -0.0990
  136MOL   C25043720   2.817   2.461   2.345  0.3267 -0.2179 -0.0707
  136MOL   H25143721   2.625   2.371   2.331  1.0459  0.3129  1.3252
  136MOL   H25243722   2.628   2.132   2.312  0.2190  0.2576  0.0764
  136MOL   H25343723   2.714   1.920   2.194 -2.8142 -1.0474 -2.1563
  136MOL   H25443724   2.976   2.156   1.959  0.1272  1.1651  0.2475
  136MOL   H25543725   2.897   2.360   2.061 -1.8646  0.6110 -1.3897
  136MOL   H25643726   2.880   2.384   2.388  0.1459  0.9371  2.3283
  136MOL   H25743727   2.887   2.513   2.280 -0.6805  1.3313  0.0525
  136MOL   C25843728   2.764   2.567   2.450 -0.2678 -0.8463 -0.2228
  136MOL   C25943729   2.663   2.507   2.544  0.2215 -0.2835  0.2555
  136MOL   C26043730   2.542   2.581   2.571 -0.9456  0.8592 -0.2963
  136MOL   C26143731   2.449   2.536   2.667  0.1930 -0.6426  0.2309
  136MOL   C26243732   2.468   2.419   2.736  0.3589  0.1095  0.3357
  136MOL  Cl26343733   2.360   2.377   2.858 -0.2018 -0.2886  0.0243
  136MOL   C26443734   2.582   2.343   2.705 -0.8303  0.4733 -0.5596
  136MOL   C26543735   2.676   2.381   2.609 -0.5887 -0.2258  0.0482
  136MOL   C26643736   2.887   2.628   2.526 -0.1555 -0.4368  0.8318
  136MOL   H26743737   2.706   2.641   2.395 -0.3670  0.4468  1.5451
  136MOL   H26843738   2.522   2.673   2.518 -2.4553  0.7443  0.0451
  136MOL   H26943739   2.360   2.592   2.694  1.8640  1.4110  1.5991
  136MOL   H27043740   2.591   2.247   2.752  2.5173  0.9762 -0.0224
  136MOL   H27143741   2.763   2.320   2.588 -0.9061 -0.3180 -1.0385
  136MOL   H27243742   2.911   2.573   2.618  2.0960 -0.8640  0.0360
  136MOL   H27343743   2.979   2.602   2.473 -1.1824 -0.7198 -0.8027
  136MOL   C27443744   2.877   2.782   2.542  0.7497 -0.3455 -0.5347
  136MOL   C27543745   2.764   2.833   2.629 -0.4332 -0.1681  0.0487
  136MOL   C27643746   2.758   2.786   2.762 -0.2187  0.9043  0.4597
  136MOL   C27743747   2.648   2.800   2.841  0.4575  0.3745 -0.3159
  136MOL   C27843748   2.541   2.884   2.791  0.5507  0.4664 -0.2563
  136MOL  Cl27943749   2.403   2.917   2.899 -0.0231 -0.0564  0.2764
  136MOL   C28043750   2.556   2.943   2.665  0.2580  0.5211 -0.1850
  136MOL   C28143751   2.660   2.915   2.577 -0.0656  0.0006 -0.2749
  136MOL   C28243752   3.016   2.837   2.588 -0.3132 -0.4383  0.2408
  136MOL   H28343753   2.857   2.809   2.438 -1.6996 -2.1382 -0.5929
  136MOL   H28443754   2.842   2.729   2.800  0.3372  1.6097  0.2860
  136MOL   H28543755   2.635   2.757   2.939 -0.2759  1.2184 -0.0400
  136MOL   H28643756   2.478   3.015   2.643  0.3465  1.1962  1.6099
  136MOL   H28743757   2.662   2.958   2.478 -2.8702 -0.0195 -0.3725
  136MOL   H28843758   3.038   2.786   2.681 -2.6586  0.1578  1.1653
  136MOL   H28943759   3.096   2.805   2.521  0.7014  0.4812  0.9936
  136MOL   C29043760   3.028   2.989   2.604  0.8421  0.3689 -0.0456
  136MOL   C29143761   3.134   3.025   2.700 -0.1392  0.0083  0.1695
  136MOL   C29243762   3.263   3.016   2.656  0.4327  0.8028  0.7443
  136MOL   C29343763   3.366   3.063   2.740  0.0353  0.4479  0.7759
  136MOL   C29443764   3.337   3.099   2.871 -0.4035 -1.4735 -0.8430
  136MOL  Cl29543765   3.469   3.166   2.963 -0.1735 -0.2491  0.0039
  136MOL   C29643766   3.207   3.090   2.919  0.4736 -0.0193  0.6050
  136MOL   C29743767   3.105   3.065   2.827  0.0454  0.3020 -0.0285
  136MOL   C29843768   3.031   3.064   2.466  0.5219 -0.4588  0.8063
  136MOL   H29943769   2.941   3.026   2.658  1.4132 -0.2902  1.3361
  136MOL   H30043770   3.294   2.978   2.559 -1.8611  0.5838  0.0798
  136MOL   H30143771   3.467   3.074   2.704 -0.3473  0.8287 -0.2055
  136MOL   H30243772   3.192   3.118   3.022  2.0881 -1.8468  1.3622
  136MOL   H30343773   3.005   3.069   2.868 -0.0086  2.6373 -0.3500
  136MOL   H30443774   3.118   3.025   2.415 -1.5758 -3.7246 -0.4414
  136MOL   H30543775   2.942   3.043   2.407  1.2815 -1.0126 -0.1503
  136MOL   C30643776   3.026   3.217   2.476 -0.4707  0.5843 -0.4811
  136MOL   C30743777   3.045   3.280   2.341  0.0714 -0.2229  0.1196
  136MOL   C30843778   3.079   3.416   2.351 -0.5292 -0.7956  0.4880
  136MOL   C30943779   3.090   3.496   2.234  0.1218 -0.6473 -0.3677
  136MOL   C31043780   3.046   3.440   2.112 -0.0575 -0.3293 -0.9728
  136MOL  Cl31143781   3.030   3.536   1.968 -0.3497 -0.0413 -0.3416
  136MOL   C31243782   3.018   3.306   2.099  0.4487  0.8599 -0.5800
  136MOL   C31343783   3.012   3.222   2.214 -0.7153 -0.0026 -0.6493
  136MOL   C31443784   2.895   3.269   2.529  0.2991 -0.4037 -0.6783
  136MOL   H31543785   3.120   3.241   2.526 -0.6600 -1.4477  0.9039
  136MOL   H31643786   3.110   3.454   2.447 -1.1156 -0.0651  0.3897
  136MOL   H31743787   3.132   3.595   2.246  0.9314 -1.0000 -0.2149
  136MOL   H31843788   3.002   3.269   1.998  0.0432 -0.6442  0.0229
  136MOL   H31943789   2.967   3.124   2.208 -1.7201  0.5494 -2.3145
  136MOL   H32043790   2.806   3.242   2.471  0.2050 -0.6715 -0.4143
  136MOL   H32143791   2.873   3.248   2.634 -1.4083 -2.5766 -1.4146
  136MOL   H32243792   2.888   3.376   2.515  1.6021 -0.2293 -0.0537
  137MOL     C143793   7.738   2.160   6.829 -0.9342  0.3417 -0.2350
  137MOL     C243794   7.775   2.009   6.818  0.0077  0.5932  0.5633
  137MOL     C343795   7.879   1.975   6.728 -0.5969 -0.1036  0.1574
  137MOL     C443796   7.914   1.840   6.706  0.5360  0.3359  0.4185
  137MOL     C543797   7.845   1.739   6.772  0.6568 -0.6182 -0.3133
  137MOL    Cl643798   7.872   1.576   6.727  0.1170 -0.2662 -0.3459
  137MOL     C743799   7.751   1.771   6.868  0.6310 -0.0178 -0.3313
  137MOL     C843800   7.703   1.904   6.878 -1.0860 -0.4781  0.2861
  137MOL     C943801   7.610   2.200   6.751  0.4524 -0.2606 -0.0484
  137MOL    H1043802   7.821   2.224   6.798  0.7347 -1.2246  0.8834
  137MOL    H1143803   7.923   2.056   6.673 -1.3110  0.3298  0.2237
  137MOL    H1243804   7.982   1.802   6.632 -0.2250  0.6637 -0.4610
  137MOL    H1343805   7.689   1.700   6.920 -1.2579  1.9407  0.2059
  137MOL    H1443806   7.619   1.920   6.944 -2.3020 -1.1622 -1.0682
  137MOL    H1543807   7.608   2.136   6.662  2.7126 -1.3254  0.6207
  137MOL    H1643808   7.523   2.180   6.813 -0.2268 -0.6195 -1.0918
  137MOL    H1743809   7.723   2.190   6.932 -1.1466  1.1939 -0.5141
  137MOL    C1843810   7.608   2.349   6.696  0.1745  0.8321  0.0655
  137MOL    C1943811   7.720   2.385   6.602  0.3364 -0.6218 -0.2529
  137MOL    C2043812   7.750   2.524   6.581 -0.3712  0.4919 -0.0696
  137MOL    C2143813   7.863   2.561   6.501  0.4441 -0.6554 -0.7852
  137MOL    C2243814   7.935   2.464   6.427  0.0208  0.1730 -0.1760
  137MOL   Cl2343815   8.058   2.517   6.319  0.2101 -0.4501  0.4889
  137MOL    C2443816   7.909   2.330   6.442 -0.1747 -0.9430 -0.5152
  137MOL    C2543817   7.800   2.294   6.527  0.7817  0.0187 -0.5268
  137MOL    C2643818   7.468   2.395   6.643 -0.2313  0.2485 -0.3327
  137MOL    H2743819   7.628   2.411   6.783  1.7764 -1.2871  1.2499
  137MOL    H2843820   7.690   2.605   6.620 -0.1649  0.3944  0.4513
  137MOL    H2943821   7.883   2.664   6.473 -0.5223 -0.5351 -1.0563
  137MOL    H3043822   7.970   2.253   6.396  2.0452  0.5018 -0.0841
  137MOL    H3143823   7.790   2.189   6.548 -3.4983  0.3975 -0.1816
  137MOL    H3243824   7.410   2.389   6.735 -0.0989 -2.6455 -0.3762
  137MOL    H3343825   7.454   2.497   6.609 -2.1940  0.0654 -0.1402
  137MOL    C3443826   7.396   2.299   6.543  0.3394  0.0456  0.7180
  137MOL    C3543827   7.244   2.313   6.555 -0.0519 -0.1062 -0.2053
  137MOL    C3643828   7.158   2.201   6.560  0.7130 -0.5318 -0.0681
  137MOL    C3743829   7.016   2.224   6.577 -0.9419 -0.2423  1.2495
  137MOL    C3843830   6.958   2.352   6.590  0.1534 -0.0438  0.1953
  137MOL   Cl3943831   6.797   2.371   6.633  0.1674  0.2846  0.2418
  137MOL    C4043832   7.043   2.461   6.564  0.1065 -0.0769 -1.0734
  137MOL    C4143833   7.184   2.443   6.556  0.2421  0.3638  0.3511
  137MOL    C4243834   7.464   2.310   6.403 -0.1763  0.0141 -0.2796
  137MOL    H4343835   7.403   2.193   6.569 -2.2321 -0.4721 -0.4984
  137MOL    H4443836   7.209   2.106   6.556 -0.4770 -1.1612 -0.4940
  137MOL    H4543837   6.956   2.141   6.612 -0.2026 -0.1888  2.6824
  137MOL    H4643838   6.995   2.556   6.546  1.4798  1.1899  1.5085
  137MOL    H4743839   7.242   2.531   6.532  1.6770 -0.4509  0.7155
  137MOL    H4843840   7.384   2.348   6.340 -2.1310  1.6639  3.0836
  137MOL    H4943841   7.540   2.387   6.407  1.4759 -1.5576 -0.5380
  137MOL    C5043842   7.504   2.174   6.343  0.3659 -0.2371 -0.1358
  137MOL    C5143843   7.398   2.056   6.337 -0.3298  0.2945  0.5675
  137MOL    C5243844   7.406   1.934   6.409 -0.2403 -0.4107 -0.3217
  137MOL    C5343845   7.307   1.840   6.406  0.2973  0.5393  0.6974
  137MOL    C5443846   7.181   1.865   6.342  0.2276 -0.5768  0.1230
  137MOL   Cl5543847   7.059   1.745   6.340  0.1425 -0.0222  0.2038
  137MOL    C5643848   7.164   1.996   6.279 -0.1558  0.6287 -0.4283
  137MOL    C5743849   7.271   2.086   6.274  0.2320  0.0848  0.6238
  137MOL    C5843850   7.576   2.194   6.211 -0.3409 -0.0987  0.6867
  137MOL    H5943851   7.573   2.135   6.418  1.0929  1.1747 -0.0534
  137MOL    H6043852   7.496   1.914   6.466 -0.8351  0.1662  0.8340
  137MOL    H6143853   7.314   1.744   6.453 -1.2426 -0.1220 -0.3860
  137MOL    H6243854   7.072   2.022   6.229  0.8158  2.7354 -1.1863
  137MOL    H6343855   7.271   2.179   6.219 -0.4690  0.7638  1.7419
  137MOL    H6443856   7.504   2.216   6.132 -1.5541 -0.3592  1.7079
  137MOL    H6543857   7.628   2.290   6.205  0.0694 -0.2758  1.3589
  137MOL    C6643858   7.682   2.083   6.177  0.5197  0.2078  1.1305
  137MOL    C6743859   7.631   1.984   6.074 -0.3614 -0.5546 -0.2613
  137MOL    C6843860   7.581   2.026   5.947  0.4079 -0.7992 -0.1987
  137MOL    C6943861   7.517   1.940   5.857  0.0575  0.0931 -0.3550
  137MOL    C7043862   7.505   1.809   5.896  0.4236  0.2408  0.1764
  137MOL   Cl7143863   7.410   1.704   5.799  0.2837  0.3931 -0.1207
  137MOL    C7243864   7.557   1.755   6.011  0.2753  0.3058 -0.0578
  137MOL    C7343865   7.624   1.842   6.102  0.2519 -0.1923  0.6592
  137MOL    C7443866   7.798   2.154   6.110  0.0961 -0.0288 -0.6933
  137MOL    H7543867   7.719   2.032   6.265 -0.3201 -2.5719 -0.0776
  137MOL    H7643868   7.591   2.133   5.933 -0.2553 -0.5045  1.4710
  137MOL    H7743869   7.479   1.982   5.765  1.3204  2.7380  0.2754
  137MOL    H7843870   7.551   1.649   6.034 -0.8963  0.6804  1.4712
  137MOL    H7943871   7.677   1.811   6.190  2.5990  1.5930 -0.0731
  137MOL    H8043872   7.773   2.211   6.021 -0.8870 -0.2756 -0.5761
  137MOL    H8143873   7.830   2.225   6.186 -0.6378 -0.7917  0.3539
  137MOL    C8243874   7.926   2.067   6.084 -0.1309  0.4787 -0.0452
  137MOL    C8343875   8.022   2.158   6.005  0.2336  0.4399 -0.2386
  137MOL    C8443876   8.019   2.159   5.864 -0.0582 -0.8674 -0.0675
  137MOL    C8543877   8.083   2.258   5.793  0.0349  0.4475 -0.0412
  137MOL    C8643878   8.162   2.357   5.861  0.5891 -0.4216  0.3115
  137MOL   Cl8743879   8.222   2.490   5.767  0.3445 -0.0283  0.0664
  137MOL    C8843880   8.176   2.352   6.000 -0.4324  0.5142 -0.0788
  137MOL    C8943881   8.110   2.250   6.072  0.6619  0.7347  0.2610
  137MOL    C9043882   8.000   1.994   6.212  0.2557 -0.0065  0.7750
  137MOL    H9143883   7.893   1.987   6.017  0.0527  1.3761 -1.2116
  137MOL    H9243884   7.958   2.092   5.805  0.7104  1.4598 -3.6541
  137MOL    H9343885   8.067   2.266   5.686 -1.8263 -0.0152  0.1983
  137MOL    H9443886   8.234   2.431   6.047 -1.5031  0.5887  1.1508
  137MOL    H9543887   8.113   2.252   6.180  0.2869  0.9387  0.2681
  137MOL    H9643888   8.034   2.070   6.283  2.8981  0.5523 -0.9894
  137MOL    H9743889   7.940   1.927   6.273  1.9990 -0.4689  2.0440
  137MOL    C9843890   8.125   1.910   6.182 -0.0459  0.5667 -0.1525
  137MOL    C9943891   8.212   1.893   6.302 -0.2661  0.6597 -0.4030
  137MOL   C10043892   8.348   1.936   6.290 -0.3546 -0.1047 -0.3408
  137MOL   C10143893   8.439   1.910   6.400 -0.0750  0.1092 -0.5340
  137MOL   C10243894   8.388   1.835   6.514 -1.0265  0.5422 -0.6613
  137MOL  Cl10343895   0.052   1.795   6.642 -0.7116  0.0263  0.3055
  137MOL   C10443896   8.253   1.804   6.522 -0.7608  0.7957 -0.6524
  137MOL   C10543897   8.160   1.830   6.415  1.0638  0.2684 -0.0864
  137MOL   C10643898   8.084   1.776   6.107  0.1153  0.5694 -0.3165
  137MOL   H10743899   8.181   1.957   6.102  0.5065  0.2415  0.0432
  137MOL   H10843900   8.371   1.997   6.204  3.2798  2.2531  2.1166
  137MOL   H10943901   0.100   1.933   6.382 -0.4493  1.2875 -1.2549
  137MOL   H11043902   8.231   1.751   6.613 -0.6534  2.5901  0.4382
  137MOL   H11143903   8.056   1.801   6.427  0.7669  1.3468 -0.0265
  137MOL   H11243904   8.035   1.707   6.176 -0.8725  2.1945  0.6374
  137MOL   H11343905   8.008   1.798   6.032 -0.2774  0.8604  0.1633
  137MOL   C11443906   8.200   1.709   6.034  0.3573 -0.0470  0.2871
  137MOL   C11543907   8.300   1.645   6.133 -0.4429  0.4697 -0.4844
  137MOL   C11643908   8.436   1.671   6.111 -0.3911 -0.4134 -0.1291
  137MOL   C11743909   0.091   1.633   6.207  0.5165 -0.1999  0.2215
  137MOL   C11843910   0.053   1.557   6.320  0.1571  0.0569  0.0709
  137MOL  Cl11943911   0.166   1.521   6.445 -0.0869  0.1698 -0.1251
  137MOL   C12043912   8.357   1.526   6.347  0.1510  0.0676 -0.3071
  137MOL   C12143913   8.264   1.570   6.252 -0.5193  0.9224  0.2574
  137MOL   C12243914   8.158   1.592   5.943  0.1224  0.3478 -0.4434
  137MOL   H12343915   8.253   1.784   5.975 -0.1103  1.9280  2.3065
  137MOL   H12443916   0.024   1.720   6.020  1.6283 -2.5531 -0.6486
  137MOL   H12543917   0.195   1.658   6.192  0.3597  2.0199  2.5598
  137MOL   H12643918   8.326   1.475   6.437 -1.5368 -1.3298 -1.6481
  137MOL   H12743919   8.158   1.553   6.262 -0.6082  1.0072 -0.4958
  137MOL   H12843920   8.242   1.546   5.890 -0.0368 -0.6181  0.1426
  137MOL   H12943921   8.121   1.513   6.007  0.3131  0.8581  0.3014
  137MOL   C13043922   8.033   1.610   5.851  0.0300 -0.5600 -0.0557
  137MOL   C13143923   8.052   1.714   5.744 -0.9518 -0.6843  0.5328
  137MOL   C13243924   8.177   1.740   5.683 -0.0152 -0.6830 -0.8747
  137MOL   C13343925   8.184   1.838   5.581 -0.0652 -0.0025 -0.1679
  137MOL   C13443926   8.068   1.906   5.539  0.0329 -0.2385 -0.4016
  137MOL  Cl13543927   8.086   2.006   5.410 -0.0846 -0.2427 -0.0133
  137MOL   C13643928   7.947   1.883   5.604  0.9326  0.1324 -0.0823
  137MOL   C13743929   7.937   1.786   5.701  0.4005  0.2497  0.2970
  137MOL   C13843930   7.982   1.478   5.794 -0.3608 -0.2299  0.2659
  137MOL   H13943931   7.955   1.649   5.917  1.1009  3.3348 -0.9845
  137MOL   H14043932   8.261   1.674   5.701  0.3742  0.2097  0.6687
  137MOL   H14143933   8.278   1.858   5.532  0.6569  0.7518  1.4709
  137MOL   H14243934   7.862   1.934   5.562  1.7463  0.7943 -0.9531
  137MOL   H14343935   7.837   1.764   5.736  0.3230 -0.1084 -0.1522
  137MOL   H14443936   7.964   1.414   5.881 -0.1453  0.3258  0.7200
  137MOL   H14543937   7.877   1.498   5.773 -0.2385  1.2376  0.9953
  137MOL   C14643938   8.058   1.406   5.681 -0.6690 -0.6774 -0.1753
  137MOL   C14743939   8.201   1.358   5.727 -0.5457  0.7292 -0.5193
  137MOL   C14843940   8.314   1.409   5.653 -0.0553  0.4842  0.0205
  137MOL   C14943941   8.440   1.369   5.704  0.5370  0.3800 -0.2730
  137MOL   C15043942   0.014   1.287   5.816 -0.2685 -0.5960 -0.1556
  137MOL  Cl15143943   0.175   1.244   5.863 -0.3529 -0.2325  0.1438
  137MOL   C15243944   8.347   1.231   5.877 -0.4229 -0.0196  0.7696
  137MOL   C15343945   8.219   1.269   5.837  0.7635  0.2552  0.0680
  137MOL   C15443946   7.977   1.294   5.612 -0.3879  0.1269 -0.2005
  137MOL   H15543947   8.080   1.487   5.611  3.7287 -1.8107 -0.2129
  137MOL   H15643948   8.311   1.482   5.573 -0.2826  1.8862  1.2753
  137MOL   H15743949   0.091   1.401   5.662  1.6304  0.5586  2.2300
  137MOL   H15843950   8.349   1.158   5.956 -1.7292 -1.3691 -0.4073
  137MOL   H15943951   8.139   1.222   5.892  1.0258 -1.1004 -0.7087
  137MOL   H16043952   8.047   1.228   5.561  0.8844  1.0578  0.3202
  137MOL   H16143953   7.947   1.224   5.690 -0.2692 -2.2312 -2.1858
  137MOL   C16243954   7.862   1.346   5.511 -0.1977 -0.0219  0.2040
  137MOL   C16343955   7.930   1.433   5.410 -0.8608  0.2693  0.8745
  137MOL   C16443956   7.902   1.568   5.406 -0.7513 -0.1241  0.6475
  137MOL   C16543957   7.972   1.657   5.324  0.4661 -0.5255  0.0461
  137MOL   C16643958   8.071   1.608   5.240  0.4612  0.1025  0.1595
  137MOL  Cl16743959   8.153   1.718   5.128 -0.1079  0.0233  0.0268
  137MOL   C16843960   8.093   1.472   5.232 -0.0752  0.3029 -0.4065
  137MOL   C16943961   8.021   1.380   5.316 -0.6176  0.4183  0.2910
  137MOL   C17043962   7.779   1.233   5.448  0.5327  0.1030 -0.6360
  137MOL   H17143963   7.790   1.410   5.562  1.6510  2.0802  0.2262
  137MOL   H17243964   7.836   1.610   5.481 -0.1575 -1.7786  2.1201
  137MOL   H17343965   7.972   1.765   5.331  2.5926 -0.3659 -1.8744
  137MOL   H17443966   8.171   1.429   5.170 -0.5168 -0.2138 -0.6025
  137MOL   H17543967   8.042   1.274   5.303 -2.8483 -0.0038 -0.0624
  137MOL   H17643968   7.851   1.161   5.409  1.5939  0.2602  0.9506
  137MOL   H17743969   7.733   1.187   5.536 -0.4232  1.4275 -0.4407
  137MOL   C17843970   7.691   1.262   5.330  0.5327 -0.2199 -0.6629
  137MOL   C17943971   7.645   1.135   5.262  0.1033  0.0089  0.3823
  137MOL   C18043972   7.688   1.110   5.133 -0.2892  0.1032  0.7668
  137MOL   C18143973   7.644   1.001   5.060  0.8671  0.4892  0.3671
  137MOL   C18243974   7.540   0.921   5.114  0.0915 -0.2124  0.5654
  137MOL  Cl18343975   7.479   0.798   5.003  0.3679  0.5624  0.2997
  137MOL   C18443976   7.503   0.937   5.252 -0.1533 -0.0957  0.1527
  137MOL   C18543977   7.563   1.041   5.328 -0.4424  0.0291  0.6486
  137MOL   C18643978   7.579   1.362   5.354  0.6369 -0.6049  0.2173
  137MOL   H18743979   7.760   1.293   5.252 -0.0663 -3.1491 -2.4249
  137MOL   H18843980   7.748   1.182   5.081  0.6076 -2.1372 -1.4107
  137MOL   H18943981   7.664   0.982   4.955 -0.4907 -2.0660  0.5365
  137MOL   H19043982   7.433   0.867   5.297  0.1284  0.6372  1.7872
  137MOL   H19143983   7.529   1.060   5.429  1.0502 -0.8928  1.3502
  137MOL   H19243984   7.500   1.326   5.421  0.7874 -0.6463  0.3705
  137MOL   H19343985   7.619   1.448   5.409  0.6180 -0.4019 -0.0860
  137MOL   C19443986   7.494   1.410   5.235  0.4773 -0.0225  0.7061
  137MOL   C19543987   7.374   1.317   5.216 -0.1855 -0.2992  0.2603
  137MOL   C19643988   7.366   1.237   5.096  0.5152 -0.4618 -0.4575
  137MOL   C19743989   7.252   1.143   5.090 -0.0082  0.4008 -0.2560
  137MOL   C19843990   7.151   1.138   5.182  0.1438  0.4269 -0.8717
  137MOL  Cl19943991   7.026   1.024   5.157 -0.0213 -0.2795  0.4791
  137MOL   C20043992   7.163   1.217   5.294  0.1453  0.2274  0.5070
  137MOL   C20143993   7.269   1.313   5.306 -0.1855 -0.0595  0.0654
  137MOL   C20243994   7.441   1.552   5.238 -0.7108 -0.5399  0.0147
  137MOL   H20343995   7.558   1.421   5.148 -1.1703 -0.9776 -0.6520
  137MOL   H20443996   7.440   1.248   5.017  0.9009  2.7447  0.2944
  137MOL   H20543997   7.254   1.079   5.003  2.0436  2.8457 -2.1128
  137MOL   H20643998   7.087   1.219   5.371  0.0517 -2.0696  0.5075
  137MOL   H20743999   7.266   1.385   5.386 -0.7950  0.1559 -0.1465
  137MOL   H20844000   7.349   1.550   5.179 -0.2140  2.7377 -0.9549
  137MOL   H20944001   7.422   1.580   5.341  3.2540 -0.2281  0.7484
  137MOL   C21044002   7.531   1.662   5.175  0.7353  0.0885 -0.1932
  137MOL   C21144003   7.544   1.642   5.021 -0.8463 -0.6591  0.0039
  137MOL   C21244004   7.666   1.603   4.958 -0.0891  0.4370 -0.0669
  137MOL   C21344005   7.681   1.594   4.816  0.0579 -0.3469  0.1732
  137MOL   C21444006   7.569   1.632   4.736 -0.4581  0.5071  0.1003
  137MOL  Cl21544007   7.589   1.656   4.570  0.3922 -0.0907 -0.0396
  137MOL   C21644008   7.444   1.668   4.797  0.0611 -0.5116  0.0514
  137MOL   C21744009   7.434   1.680   4.935 -0.5469 -0.0615  0.1660
  137MOL   C21844010   7.478   1.804   5.220 -0.1502  0.0418 -0.1815
  137MOL   H21944011   7.636   1.665   5.202  1.1321  1.0035 -1.7087
  137MOL   H22044012   7.748   1.579   5.025 -1.3501 -1.1725  0.9597
  137MOL   H22144013   7.772   1.572   4.761  0.1488  1.1759 -0.3231
  137MOL   H22244014   7.358   1.688   4.734 -0.2362 -0.8538  0.3428
  137MOL   H22344015   7.339   1.720   4.968  0.0314  1.0028  0.5687
  137MOL   H22444016   7.380   1.814   5.173 -0.2621  0.9159  0.2171
  137MOL   H22544017   7.455   1.810   5.326 -0.5427  1.6759 -0.3435
  137MOL   C22644018   7.558   1.926   5.173 -0.6630 -0.1891  0.0325
  137MOL   C22744019   7.474   2.052   5.195  0.1635 -0.3107  0.3093
  137MOL   C22844020   7.466   2.106   5.322 -0.0855 -0.4375  0.0919
  137MOL   C22944021   7.398   2.224   5.342 -0.4368 -0.4558  0.3884
  137MOL   C23044022   7.333   2.281   5.235 -0.3202  0.3930 -0.0864
  137MOL  Cl23144023   7.250   2.430   5.257 -0.1132  0.1905 -0.9822
  137MOL   C23244024   7.336   2.225   5.109  0.1323 -0.1031  0.2941
  137MOL   C23344025   7.408   2.107   5.085  0.5977  0.0516  0.8372
  137MOL   C23444026   7.704   1.941   5.228 -0.3443  0.6026  0.3565
  137MOL   H23544027   7.575   1.919   5.066  0.7921  1.1291  0.1628
  137MOL   H23644028   7.524   2.071   5.407  2.3538  0.1591 -1.2908
  137MOL   H23744029   7.402   2.276   5.437 -0.6879 -0.8886  0.6370
  137MOL   H23844030   7.289   2.270   5.022 -0.4609  0.9491  1.1467
  137MOL   H23944031   7.410   2.053   4.992 -3.7224 -1.3330  1.4338
  137MOL   H24044032   7.706   1.975   5.331 -0.1403 -2.5251  1.4492
  137MOL   H24144033   7.743   1.839   5.234 -0.9075  0.3393 -0.3879
  137MOL   C24244034   7.823   2.006   5.144  0.1763 -0.2398  0.4192
  137MOL   C24344035   7.803   1.999   4.995 -0.0406  0.5858  0.1482
  137MOL   C24444036   7.713   2.083   4.930  0.2930  1.1057  0.4410
  137MOL   C24544037   7.689   2.073   4.792 -0.9160 -0.2826 -0.3353
  137MOL   C24644038   7.776   1.994   4.715 -0.3792 -0.2104 -0.7353
  137MOL  Cl24744039   7.756   1.980   4.547  0.1462 -0.1014  0.0419
  137MOL   C24844040   7.866   1.905   4.778 -0.6227  0.5664  0.5856
  137MOL   C24944041   7.880   1.905   4.920  0.2425 -0.1793 -0.6558
  137MOL   C25044042   7.856   2.150   5.194  0.5520 -0.4863  0.1718
  137MOL   H25144043   7.917   1.952   5.160  1.5168  2.3610  1.5727
  137MOL   H25244044   7.642   2.149   4.978 -1.0950 -0.7723  1.0476
  137MOL   H25344045   7.622   2.127   4.727 -0.1463  1.2826  0.1561
  137MOL   H25444046   7.905   1.823   4.720  0.0650  0.2564  1.4679
  137MOL   H25544047   7.945   1.836   4.970 -1.5518 -1.8785 -0.6159
  137MOL   H25644048   7.758   2.197   5.187  1.2323  0.9872  0.3643
  137MOL   H25744049   7.888   2.143   5.298 -0.7259 -2.5014  0.4570
  137MOL   C25844050   7.980   2.221   5.137 -0.6602  1.0440  0.7083
  137MOL   C25944051   8.024   2.353   5.200 -0.2614  0.0775 -0.0435
  137MOL   C26044052   8.018   2.474   5.125 -0.0525 -0.0133 -0.3008
  137MOL   C26144053   8.065   2.596   5.180 -0.9253  0.0363  0.8867
  137MOL   C26244054   8.116   2.601   5.310 -0.1700  0.3860  0.4096
  137MOL  Cl26344055   8.163   2.751   5.382 -0.4953  0.0604  0.1654
  137MOL   C26444056   8.124   2.479   5.384  0.1994 -0.2289 -0.1968
  137MOL   C26544057   8.075   2.358   5.335  0.5743  0.2372 -0.3859
  137MOL   C26644058   8.105   2.130   5.118 -0.1887  0.3501  1.0300
  137MOL   H26744059   7.940   2.241   5.038  1.4275  1.5143 -0.0421
  137MOL   H26844060   7.979   2.469   5.025 -0.7921 -4.0806  0.0860
  137MOL   H26944061   8.065   2.690   5.128  0.6516 -1.5165 -2.0022
  137MOL   H27044062   8.155   2.484   5.488 -0.5272 -0.4870  0.0330
  137MOL   H27144063   8.075   2.267   5.394 -1.9933  1.1410  1.0709
  137MOL   H27244064   8.184   2.171   5.181  1.1859 -0.8965  0.1624
  137MOL   H27344065   8.093   2.027   5.151 -1.7733  0.0992 -0.3126
  137MOL   C27444066   8.167   2.126   4.979  0.6745 -0.1314  0.1216
  137MOL   C27544067   8.209   2.260   4.925  0.3746  0.4056  0.7228
  137MOL   C27644068   8.143   2.318   4.815  0.3040  0.2570 -0.3587
  137MOL   C27744069   8.183   2.437   4.763  0.1046 -0.7003  0.7617
  137MOL   C27844070   8.277   2.517   4.825 -0.2631 -0.2037 -0.5941
  137MOL  Cl27944071   8.316   2.675   4.762 -0.3964  0.0639  0.0212
  137MOL   C28044072   8.339   2.469   4.942  0.2191  0.3972  0.4788
  137MOL   C28144073   8.310   2.340   4.989  0.0671  0.7840 -0.2331
  137MOL   C28244074   8.289   2.035   4.974 -0.9304  0.3789 -0.3386
  137MOL   H28344075   8.102   2.074   4.909  1.3351  0.3902 -0.8806
  137MOL   H28444076   8.064   2.260   4.770 -1.0121 -0.6569  2.9499
  137MOL   H28544077   8.139   2.481   4.674  1.8682 -2.3485 -0.9672
  137MOL   H28644078   8.399   2.535   5.003  0.9304 -1.2943  1.6571
  137MOL   H28744079   8.369   2.310   5.074  0.6493 -3.1504 -1.9067
  137MOL   H28844080   8.353   2.040   5.063  1.4984 -2.0373 -1.8667
  137MOL   H28944081   8.260   1.930   4.986  0.7111 -0.0859 -0.2441
  137MOL   C29044082   8.387   2.055   4.851  0.3267  0.6952  0.1840
  137MOL   C29144083   0.078   1.978   4.878 -0.2754  0.3198  0.0786
  137MOL   C29244084   0.197   2.044   4.893  0.8932  0.4172 -0.2082
  137MOL   C29344085   0.313   1.970   4.915  0.3737 -0.8728 -0.1775
  137MOL   C29444086   0.315   1.830   4.914 -0.1803  0.3199  0.1905
  137MOL  Cl29544087   0.463   1.745   4.941  0.2400  0.2906  0.0576
  137MOL   C29644088   0.191   1.762   4.910  0.1681 -0.4802  0.0700
  137MOL   C29744089   0.073   1.840   4.887  0.3006 -0.7086 -0.3475
  137MOL   C29844090   8.321   2.015   4.722  0.2599 -0.2089 -0.5690
  137MOL   H29944091   8.420   2.158   4.836  1.7402 -0.2798 -4.2447
  137MOL   H30044092   0.196   2.152   4.889 -1.6125  0.4104 -0.1848
  137MOL   H30144093   0.406   2.023   4.905  0.0789 -0.0981  1.0758
  137MOL   H30244094   0.193   1.654   4.917  0.2280 -0.6502 -2.0641
  137MOL   H30344095   8.428   1.779   4.877 -0.1549 -0.2229  0.6313
  137MOL   H30444096   8.306   1.908   4.733 -0.5060  0.1475  2.4678
  137MOL   H30544097   8.225   2.066   4.720 -0.4374 -1.2734  2.3170
  137MOL   C30644098   8.408   2.043   4.597 -0.3410  0.4324 -0.8127
  137MOL   C30744099   8.362   1.962   4.475  0.1306 -0.7857  0.9252
  137MOL   C30844100   8.231   1.966   4.420 -0.6471 -0.0330 -0.4343
  137MOL   C30944101   8.191   1.893   4.311  0.4356  0.6342  0.0136
  137MOL   C31044102   8.294   1.831   4.236  0.2651 -0.2583  0.5038
  137MOL  Cl31144103   8.263   1.768   4.074  0.3279 -0.0254 -0.5893
  137MOL   C31244104   8.429   1.827   4.285  0.6195 -0.5860  0.9111
  137MOL   C31344105   0.014   1.884   4.411 -0.7221 -0.4994  0.3172
  137MOL   C31444106   8.426   2.188   4.559 -0.3413  0.2886  0.0172
  137MOL   H31544107   0.061   1.998   4.622 -1.0942 -0.7942 -0.0578
  137MOL   H31644108   8.162   2.029   4.475 -0.1256 -1.0299  1.3934
  137MOL   H31744109   8.090   1.897   4.273  0.4920 -0.8827 -0.3417
  137MOL   H31844110   0.064   1.771   4.236  0.5376  0.7386 -0.7666
  137MOL   H31944111   0.116   1.874   4.442 -0.1936  1.7979 -0.5601
  137MOL   H32044112   8.328   2.234   4.544 -1.6804 -0.1560  6.1576
  137MOL   H32144113   0.032   2.243   4.639 -1.6687  0.1817  0.9170
  137MOL   H32244114   0.045   2.192   4.469  0.2521  0.1811  0.4191
  138MOL     C144115   6.765   0.758   3.239  0.2026  0.4077  0.0473
  138MOL     C244116   6.747   0.752   3.386 -0.4172 -0.6190  0.9829
  138MOL     C344117   6.744   0.629   3.453  0.1588  0.3154 -0.2123
  138MOL     C444118   6.719   0.619   3.591 -0.1093 -0.0098  0.3065
  138MOL     C544119   6.707   0.740   3.670  0.2440 -0.8673  0.3095
  138MOL    Cl644120   6.673   0.727   3.834  0.0035 -0.3068 -0.0512
  138MOL     C744121   6.704   0.866   3.605  0.1790  0.0737 -0.0090
  138MOL     C844122   6.716   0.870   3.466  0.0294  0.4188  0.1637
  138MOL     C944123   6.632   0.731   3.172 -0.3562  0.2871 -0.2386
  138MOL    H1044124   6.836   0.684   3.203 -1.7751 -1.7600  0.4956
  138MOL    H1144125   6.747   0.535   3.400 -0.5225 -0.3574  0.9257
  138MOL    H1244126   6.701   0.520   3.629 -0.2736  0.2053  0.7898
  138MOL    H1344127   6.689   0.953   3.668  1.9727 -0.8683  1.7749
  138MOL    H1444128   6.718   0.961   3.407  2.5377  1.1631  1.3488
  138MOL    H1544129   6.610   0.625   3.182 -3.3136  0.8694  0.1736
  138MOL    H1644130   6.554   0.781   3.230 -1.0553 -0.6818 -0.3174
  138MOL    H1744131   6.787   0.860   3.208 -0.7436  0.3186 -0.9322
  138MOL    C1844132   6.605   0.781   3.025  0.0890  0.6646 -1.0283
  138MOL    C1944133   6.694   0.714   2.921  0.2786  0.0860  0.0779
  138MOL    C2044134   6.786   0.788   2.839  0.1048 -0.6503  0.2054
  138MOL    C2144135   6.845   0.727   2.723  0.2602  0.4658  0.4646
  138MOL    C2244136   6.834   0.589   2.697  0.1961  0.2747 -0.4295
  138MOL   Cl2344137   6.905   0.517   2.557  0.2894 -0.1044 -0.0941
  138MOL    C2444138   6.755   0.520   2.786  0.6132 -0.0634 -0.4968
  138MOL    C2544139   6.690   0.580   2.901  0.2026 -0.0831  0.2120
  138MOL    C2644140   6.457   0.772   2.987 -0.3082  0.6505 -0.6024
  138MOL    H2744141   6.638   0.884   3.039  1.6461 -0.0375  0.6808
  138MOL    H2844142   6.783   0.895   2.846 -1.3503 -0.5668 -1.4369
  138MOL    H2944143   6.903   0.784   2.652  0.9820 -0.0160  0.6578
  138MOL    H3044144   6.741   0.415   2.761 -0.3324  0.3720 -1.8438
  138MOL    H3144145   6.615   0.531   2.962 -0.5610 -1.6761 -1.9351
  138MOL    H3244146   6.417   0.676   2.955 -2.3779  0.9053  1.1261
  138MOL    H3344147   6.396   0.802   3.072 -1.5870  0.6477 -1.5097
  138MOL    C3444148   6.421   0.884   2.878 -0.3135 -0.6293  0.3494
  138MOL    C3544149   6.477   0.871   2.735 -0.7535 -0.1955 -0.8464
  138MOL    C3644150   6.565   0.976   2.693  0.3230  0.1538 -0.1987
  138MOL    C3744151   6.634   0.970   2.570  0.2724 -0.5772  0.0428
  138MOL    C3844152   6.618   0.845   2.503 -0.4172  0.0128  0.0794
  138MOL   Cl3944153   6.711   0.823   2.362 -0.1341 -0.1865  0.1752
  138MOL    C4044154   6.537   0.740   2.549 -0.0151  0.0107  0.4742
  138MOL    C4144155   6.465   0.752   2.669  0.0129  0.3610 -0.2053
  138MOL    C4244156   6.264   0.897   2.855  0.4090  0.1099 -0.5999
  138MOL    H4344157   6.461   0.974   2.923 -0.1590 -0.4156 -0.2150
  138MOL    H4444158   6.583   1.066   2.750 -0.1701  0.6666 -0.8403
  138MOL    H4544159   6.710   1.042   2.541  0.1632 -0.4237  0.1402
  138MOL    H4644160   6.536   0.646   2.498 -2.8722 -0.5246  1.4352
  138MOL    H4744161   6.415   0.665   2.709 -0.0266  0.0897 -0.8285
  138MOL    H4844162   6.237   0.968   2.778 -0.4294 -0.2446 -0.6374
  138MOL    H4944163   6.235   0.800   2.815  3.0023 -1.5897  1.4081
  138MOL    C5044164   6.179   0.927   2.984 -0.8486  0.1069 -0.1729
  138MOL    C5144165   6.236   1.035   3.065  0.2615 -1.0338  0.1979
  138MOL    C5244166   6.239   1.159   2.996 -0.4201  0.2327  0.2505
  138MOL    C5344167   6.258   1.274   3.067 -0.1367  0.1138 -0.7160
  138MOL    C5444168   6.283   1.272   3.211 -0.6234  0.4612 -0.0747
  138MOL   Cl5544169   6.300   1.415   3.302 -0.3092  0.1649  0.2044
  138MOL    C5644170   6.294   1.148   3.274  0.6337 -0.0212  0.4863
  138MOL    C5744171   6.261   1.028   3.202  0.0953  0.3043 -0.1727
  138MOL    C5844172   6.031   0.950   2.950  0.4238 -0.0639 -1.2226
  138MOL    H5944173   6.186   0.847   3.057  1.9746  1.2062  0.8629
  138MOL    H6044174   6.229   1.155   2.889  0.5433  0.3777  0.1528
  138MOL    H6144175   6.261   1.369   3.015 -0.0280  0.7473  0.4322
  138MOL    H6244176   6.338   1.144   3.372 -0.1089  2.1042  0.9247
  138MOL    H6344177   6.274   0.928   3.241 -1.0534  0.4318  0.5786
  138MOL    H6444178   6.032   1.028   2.874  2.5978 -0.2772 -1.4435
  138MOL    H6544179   5.995   0.856   2.908  2.8688 -1.6971  0.1937
  138MOL    C6644180   5.943   1.020   3.061  0.6952  0.0610  0.2711
  138MOL    C6744181   5.818   1.083   2.986  0.2119  0.2523  0.3786
  138MOL    C6844182   5.780   1.218   3.006  0.0872  0.0173  0.0210
  138MOL    C6944183   5.672   1.281   2.933  0.0233 -0.6111 -0.1238
  138MOL    C7044184   5.605   1.210   2.837  0.2724 -0.2691 -0.1374
  138MOL   Cl7144185   5.474   1.285   2.741  0.3471 -0.0312  0.0462
  138MOL    C7244186   5.641   1.075   2.819 -0.2716 -0.1404 -0.1689
  138MOL    C7344187   5.745   1.009   2.889  0.2575 -0.2151 -0.5682
  138MOL    C7444188   5.911   0.930   3.189 -0.1172  0.0105  0.5592
  138MOL    H7544189   5.993   1.114   3.087 -0.2585  1.0732 -1.4404
  138MOL    H7644190   5.832   1.270   3.085 -0.2971  1.3853 -0.6101
  138MOL    H7744191   5.636   1.377   2.966  0.8545  0.0291 -1.0430
  138MOL    H7844192   5.587   1.024   2.740 -0.6572  0.3636 -0.2373
  138MOL    H7944193   5.783   0.912   2.862 -1.5349 -1.1525  0.1374
  138MOL    H8044194   5.992   0.869   3.230 -0.8843 -0.9898  0.6189
  138MOL    H8144195   5.883   1.001   3.267 -2.0000  0.9067 -0.8773
  138MOL    C8244196   5.805   0.820   3.173  0.4874 -0.6060  0.4835
  138MOL    C8344197   5.856   0.697   3.104  0.3827  0.1519 -0.2293
  138MOL    C8444198   5.811   0.657   2.975 -0.1060 -0.0928 -0.2253
  138MOL    C8544199   5.869   0.553   2.906  0.1018  0.0881  0.0502
  138MOL    C8644200   5.976   0.485   2.964  0.0111 -0.7659  0.2277
  138MOL   Cl8744201   6.055   0.364   2.878  0.1399 -0.0933 -0.1920
  138MOL    C8844202   6.023   0.513   3.090  0.5410  0.5113 -0.5475
  138MOL    C8944203   5.957   0.614   3.164 -0.1796 -0.5410  0.3953
  138MOL    C9044204   5.740   0.782   3.304  0.5003 -0.1982 -0.4862
  138MOL    H9144205   5.721   0.856   3.112  1.4668  1.4169  0.2730
  138MOL    H9244206   5.739   0.725   2.930 -0.5997 -1.1315 -1.0340
  138MOL    H9344207   5.842   0.520   2.807  1.2676 -1.3384  0.1868
  138MOL    H9444208   6.090   0.445   3.140 -0.3144  1.0142  1.3250
  138MOL    H9544209   5.997   0.646   3.259 -0.3333  0.4293  0.1348
  138MOL    H9644210   5.673   0.699   3.281 -1.3885  1.2540 -0.3493
  138MOL    H9744211   5.815   0.733   3.366 -0.8181 -1.7262 -0.0844
  138MOL    C9844212   5.654   0.880   3.389 -0.2828  0.1761  0.7122
  138MOL    C9944213   5.590   0.995   3.310  0.1278  0.1359  0.2186
  138MOL   C10044214   5.612   1.130   3.349 -0.0551  0.0784  0.4856
  138MOL   C10144215   5.552   1.239   3.276 -0.1784 -0.5632  0.2874
  138MOL   C10244216   5.459   1.205   3.172  0.1593  0.2649 -0.4609
  138MOL  Cl10344217   5.380   1.334   3.092  0.1764 -0.2912 -0.3057
  138MOL   C10444218   5.434   1.074   3.129  0.7266 -0.4469 -0.3286
  138MOL   C10544219   5.503   0.971   3.198 -0.0558  0.7584  0.0662
  138MOL   C10644220   5.539   0.805   3.474  0.4876 -0.4986  0.8276
  138MOL   H10744221   5.735   0.913   3.453  2.0086 -0.2774 -1.8670
  138MOL   H10844222   5.663   1.146   3.443  1.8509  0.3064 -0.5591
  138MOL   H10944223   5.560   1.342   3.311  0.9880  0.1280 -1.9437
  138MOL   H11044224   5.362   1.050   3.053  0.6821 -1.1412 -0.0717
  138MOL   H11144225   5.480   0.870   3.168  2.0858  1.5165 -4.4356
  138MOL   H11244226   5.453   0.871   3.486  0.6234 -0.2321  0.3414
  138MOL   H11344227   5.499   0.727   3.409  1.0717  1.2650 -1.6937
  138MOL   C11444228   5.593   0.746   3.600  0.0110 -0.2649  0.2460
  138MOL   C11544229   5.635   0.857   3.703  0.3657  0.3627  0.1478
  138MOL   C11644230   5.729   0.823   3.809 -0.5118  0.0544  0.0935
  138MOL   C11744231   5.775   0.917   3.898 -0.1751  0.2853  0.6726
  138MOL   C11844232   5.741   1.056   3.876 -0.0544  0.1326 -1.0297
  138MOL  Cl11944233   5.808   1.175   3.981 -0.3921  0.1053 -0.0188
  138MOL   C12044234   5.653   1.087   3.777 -0.2893  0.2389  0.5660
  138MOL   C12144235   5.594   0.990   3.693  0.1789  0.5773 -0.5811
  138MOL   C12244236   5.504   0.651   3.671 -0.0682  0.0330 -0.0500
  138MOL   H12344237   5.679   0.685   3.572 -0.8357 -1.5208  0.3720
  138MOL   H12444238   5.750   0.720   3.831 -0.4437  0.4091  1.7359
  138MOL   H12544239   5.855   0.891   3.965 -0.7304  1.5282  1.8463
  138MOL   H12644240   5.621   1.189   3.764  0.0631 -0.0805 -3.4748
  138MOL   H12744241   5.508   1.020   3.635  0.2033  2.8063  0.4914
  138MOL   H12844242   5.543   0.626   3.770  0.6926 -0.2914 -0.4223
  138MOL   H12944243   5.412   0.699   3.701  1.2163  1.2430  2.0506
  138MOL   C13044244   5.465   0.521   3.595 -0.2746  0.1461 -0.6135
  138MOL   C13144245   5.589   0.458   3.520 -0.3162 -0.1550  0.0146
  138MOL   C13244246   5.595   0.462   3.380 -0.8800 -0.4497 -0.3261
  138MOL   C13344247   5.699   0.393   3.311 -0.0623  0.2944  0.5495
  138MOL   C13444248   5.789   0.309   3.392  0.6546  0.0196 -0.1961
  138MOL  Cl13544249   5.901   0.223   3.304 -0.0479 -0.2391  0.0795
  138MOL   C13644250   5.784   0.309   3.533 -0.0807  0.2573  0.4215
  138MOL   C13744251   5.677   0.375   3.591  0.9901  0.4453 -0.0559
  138MOL   C13844252   5.389   0.429   3.688  0.3459  0.0651  0.4449
  138MOL   H13944253   5.403   0.569   3.520  0.5493  2.3934  0.0920
  138MOL   H14044254   5.513   0.513   3.332 -0.6876 -0.6370 -0.8520
  138MOL   H14144255   5.712   0.399   3.204  1.2757  1.0470  0.7533
  138MOL   H14244256   5.851   0.241   3.582  0.1604 -1.0574 -1.6775
  138MOL   H14344257   5.668   0.358   3.697 -2.5153 -0.4268 -0.4401
  138MOL   H14444258   5.457   0.402   3.768 -0.7281 -1.0331  1.0118
  138MOL   H14544259   5.304   0.482   3.730  0.2893 -0.4865  1.0398
  138MOL   C14644260   5.335   0.294   3.629 -0.1869  0.6791  0.1883
  138MOL   C14744261   5.273   0.215   3.746  0.2233 -0.0598  0.0194
  138MOL   C14844262   5.189   0.286   3.834 -0.0054 -0.5247  0.2343
  138MOL   C14944263   5.136   0.221   3.948  0.2481  0.4271  0.0183
  138MOL   C15044264   5.167   0.088   3.978 -0.5151  0.7877  0.0699
  138MOL  Cl15144265   5.125   0.011   4.130 -0.0941  0.4356  0.0759
  138MOL   C15244266   5.243   0.018   3.879 -0.0668 -0.7439  0.1513
  138MOL   C15344267   5.291   0.077   3.761  0.1139  0.0191  0.2906
  138MOL   C15444268   5.230   0.309   3.521 -0.0953  0.2472  0.3972
  138MOL   H15544269   5.423   0.242   3.591 -0.9731 -0.4803 -0.0908
  138MOL   H15644270   5.154   0.388   3.828  2.8999  0.6971  2.3845
  138MOL   H15744271   5.077   0.282   4.016 -1.7153 -1.9531  0.5056
  138MOL   H15844272   5.272   8.358   3.894  1.1935 -0.3983  0.1420
  138MOL   H15944273   5.347   0.016   3.691 -0.3580  2.0903 -1.9748
  138MOL   H16044274   5.134   0.328   3.567 -0.0293  0.1078  0.5924
  138MOL   H16144275   5.260   0.398   3.466  3.2025 -1.5411 -0.8572
  138MOL   C16244276   5.227   0.196   3.420 -0.4971 -0.3434 -0.6775
  138MOL   C16344277   5.094   0.197   3.339 -0.1639 -0.5182 -0.3183
  138MOL   C16444278   5.058   0.308   3.254 -0.7293  0.5740  0.4132
  138MOL   C16544279   4.936   0.309   3.185  0.0049 -0.1274  0.0259
  138MOL   C16644280   4.845   0.202   3.201  0.3464  0.1441  0.0445
  138MOL  Cl16744281   4.693   0.202   3.121  0.0511  0.1067 -0.1218
  138MOL   C16844282   4.886   0.092   3.276  0.5115 -0.0992 -0.2446
  138MOL   C16944283   5.011   0.085   3.341  0.5004  0.0070  0.5329
  138MOL   C17044284   5.347   0.191   3.321 -0.1069  0.6246 -0.2581
  138MOL   H17144285   5.238   0.103   3.474  0.5273 -0.7045 -1.4917
  138MOL   H17244286   5.130   0.389   3.249  1.5176 -1.4709 -2.1869
  138MOL   H17344287   4.903   0.389   3.120 -1.9093 -0.9191 -0.0006
  138MOL   H17444288   4.820   0.007   3.288  1.9845 -1.4057 -1.1819
  138MOL   H17544289   5.043   8.438   3.391  1.9958 -0.4204 -1.1137
  138MOL   H17644290   5.345   0.282   3.262 -1.5284 -0.4287 -1.8836
  138MOL   H17744291   5.440   0.195   3.378  0.3305 -1.2778 -0.8092
  138MOL   C17844292   5.364   0.079   3.215 -0.2532  0.6636  0.3043
  138MOL   C17944293   5.453   0.129   3.100  0.7858 -0.2613 -0.4678
  138MOL   C18044294   5.401   0.173   2.975  0.4974 -0.3447  0.3720
  138MOL   C18144295   5.497   0.209   2.870  0.0123 -0.2327  0.1702
  138MOL   C18244296   5.634   0.210   2.894 -0.1184  0.2079  0.2263
  138MOL  Cl18344297   5.739   0.230   2.766  0.4997  0.0807  0.0069
  138MOL   C18444298   5.680   0.179   3.021  0.3800  0.3702 -0.2754
  138MOL   C18544299   5.592   0.136   3.118  0.4257 -0.6052 -0.6256
  138MOL   C18644300   5.413   8.382   3.273  0.4594  0.4901  0.1620
  138MOL   H18744301   5.265   0.061   3.172 -0.6810 -0.7996  1.8762
  138MOL   H18844302   5.295   0.170   2.960  0.3266 -0.2749  1.5373
  138MOL   H18944303   5.452   0.239   2.776  1.5172 -0.7992 -0.7484
  138MOL   H19044304   5.786   0.184   3.039  0.1125  0.6443  1.3010
  138MOL   H19144305   5.639   0.092   3.205  1.5499  1.0391 -0.3606
  138MOL   H19244306   5.522   8.379   3.280  0.6455  0.7152 -2.2638
  138MOL   H19344307   5.360   8.377   3.369  0.0679  0.3381 -0.0600
  138MOL   C19444308   5.357   8.254   3.198  0.1597  0.1239 -0.5508
  138MOL   C19544309   5.400   8.236   3.057  0.1968  0.1278 -0.5901
  138MOL   C19644310   5.526   8.264   3.013 -0.4352 -0.2788 -0.2555
  138MOL   C19744311   5.561   8.256   2.877  0.2045  0.2463 -0.1460
  138MOL   C19844312   5.464   8.223   2.778 -0.3526 -0.1264  0.6673
  138MOL  Cl19944313   5.505   8.235   2.609  0.0051 -0.2071 -0.3412
  138MOL   C20044314   5.333   8.204   2.824 -0.3500 -0.3558  0.7480
  138MOL   C20144315   5.301   8.207   2.962  0.7803  0.1271  0.2012
  138MOL   C20244316   5.387   8.120   3.274  0.2229  0.5007  0.7370
  138MOL   H20344317   5.248   8.262   3.201  0.1082  1.0009 -3.4530
  138MOL   H20444318   5.607   8.297   3.075 -1.8052 -0.5959  1.7442
  138MOL   H20544319   5.661   8.270   2.840  0.3779 -0.8912 -0.1086
  138MOL   H20644320   5.258   8.185   2.749 -0.6604 -0.8022  1.1680
  138MOL   H20744321   5.197   8.188   2.987  0.3321  0.4793 -1.3037
  138MOL   H20844322   5.356   8.032   3.218  0.0121  0.0500  1.5489
  138MOL   H20944323   5.496   8.117   3.279  0.1613 -3.2907  1.0335
  138MOL   C21044324   5.327   8.098   3.415  0.2412 -0.4721 -0.5154
  138MOL   C21144325   5.179   8.092   3.412  0.2936 -0.2404  0.8231
  138MOL   C21244326   5.116   7.996   3.337 -0.3728  0.8318 -0.5629
  138MOL   C21344327   4.975   8.008   3.323 -0.2503  0.2217 -0.3014
  138MOL   C21444328   4.905   8.119   3.370 -0.2291  0.8799  0.0439
  138MOL  Cl21544329   4.742   8.148   3.309  0.2911 -0.4351  0.2823
  138MOL   C21644330   4.967   8.198   3.471 -0.1839 -0.5128 -0.1592
  138MOL   C21744331   5.109   8.192   3.479  0.2853 -1.0955  0.3600
  138MOL   C21844332   5.390   7.988   3.501  0.2346  0.8864  0.4503
  138MOL   H21944333   5.348   8.191   3.469 -1.0701  0.1908 -1.1203
  138MOL   H22044334   5.161   7.909   3.291 -0.8755  0.8364 -1.0695
  138MOL   H22144335   4.922   7.931   3.268 -0.6500  0.6750 -0.5523
  138MOL   H22244336   4.915   8.279   3.521 -0.6655 -0.2188 -1.1303
  138MOL   H22344337   5.156   8.261   3.548 -1.2661  1.0657 -0.6802
  138MOL   H22444338   5.332   7.970   3.592 -1.4522 -0.1678 -0.8093
  138MOL   H22544339   5.382   7.893   3.448 -0.0902 -0.2970  2.5699
  138MOL   C22644340   5.536   8.006   3.539 -0.5141  0.2331  0.2955
  138MOL   C22744341   5.568   8.146   3.606  0.6379  0.0419  0.3701
  138MOL   C22844342   5.646   8.244   3.545 -1.0852  1.1941  0.3675
  138MOL   C22944343   5.669   8.375   3.599 -0.4825 -0.9581  0.0307
  138MOL   C23044344   5.624   8.400   3.729  0.2945 -0.1783  0.1253
  138MOL  Cl23144345   5.671   0.095   3.820  0.1438  0.1762  0.2193
  138MOL   C23244346   5.540   8.306   3.791 -0.0115  0.2424  0.0009
  138MOL   C23344347   5.512   8.181   3.730  0.3565  0.3535 -0.2036
  138MOL   C23444348   5.600   7.884   3.616 -0.0582 -0.3417 -0.0890
  138MOL   H23544349   5.592   8.014   3.446  3.3951  2.2924  2.6949
  138MOL   H23644350   5.689   8.214   3.450 -0.5192  0.7230  0.7677
  138MOL   H23744351   5.735   0.005   3.556 -0.7038 -0.2697  0.8372
  138MOL   H23844352   5.509   8.324   3.893 -2.3086 -0.3346 -0.5769
  138MOL   H23944353   5.452   8.111   3.786  0.6845  0.1677 -0.0819
  138MOL   H24044354   5.545   7.881   3.711  0.0749  0.4314  0.0202
  138MOL   H24144355   5.573   7.788   3.574 -0.8168 -0.7077  1.1847
  138MOL   C24244356   5.749   7.875   3.647  0.0883 -0.8437 -0.5732
  138MOL   C24344357   5.782   7.745   3.728  0.0281 -0.1324  0.4947
  138MOL   C24444358   5.743   7.616   3.689  0.7882  0.9838  0.0194
  138MOL   C24544359   5.754   7.509   3.779  0.6293 -0.4025  0.2801
  138MOL   C24644360   5.814   7.532   3.901 -0.2248 -0.4250 -0.0703
  138MOL  Cl24744361   5.812   7.407   4.008 -0.2819 -0.1375 -0.1410
  138MOL   C24844362   5.853   7.660   3.942 -0.3210  0.5147 -0.0635
  138MOL   C24944363   5.830   7.767   3.862  0.3730  0.2160 -0.1036
  138MOL   C25044364   5.843   7.910   3.527 -0.4285 -1.2045 -0.5457
  138MOL   H25144365   5.765   7.953   3.722  1.0036 -0.6591 -0.9536
  138MOL   H25244366   5.696   7.596   3.594 -4.0337 -0.0140  2.4606
  138MOL   H25344367   5.711   7.414   3.752 -1.2086  0.3331  0.5571
  138MOL   H25444368   5.880   7.674   4.046 -3.1655 -2.1998  1.0935
  138MOL   H25544369   5.855   7.866   3.898  0.7342  0.1097 -0.0611
  138MOL   H25644370   5.825   8.007   3.480 -0.8280 -0.7680  0.4867
  138MOL   H25744371   5.932   7.937   3.583 -1.1864 -0.8165  0.5005
  138MOL   C25844372   5.880   7.804   3.424  1.4611 -0.4257  0.7736
  138MOL   C25944373   5.775   7.801   3.314 -0.2431 -0.0094 -0.8485
  138MOL   C26044374   5.684   7.699   3.307  0.5353 -1.0205  0.3285
  138MOL   C26144375   5.590   7.699   3.202 -0.5378  0.1274 -0.1952
  138MOL   C26244376   5.588   7.811   3.107 -0.0801 -0.4584 -0.2556
  138MOL  Cl26344377   5.468   7.807   2.982 -0.2096  0.2487 -0.1063
  138MOL   C26444378   5.681   7.915   3.121  0.1463  0.1873 -0.0567
  138MOL   C26544379   5.770   7.912   3.228 -0.2480 -0.6127  0.3195
  138MOL   C26644380   6.017   7.813   3.353 -0.1902  0.3302  0.3206
  138MOL   H26744381   5.884   7.704   3.467  1.8708  0.5978  3.1741
  138MOL   H26844382   5.681   7.609   3.366  2.9962 -0.6702  1.0641
  138MOL   H26944383   5.527   7.615   3.179  0.3047 -0.0328 -1.9850
  138MOL   H27044384   5.682   7.996   3.050  1.8867 -1.8888 -2.4907
  138MOL   H27144385   5.845   7.987   3.244 -0.7720  0.3059 -1.5238
  138MOL   H27244386   6.018   7.735   3.276  0.2697 -0.2568  0.9173
  138MOL   H27344387   6.039   7.905   3.299  1.3052 -1.5620 -2.4590
  138MOL   C27444388   6.136   7.788   3.445 -0.5315  0.2818 -0.6315
  138MOL   C27544389   6.136   7.656   3.525 -0.1189  0.5397  0.8838
  138MOL   C27644390   6.134   7.655   3.663  0.2031  0.1317 -0.1544
  138MOL   C27744391   6.113   7.543   3.739  0.1320  0.1129 -0.2686
  138MOL   C27844392   6.120   7.415   3.671 -0.1800  0.2293 -0.7734
  138MOL  Cl27944393   6.103   7.265   3.755  0.8903  0.2472  0.3881
  138MOL   C28044394   6.118   7.416   3.531  0.7973  0.3720 -0.6418
  138MOL   C28144395   6.125   7.535   3.457 -0.3110  1.0020 -0.1862
  138MOL   C28244396   6.279   7.831   3.397  1.0310 -0.7395  0.4600
  138MOL   H28344397   6.113   7.863   3.520 -0.4442 -0.3581  0.0352
  138MOL   H28444398   6.143   7.746   3.721 -1.8235  0.8067 -0.8586
  138MOL   H28544399   6.106   7.563   3.845 -0.3185 -1.4654  0.0101
  138MOL   H28644400   6.092   7.326   3.478  1.5437 -1.0887  1.4172
  138MOL   H28744401   6.123   7.530   3.349 -0.8349  1.3599 -0.1936
  138MOL   H28844402   6.346   7.811   3.480  1.2853 -2.0051 -0.0300
  138MOL   H28944403   6.323   7.762   3.324 -0.0282  0.6871 -1.6025
  138MOL   C29044404   6.295   7.975   3.346  0.0825 -0.4250 -0.0751
  138MOL   C29144405   6.218   8.083   3.418  0.4036 -0.0954  0.1865
  138MOL   C29244406   6.238   8.096   3.560  0.3756  1.2990 -0.0483
  138MOL   C29344407   6.178   8.209   3.620 -0.2425 -0.3204 -0.2397
  138MOL   C29444408   6.094   8.295   3.551 -0.6479  0.1836  0.4337
  138MOL  Cl29544409   6.025   8.430   3.633 -0.0031 -0.3559 -0.0948
  138MOL   C29644410   6.069   8.273   3.413  0.7450  0.0005 -0.0877
  138MOL   C29744411   6.128   8.165   3.345  0.4196 -0.3224 -0.4534
  138MOL   C29844412   6.445   8.000   3.341  0.1055  0.4210 -0.8219
  138MOL   H29944413   6.265   7.957   3.243  2.3314 -0.8607 -0.6793
  138MOL   H30044414   6.292   8.018   3.611  2.5510  1.7187 -1.6637
  138MOL   H30144415   6.199   8.242   3.721  0.2589  2.5936 -1.2404
  138MOL   H30244416   6.008   8.337   3.352 -0.4912 -0.7082  0.3971
  138MOL   H30344417   6.116   8.157   3.239  1.4589 -0.9772 -0.5307
  138MOL   H30444418   6.465   8.082   3.411  0.8253 -0.4082 -0.0428
  138MOL   H30544419   6.508   7.918   3.377  1.5000  1.6805 -0.2983
  138MOL   C30644420   6.489   8.030   3.195 -0.2176  0.1450  0.0548
  138MOL   C30744421   6.429   8.160   3.146 -0.3316  0.0665  0.5303
  138MOL   C30844422   6.383   8.165   3.012  0.7650  0.1701 -0.1856
  138MOL   C30944423   6.315   8.277   2.970  0.6541  0.3569  0.2729
  138MOL   C31044424   6.307   8.396   3.050 -0.2283  0.1709 -0.2027
  138MOL  Cl31144425   6.217   0.088   3.000 -0.0615 -0.2923 -0.0017
  138MOL   C31244426   6.373   8.395   3.172  0.2702  0.8589  0.0800
  138MOL   C31344427   6.440   8.276   3.222 -0.2839 -0.7590 -0.7170
  138MOL   C31444428   6.642   8.039   3.185 -0.2240  0.3363  0.5783
  138MOL   H31544429   6.462   7.946   3.132  0.2624  0.1124 -0.1069
  138MOL   H31644430   6.379   8.071   2.958  2.5403  1.2193 -2.1792
  138MOL   H31744431   6.269   8.270   2.872  1.6104 -3.6730  0.0109
  138MOL   H31844432   6.367   0.043   3.231 -0.8349 -0.1835  1.6281
  138MOL   H31944433   6.493   8.285   3.315  2.6517  1.5973 -2.5306
  138MOL   H32044434   6.667   8.078   3.087  0.5895 -0.2978  0.5241
  138MOL   H32144435   6.685   8.109   3.257  3.1641 -2.8286  1.7888
  138MOL   H32244436   6.689   7.941   3.201 -0.8322 -0.3449 -1.6496
  139MOL     C144437   4.135   3.079   3.894 -0.0966  0.1747  0.4411
  139MOL     C244438   4.244   3.012   3.812  0.3358 -0.2256  0.3620
  139MOL     C344439   4.306   3.084   3.710  0.5969  0.2362 -0.3885
  139MOL     C444440   4.423   3.039   3.648 -0.2041 -0.4471  0.1108
  139MOL     C544441   4.472   2.914   3.688 -0.2609 -0.1653 -0.5127
  139MOL    Cl644442   4.616   2.849   3.622  0.2231  0.2162  0.1666
  139MOL     C744443   4.404   2.834   3.788  0.3186 -0.3945 -0.3049
  139MOL     C844444   4.287   2.885   3.847 -0.7024 -0.1918 -0.7458
  139MOL     C944445   3.998   3.016   3.860  0.2079  0.0206 -0.4663
  139MOL    H1044446   4.149   3.180   3.854  2.0461  0.1151  1.0005
  139MOL    H1144447   4.275   3.180   3.671 -3.0916 -0.7605 -0.0969
  139MOL    H1244448   4.462   3.094   3.563  0.6565 -2.2706 -0.6844
  139MOL    H1344449   4.441   2.741   3.830 -1.9081 -0.6262  1.2166
  139MOL    H1444450   4.238   2.835   3.929 -0.7179  1.1167  0.0579
  139MOL    H1544451   4.003   3.001   3.752  0.0553  2.7922 -0.8973
  139MOL    H1644452   4.000   2.920   3.911  0.8368  0.3184  0.0799
  139MOL    H1744453   4.163   3.072   3.999  2.9694  1.3342 -0.2461
  139MOL    C1844454   3.868   3.095   3.906 -0.0964 -0.0999  0.7465
  139MOL    C1944455   3.876   3.248   3.870  0.3624  0.3235  0.3767
  139MOL    C2044456   3.892   3.286   3.734 -0.2928 -0.3599 -0.6686
  139MOL    C2144457   3.871   3.424   3.693 -0.9157 -0.3486 -0.3896
  139MOL    C2244458   3.838   3.521   3.795  0.0855 -0.0472 -0.3161
  139MOL   Cl2344459   3.789   3.684   3.756 -0.1787 -0.3637  0.0758
  139MOL    C2444460   3.841   3.481   3.931 -0.1072 -0.1851  0.4848
  139MOL    C2544461   3.855   3.345   3.969  0.1927 -0.4304  0.2510
  139MOL    C2644462   3.732   3.037   3.859  0.1409 -0.6914  0.7159
  139MOL    H2744463   3.855   3.085   4.013  1.0488  0.8476  0.9798
  139MOL    H2844464   3.907   3.208   3.661 -0.7799 -1.0406 -0.0452
  139MOL    H2944465   3.874   3.445   3.587 -0.0843 -1.1764 -0.5390
  139MOL    H3044466   3.837   3.559   4.005  0.2339 -0.8828  1.2466
  139MOL    H3144467   3.839   3.314   4.071 -1.9456  1.1566  0.4465
  139MOL    H3244468   3.660   3.106   3.902  1.1827  1.5124 -0.9491
  139MOL    H3344469   3.719   3.048   3.751 -1.1404  1.5403  1.0762
  139MOL    C3444470   3.689   2.893   3.909  0.2349 -0.1981  0.2058
  139MOL    C3544471   3.721   2.878   4.063 -0.1080  0.3765  0.1761
  139MOL    C3644472   3.822   2.778   4.099  0.1089  0.5488 -0.3272
  139MOL    C3744473   3.852   2.761   4.234 -0.2122  0.3552  0.1924
  139MOL    C3844474   3.787   2.833   4.335  0.1143 -0.0737 -0.1953
  139MOL   Cl3944475   3.814   2.789   4.501  0.0680  0.0745  0.0789
  139MOL    C4044476   3.691   2.924   4.300  0.3071  0.0669  0.3443
  139MOL    C4144477   3.647   2.946   4.166  0.1258  0.1488 -0.0321
  139MOL    C4244478   3.537   2.861   3.894  0.4304  0.3459  0.3040
  139MOL    H4344479   3.748   2.816   3.858  1.0157  0.1559  0.5634
  139MOL    H4444480   3.894   2.738   4.029  1.1728  1.8088  0.0078
  139MOL    H4544481   3.922   2.684   4.266 -1.0754 -0.4163  0.2326
  139MOL    H4644482   3.652   2.977   4.386  1.3346  1.1876  0.1393
  139MOL    H4744483   3.572   3.017   4.136 -1.0739 -1.1848 -0.2657
  139MOL    H4844484   3.522   2.771   3.953  0.5274 -0.4935 -0.9355
  139MOL    H4944485   3.482   2.936   3.950  2.0590  1.1671  0.8372
  139MOL    C5044486   3.487   2.828   3.747 -0.0137  0.0649  0.7911
  139MOL    C5144487   3.579   2.722   3.683 -0.0020  0.4257 -0.4226
  139MOL    C5244488   3.672   2.763   3.584  0.3745 -0.3869  0.4417
  139MOL    C5344489   3.764   2.671   3.527  0.5337 -0.1006 -0.2373
  139MOL    C5444490   3.758   2.537   3.572  0.5409  0.0133 -0.3801
  139MOL   Cl5544491   3.881   2.431   3.525 -0.0078 -0.3708 -0.2168
  139MOL    C5644492   3.674   2.502   3.680 -0.1388  0.2024  0.8663
  139MOL    C5744493   3.581   2.591   3.733 -0.5794 -0.0465  0.1056
  139MOL    C5844494   3.342   2.773   3.749  0.3286  0.0125  0.0223
  139MOL    H5944495   3.497   2.914   3.681 -0.8191 -1.0852 -0.8718
  139MOL    H6044496   3.663   2.864   3.548  1.6860 -1.1409 -2.1558
  139MOL    H6144497   3.843   2.691   3.456  1.1779  0.9221  0.7574
  139MOL    H6244498   3.687   2.407   3.731 -1.2470  0.4262  1.5920
  139MOL    H6344499   3.509   2.561   3.807  1.0832  0.6610  2.0615
  139MOL    H6444500   3.319   2.721   3.656 -1.5030 -0.6681  0.8416
  139MOL    H6544501   3.348   2.699   3.829  2.1163  2.0992  1.9067
  139MOL    C6644502   3.239   2.883   3.783 -0.3789  0.0980 -0.4809
  139MOL    C6744503   3.219   2.972   3.655  0.6090 -0.4588 -0.1689
  139MOL    C6844504   3.156   2.920   3.543 -0.1430 -0.4136 -0.4766
  139MOL    C6944505   3.146   2.996   3.420 -0.0071  0.4091 -0.1741
  139MOL    C7044506   3.200   3.125   3.412  0.0095  0.9697 -0.9013
  139MOL   Cl7144507   3.185   3.208   3.260  0.3832  0.4853  0.3759
  139MOL    C7244508   3.269   3.177   3.528 -0.1243  0.0980 -0.5667
  139MOL    C7344509   3.278   3.102   3.646  0.1320 -0.0522  0.0285
  139MOL    C7444510   3.111   2.815   3.841 -0.3690 -0.5031  0.8962
  139MOL    H7544511   3.277   2.935   3.871 -2.4582 -0.0461  0.5435
  139MOL    H7644512   3.117   2.819   3.539 -0.5745 -0.3888  2.0237
  139MOL    H7744513   3.116   2.940   3.333  4.5560  0.6949 -2.0959
  139MOL    H7844514   3.313   3.275   3.523 -0.1244  0.1275 -0.0163
  139MOL    H7944515   3.321   3.157   3.729  1.1649  3.3335 -2.6276
  139MOL    H8044516   3.025   2.881   3.828  0.0132  0.4812  3.2041
  139MOL    H8144517   3.084   2.733   3.775 -2.3254  1.1810 -0.4660
  139MOL    C8244518   3.122   2.749   3.980  0.4628 -0.0668 -0.3794
  139MOL    C8344519   3.175   2.845   4.085 -0.1873  0.4860 -0.6109
  139MOL    C8444520   3.140   2.983   4.088  0.4825 -0.5197 -0.5595
  139MOL    C8544521   3.201   3.064   4.191  0.0891 -1.0188  0.2230
  139MOL    C8644522   3.294   3.016   4.279  0.5638 -0.2672  0.6163
  139MOL   Cl8744523   3.358   3.119   4.396  0.4388 -0.7301 -0.0191
  139MOL    C8844524   3.340   2.881   4.261 -0.5071 -0.1568  0.3197
  139MOL    C8944525   3.269   2.793   4.177  0.3322  0.4431  0.2354
  139MOL    C9044526   3.002   2.678   4.040 -0.5490  0.5408  0.0276
  139MOL    H9144527   3.186   2.662   3.964 -0.6719 -0.8246 -0.8662
  139MOL    H9244528   3.077   3.029   4.013 -1.5520 -0.0016  1.4189
  139MOL    H9344529   3.181   3.170   4.203  0.5024 -1.2065  2.9905
  139MOL    H9444530   3.422   2.840   4.318 -0.0373 -1.5470 -1.3260
  139MOL    H9544531   3.309   2.692   4.175  1.2760  0.8386 -2.0870
  139MOL    H9644532   3.029   2.648   4.141 -2.6568 -0.6875  0.2503
  139MOL    H9744533   2.914   2.742   4.048 -1.0685 -0.0863 -0.6097
  139MOL    C9844534   2.958   2.556   3.966 -0.4751  0.5199 -0.3869
  139MOL    C9944535   3.073   2.463   3.927 -0.2927  0.7642  0.1781
  139MOL   C10044536   3.107   2.430   3.796 -0.5995 -0.4041  0.3896
  139MOL   C10144537   3.219   2.350   3.763  0.4968 -0.0347 -0.1936
  139MOL   C10244538   3.300   2.297   3.867  0.1469 -0.3113 -0.2885
  139MOL  Cl10344539   3.445   2.203   3.834  0.2502  0.3031 -0.2496
  139MOL   C10444540   3.265   2.327   3.997  0.0116  0.4309  0.5002
  139MOL   C10544541   3.152   2.403   4.025  0.0661 -0.2359  0.1612
  139MOL   C10644542   2.840   2.480   4.043  0.4091 -0.2859  0.0553
  139MOL   H10744543   2.914   2.586   3.870  0.9602 -0.0636 -1.2486
  139MOL   H10844544   3.036   2.459   3.720  0.1940 -1.6202 -0.8566
  139MOL   H10944545   3.234   2.310   3.664 -1.8218 -0.6323 -0.3243
  139MOL   H11044546   3.321   2.293   4.083  0.6596  1.1155  0.3509
  139MOL   H11144547   3.120   2.421   4.127  0.5569  2.2524 -0.0987
  139MOL   H11244548   2.880   2.409   4.115 -0.8239 -3.0189 -1.8550
  139MOL   H11344549   2.787   2.552   4.105  1.2238  1.1040 -0.8245
  139MOL   C11444550   2.745   2.398   3.952  0.2493  0.5587 -0.4989
  139MOL   C11544551   2.659   2.302   4.029  0.2401 -0.4862 -0.1730
  139MOL   C11644552   2.562   2.350   4.117 -0.1398 -0.5351 -0.4243
  139MOL   C11744553   2.474   2.255   4.176 -0.2970  0.1546  0.3264
  139MOL   C11844554   2.468   2.125   4.124  0.3829  0.2682  0.3494
  139MOL  Cl11944555   2.340   2.023   4.178 -0.2675 -0.2483  0.4062
  139MOL   C12044556   2.558   2.076   4.036  0.3869 -0.6413 -0.3382
  139MOL   C12144557   2.665   2.164   3.990  0.2787 -0.1189 -0.2796
  139MOL   C12244558   2.652   2.498   3.876 -0.7542 -0.1253 -0.4829
  139MOL   H12344559   2.805   2.336   3.885  2.0286  0.4583  1.1517
  139MOL   H12444560   2.554   2.453   4.148 -0.1544 -0.4841 -0.5995
  139MOL   H12544561   2.415   2.290   4.260  0.9107 -1.0231  1.6963
  139MOL   H12644562   2.544   1.978   3.994 -0.1271  0.7242 -3.4820
  139MOL   H12744563   2.733   2.123   3.918 -0.4867 -1.1835 -0.4099
  139MOL   H12844564   2.591   2.553   3.946 -0.2294  1.2623 -1.1064
  139MOL   H12944565   2.708   2.579   3.830 -1.1214  0.6647  0.4586
  139MOL   C13044566   2.563   2.418   3.776 -0.3941  0.1044  0.1692
  139MOL   C13144567   2.441   2.488   3.734  0.1667 -0.1486  0.7030
  139MOL   C13244568   2.441   2.611   3.663  0.1673  0.2012 -0.5261
  139MOL   C13344569   2.313   2.664   3.616  0.2335  0.7400 -0.1244
  139MOL   C13444570   2.193   2.600   3.663 -0.7460  0.3509  0.2101
  139MOL  Cl13544571   2.035   2.666   3.642 -0.2641  0.4046  0.1816
  139MOL   C13644572   2.199   2.473   3.730 -0.1230  0.1095  0.1029
  139MOL   C13744573   2.323   2.420   3.765 -0.0258  0.3191 -0.0715
  139MOL   C13844574   2.646   2.385   3.641 -0.0082 -0.0844 -0.6350
  139MOL   H13944575   2.536   2.319   3.813 -1.4433 -0.4955 -2.0708
  139MOL   H14044576   2.534   2.662   3.639  1.1907 -0.9437  0.9514
  139MOL   H14144577   2.315   2.755   3.559 -0.4456  1.7000  1.3626
  139MOL   H14244578   2.108   2.420   3.755  0.0843 -0.2080  0.1887
  139MOL   H14344579   2.325   2.325   3.816 -0.9120  0.6338  0.5583
  139MOL   H14444580   2.680   2.478   3.595  0.6819 -0.5965 -1.1948
  139MOL   H14544581   2.739   2.335   3.667 -0.7830 -0.4381  1.5093
  139MOL   C14644582   2.567   2.303   3.535 -0.6706  0.0842  0.9857
  139MOL   C14744583   2.606   2.340   3.388 -0.7580 -0.4838  0.9013
  139MOL   C14844584   2.552   2.457   3.328 -0.2638  0.1992 -0.5493
  139MOL   C14944585   2.601   2.497   3.201  0.0595 -0.7312 -0.1387
  139MOL   C15044586   2.699   2.422   3.135 -0.3446 -0.8311 -0.0006
  139MOL  Cl15144587   2.758   2.464   2.985 -0.0196  0.3157  0.1195
  139MOL   C15244588   2.736   2.299   3.187  0.4358  0.0992 -0.3824
  139MOL   C15344589   2.694   2.260   3.314 -0.0964  0.1121  0.4628
  139MOL   C15444590   2.594   2.162   3.568 -0.4968  0.2861  1.2190
  139MOL   H15544591   2.460   2.318   3.546 -1.1461 -0.9787 -1.7691
  139MOL   H15644592   2.493   2.531   3.380 -1.8298 -0.4885 -1.3359
  139MOL   H15744593   2.567   2.596   3.172 -1.5187 -1.5453 -1.1571
  139MOL   H15844594   2.817   2.245   3.140  2.1891  0.4715  2.1351
  139MOL   H15944595   2.736   2.166   3.346 -2.9654 -1.2464  0.3783
  139MOL   H16044596   2.699   2.134   3.563 -0.8416 -0.7136 -0.9584
  139MOL   H16144597   2.563   2.143   3.671 -1.5930  0.2461  0.8807
  139MOL   C16244598   2.521   2.050   3.493  0.4044  0.1827  0.6840
  139MOL   C16344599   2.578   1.917   3.539 -0.4641  0.1870 -0.3340
  139MOL   C16444600   2.547   1.871   3.668  0.3062  0.3758 -0.1756
  139MOL   C16544601   2.615   1.752   3.704  0.8586 -0.2032  0.7024
  139MOL   C16644602   2.679   1.675   3.607 -0.1498 -0.4214 -0.1391
  139MOL  Cl16744603   2.752   1.529   3.654  0.2349  0.3560  0.0515
  139MOL   C16844604   2.711   1.722   3.482  0.1558  0.2876  0.0930
  139MOL   C16944605   2.651   1.845   3.444 -0.2569  0.8095 -0.3552
  139MOL   C17044606   2.364   2.057   3.512 -0.1711 -0.6566 -0.2021
  139MOL   H17144607   2.545   2.064   3.388 -4.1894  1.4635 -0.3270
  139MOL   H17244608   2.490   1.914   3.749  1.7802  0.0463  1.0690
  139MOL   H17344609   2.595   1.721   3.806  0.4375  2.0043  1.3289
  139MOL   H17444610   2.766   1.666   3.408 -0.1915 -0.1014  0.1300
  139MOL   H17544611   2.661   1.875   3.341 -0.2035  2.0230 -0.0013
  139MOL   H17644612   2.320   1.958   3.499 -1.0134 -0.6144  2.0993
  139MOL   H17744613   2.356   2.082   3.618  1.1600 -0.3996 -0.1557
  139MOL   C17844614   2.284   2.146   3.411 -0.5648 -0.1026  0.0979
  139MOL   C17944615   2.293   2.089   3.270 -0.2187 -0.3604 -0.2012
  139MOL   C18044616   2.218   1.977   3.235  0.2140 -0.4635  1.0611
  139MOL   C18144617   2.217   1.936   3.103  0.4353  0.2676  0.1057
  139MOL   C18244618   2.304   1.991   3.006 -0.3617  0.4023 -0.7595
  139MOL  Cl18344619   2.315   1.930   2.850 -0.1239 -0.4576  0.2763
  139MOL   C18444620   2.383   2.101   3.044  0.2774 -0.4745  0.2748
  139MOL   C18544621   2.380   2.149   3.176 -0.1252 -1.1912  0.4052
  139MOL   C18644622   2.142   2.186   3.451  0.2257  0.3840 -0.4260
  139MOL   H18744623   2.327   2.245   3.401 -0.3941 -0.3141 -1.4674
  139MOL   H18844624   2.149   1.931   3.305 -1.3118 -1.6513 -1.1611
  139MOL   H18944625   2.165   1.847   3.072  1.7936 -0.1371 -1.0396
  139MOL   H19044626   2.447   2.137   2.965  0.8336 -0.4388  0.7399
  139MOL   H19144627   2.433   2.238   3.205 -3.8714  1.0852  0.6486
  139MOL   H19244628   2.093   2.094   3.483 -0.3342  1.2913  1.3906
  139MOL   H19344629   2.155   2.241   3.544 -2.3874 -1.2148  0.9327
  139MOL   C19444630   2.055   2.259   3.352 -0.7232 -0.1182  0.0181
  139MOL   C19544631   1.908   2.275   3.400  0.0157  0.5106  0.0260
  139MOL   C19644632   1.795   2.208   3.349 -0.1639 -0.0935 -0.4251
  139MOL   C19744633   1.668   2.240   3.396 -0.1015  1.0289 -0.3806
  139MOL   C19844634   1.654   2.323   3.507 -0.1922 -0.2868 -0.5824
  139MOL  Cl19944635   1.495   2.349   3.567  0.0016 -0.1752  0.2382
  139MOL   C20044636   1.763   2.376   3.576  0.1037 -0.2906 -0.2442
  139MOL   C20144637   1.886   2.353   3.516  0.6995 -0.1181  1.7587
  139MOL   C20244638   2.119   2.402   3.324 -0.2008 -0.2417 -0.0196
  139MOL   H20344639   2.060   2.202   3.259  1.5868  0.9786 -0.5703
  139MOL   H20444640   1.799   2.128   3.277 -1.4860 -1.1763  0.6786
  139MOL   H20544641   1.580   2.198   3.349  0.0125 -0.1835  0.4750
  139MOL   H20644642   1.754   2.445   3.659  0.3187  1.9698 -2.0608
  139MOL   H20744643   1.972   2.411   3.547  0.4655 -0.0016  2.1883
  139MOL   H20844644   2.143   2.459   3.414 -1.3976  2.0238 -1.0729
  139MOL   H20944645   2.219   2.391   3.281 -0.1536  1.5138 -0.4064
  139MOL   C21044646   2.030   2.496   3.235 -0.4029  0.0545  0.5579
  139MOL   C21144647   2.088   2.640   3.251 -0.5249 -0.1837  0.4101
  139MOL   C21244648   2.207   2.679   3.180 -0.5972 -0.0458  0.1433
  139MOL   C21344649   2.251   2.810   3.187  0.1238 -0.6388  0.3480
  139MOL   C21444650   2.173   2.909   3.256  0.3534 -0.4661 -0.1138
  139MOL  Cl21544651   2.234   3.071   3.264 -0.2720  0.2441  0.1392
  139MOL   C21644652   2.054   2.870   3.319  0.0035 -0.8639 -0.1263
  139MOL   C21744653   2.011   2.740   3.316  0.8571  0.3889 -0.2724
  139MOL   C21844654   2.019   2.439   3.089  0.5290 -0.2974  0.3583
  139MOL   H21944655   1.930   2.505   3.278  0.4837  0.0840  2.6240
  139MOL   H22044656   2.255   2.610   3.112  0.8484  2.2649 -1.2150
  139MOL   H22144657   2.340   2.850   3.142 -0.0475  0.1356  0.6821
  139MOL   H22244658   1.986   2.943   3.362  0.8174 -1.0011  1.4458
  139MOL   H22344659   1.909   2.722   3.349 -0.0468  1.7166 -2.2724
  139MOL   H22444660   2.111   2.388   3.060 -0.5051 -1.4391 -0.9550
  139MOL   H22544661   1.954   2.352   3.095 -2.4118  1.9251  2.4424
  139MOL   C22644662   1.968   2.527   2.977  0.0202 -0.7076 -0.7079
  139MOL   C22744663   1.991   2.472   2.835 -0.0183 -0.0874  0.2886
  139MOL   C22844664   2.078   2.538   2.747 -0.0501  0.3030  0.0979
  139MOL   C22944665   2.105   2.486   2.621  0.3147  0.0462 -0.1898
  139MOL   C23044666   2.043   2.368   2.578 -0.6611  0.5589  0.5001
  139MOL  Cl23144667   2.063   2.308   2.420 -0.4440 -0.0307 -0.2652
  139MOL   C23244668   1.952   2.303   2.663 -0.5013  0.0743  0.9829
  139MOL   C23344669   1.929   2.351   2.794 -0.4826 -1.1580  0.1611
  139MOL   C23444670   1.822   2.573   3.004 -0.1968 -0.4808 -0.0140
  139MOL   H23544671   2.023   2.621   2.978 -3.3774  1.4366 -3.7414
  139MOL   H23644672   2.141   2.620   2.777 -0.5625 -0.3201  3.0882
  139MOL   H23744673   2.174   2.530   2.550  1.2329 -2.0872 -0.6592
  139MOL   H23844674   1.910   2.209   2.629  0.7558 -0.1764  0.0861
  139MOL   H23944675   1.872   2.293   2.865 -3.1340  2.0804  0.8025
  139MOL   H24044676   1.757   2.542   2.922  0.2106  0.1242 -0.5770
  139MOL   H24144677   1.787   2.518   3.091  1.4659  2.1735  2.3923
  139MOL   C24244678   1.797   2.726   3.025 -0.2057  0.1103  0.0928
  139MOL   C24344679   1.886   2.818   2.931  0.5956  0.1373  0.0918
  139MOL   C24444680   1.885   2.812   2.789  0.0893 -0.3974  0.0745
  139MOL   C24544681   1.956   2.903   2.706  0.4842 -0.4190 -0.0045
  139MOL   C24644682   2.046   2.995   2.767 -0.7187 -0.3338  0.9472
  139MOL  Cl24744683   2.148   3.101   2.673 -0.7952  0.3704  0.1410
  139MOL   C24844684   2.049   3.000   2.909 -0.2640 -0.5522  0.0780
  139MOL   C24944685   1.961   2.918   2.992 -0.5888 -0.1658  0.5781
  139MOL   C25044686   1.648   2.772   3.003 -0.0594  0.4454 -0.1159
  139MOL   H25144687   1.810   2.754   3.129 -0.4174 -0.4929  0.2823
  139MOL   H25244688   1.819   2.740   2.741 -2.2316  2.2144 -0.8150
  139MOL   H25344689   1.950   2.903   2.599 -0.6799  0.1487  0.0610
  139MOL   H25444690   2.124   3.064   2.953  1.0397 -1.4993 -0.7235
  139MOL   H25544691   1.957   2.925   3.100  0.7505  0.2446  0.6023
  139MOL   H25644692   1.646   2.880   2.990 -0.9312  0.5953  1.1749
  139MOL   H25744693   1.614   2.731   2.908 -0.4989  1.5649 -0.4444
  139MOL   C25844694   1.551   2.733   3.109  0.1517 -0.2064 -0.3306
  139MOL   C25944695   1.571   2.787   3.252  0.4913 -0.0689  0.1008
  139MOL   C26044696   1.611   2.702   3.359 -0.4649 -0.1175  0.5315
  139MOL   C26144697   1.613   2.754   3.491  0.1156  0.6458 -0.4796
  139MOL   C26244698   1.580   2.886   3.511 -0.0973 -0.3048  0.0062
  139MOL  Cl26344699   1.567   2.935   3.674 -0.0080 -0.0600 -0.0980
  139MOL   C26444700   1.551   2.974   3.404  0.3921  0.2760  0.0546
  139MOL   C26544701   1.537   2.922   3.276  0.0770  0.7349 -0.2399
  139MOL   C26644702   1.404   2.757   3.072 -0.7109  0.2017  0.3613
  139MOL   H26744703   1.578   2.627   3.113  2.3659  0.3930  1.5909
  139MOL   H26844704   1.637   2.598   3.343  1.8022  0.1614  2.2912
  139MOL   H26944705   1.651   2.694   3.573 -2.7594 -0.5703  0.0490
  139MOL   H27044706   1.531   3.079   3.421 -0.8699  0.3258 -1.5948
  139MOL   H27144707   1.514   2.993   3.199  0.8659 -0.8955 -2.0217
  139MOL   H27244708   1.349   2.719   3.158 -0.8607  0.8637  0.5565
  139MOL   H27344709   1.386   2.861   3.047 -2.9004 -0.5365 -1.2554
  139MOL   C27444710   1.348   2.674   2.957 -0.1956 -0.2429 -0.3099
  139MOL   C27544711   1.399   2.527   2.961  0.2279 -0.8238 -0.1477
  139MOL   C27644712   1.450   2.460   2.848 -0.0825  0.0918 -0.1610
  139MOL   C27744713   1.489   2.324   2.856  0.2436 -0.0524  0.0773
  139MOL   C27844714   1.472   2.263   2.977 -0.4511 -0.1780 -0.5200
  139MOL  Cl27944715   1.544   2.101   2.995 -0.1853  0.1139  0.1591
  139MOL   C28044716   1.414   2.318   3.090 -0.1783 -0.3582 -0.3772
  139MOL   C28144717   1.375   2.454   3.081 -0.1096  0.4763  0.8006
  139MOL   C28244718   1.191   2.688   2.956 -0.1851 -0.1176  0.5356
  139MOL   H28344719   1.391   2.715   2.866  2.0153 -0.6582  0.5137
  139MOL   H28444720   1.465   2.515   2.756  0.8249  0.4533  0.2088
  139MOL   H28544721   1.539   2.275   2.774 -0.5819 -2.1448  0.7991
  139MOL   H28644722   1.404   2.265   3.184 -0.1946 -2.4242 -1.5066
  139MOL   H28744723   1.328   2.507   3.163 -2.5900 -0.6274  0.1509
  139MOL   H28844724   1.130   2.605   2.992  0.7751 -1.5202 -0.9501
  139MOL   H28944725   1.172   2.773   3.021  0.3428  1.2588 -1.0681
  139MOL   C29044726   1.136   2.730   2.819  0.3492 -0.3921 -0.0610
  139MOL   C29144727   1.135   2.615   2.717 -0.4031  0.2705 -0.1576
  139MOL   C29244728   1.193   2.637   2.587  0.7679 -0.0377  0.1766
  139MOL   C29344729   1.204   2.531   2.497  0.2891 -0.0321  0.4528
  139MOL   C29444730   1.151   2.410   2.529 -0.6372  0.1729  0.0711
  139MOL  Cl29544731   1.147   2.281   2.424 -0.1826  0.2681 -0.5199
  139MOL   C29644732   1.088   2.391   2.653  0.3384  1.1965  0.5016
  139MOL   C29744733   1.088   2.487   2.752 -0.1483 -0.3650  0.2413
  139MOL   C29844734   0.994   2.789   2.829  0.5087 -0.7183 -0.4242
  139MOL   H29944735   1.202   2.810   2.786  0.0973  0.2281  0.9435
  139MOL   H30044736   1.239   2.733   2.569  1.2768 -0.3531 -0.2089
  139MOL   H30144737   1.253   2.523   2.401 -0.3704 -1.9309  0.2533
  139MOL   H30244738   1.037   2.301   2.683  2.1468 -0.0912 -0.1888
  139MOL   H30344739   1.032   2.479   2.844 -1.2744  1.2288 -0.2754
  139MOL   H30444740   0.947   2.792   2.731 -0.3473 -0.3583 -0.0017
  139MOL   H30544741   0.957   2.710   2.895 -1.2146 -0.2807 -0.8623
  139MOL   C30644742   0.983   2.935   2.891  0.4780 -0.2778  0.6603
  139MOL   C30744743   1.074   3.032   2.808  0.0094 -0.0380 -0.0537
  139MOL   C30844744   1.191   3.083   2.873  0.1269  0.2733  0.2607
  139MOL   C30944745   1.289   3.146   2.802 -0.2974 -0.5175  0.1587
  139MOL   C31044746   1.270   3.169   2.668 -0.0466  0.1840  0.8463
  139MOL  Cl31144747   1.396   3.247   2.577  0.1296 -0.1457  0.2272
  139MOL   C31244748   1.149   3.132   2.600  0.2327  0.4306 -0.3421
  139MOL   C31344749   1.049   3.065   2.673 -0.3846  0.2054 -0.4733
  139MOL   C31444750   0.834   2.981   2.898  0.4546 -0.4804 -0.0722
  139MOL   H31544751   1.014   2.932   2.995  1.0628  1.9588  0.5717
  139MOL   H31644752   1.200   3.047   2.975  2.1401 -1.9571 -0.6753
  139MOL   H31744753   1.382   3.180   2.846  0.6874 -1.7446 -0.9432
  139MOL   H31844754   1.131   3.172   2.500 -0.1580  1.0200 -0.0437
  139MOL   H31944755   0.956   3.039   2.624 -0.0652 -4.0634  1.0325
  139MOL   H32044756   0.793   3.021   2.806  0.7617  0.6308  0.2681
  139MOL   H32144757   0.765   2.907   2.940 -0.2910 -0.2971 -0.9483
  139MOL   H32244758   0.841   3.070   2.960 -1.6968  0.1901 -0.7653
  140MOL     C144759   7.357   6.534   2.107  0.0779  0.4639  0.0804
  140MOL     C244760   7.254   6.573   2.216  0.8450 -0.2418  0.2498
  140MOL     C344761   7.120   6.603   2.186  0.1329  0.4824 -0.8611
  140MOL     C444762   7.032   6.618   2.291  0.1168  0.0584  0.1215
  140MOL     C544763   7.069   6.601   2.428  0.0982 -0.1182  0.4065
  140MOL    Cl644764   6.950   6.621   2.549  0.1876  0.4320 -0.2201
  140MOL     C744765   7.200   6.561   2.462 -0.2875 -0.1194  0.4864
  140MOL     C844766   7.296   6.561   2.353  0.1200  0.6779 -0.1477
  140MOL     C944767   7.367   6.386   2.094  0.2009 -0.6638 -0.2852
  140MOL    H1044768   7.455   6.562   2.146 -0.1966  0.6894  0.6050
  140MOL    H1144769   7.085   6.587   2.085  1.1391 -0.3903 -1.0798
  140MOL    H1244770   6.927   6.634   2.273  0.6217  2.5475 -0.7249
  140MOL    H1344771   7.244   6.553   2.560  0.1528 -1.9780  0.1625
  140MOL    H1444772   7.400   6.550   2.380 -0.0055 -0.4185 -0.0919
  140MOL    H1544773   7.386   6.345   2.194  1.4353  1.4427  0.3808
  140MOL    H1644774   7.267   6.347   2.074 -0.8257  0.2455  2.7330
  140MOL    H1744775   7.337   6.589   2.014 -3.1452  0.8768  0.9559
  140MOL    C1844776   7.456   6.319   1.989 -0.3973  1.1205  1.1028
  140MOL    C1944777   7.599   6.369   1.980 -0.3678 -0.4116 -0.1818
  140MOL    C2044778   7.658   6.375   1.849 -0.8934 -0.5340 -0.2465
  140MOL    C2144779   7.793   6.416   1.836 -0.2560  0.0215 -0.2180
  140MOL    C2244780   7.873   6.450   1.947  0.0051 -0.1413 -0.3484
  140MOL   Cl2344781   8.035   6.493   1.934 -0.0380  0.1205  0.1755
  140MOL    C2444782   7.814   6.449   2.075 -0.1716  0.3604  0.8575
  140MOL    C2544783   7.675   6.407   2.092 -0.1198 -0.4287  1.0304
  140MOL    C2644784   7.466   6.170   2.013 -0.2116  0.8292  0.6528
  140MOL    H2744785   7.411   6.328   1.890  0.7416  0.8030  0.5532
  140MOL    H2844786   7.605   6.340   1.762 -1.4016 -0.2056 -0.0741
  140MOL    H2944787   7.845   6.423   1.741  1.3011  0.7832  0.6716
  140MOL    H3044788   7.872   6.483   2.159  2.1003  1.9532 -1.2915
  140MOL    H3144789   7.636   6.417   2.192 -0.3292  0.6083  0.8548
  140MOL    H3244790   7.558   6.126   1.975  0.1897  0.1332  2.3774
  140MOL    H3344791   7.489   6.174   2.119  1.4788 -1.3897  0.4139
  140MOL    C3444792   7.340   6.075   2.004  0.8716 -0.1100 -0.1112
  140MOL    C3544793   7.307   6.045   1.858  0.3759 -0.0027  0.0884
  140MOL    C3644794   7.176   6.014   1.814  0.0342 -0.7293  0.0268
  140MOL    C3744795   7.144   5.986   1.678 -0.1495  0.3213  0.3630
  140MOL    C3844796   7.245   5.992   1.580 -0.6020 -0.3316  0.7289
  140MOL   Cl3944797   7.217   5.959   1.406  0.2750 -0.1489  0.0443
  140MOL    C4044798   7.376   6.027   1.619  0.6601  0.0788 -0.7217
  140MOL    C4144799   7.405   6.050   1.760 -0.1160 -0.8322  0.4896
  140MOL    C4244800   7.364   5.937   2.071 -0.7033  0.1044 -0.6774
  140MOL    H4344801   7.256   6.122   2.056 -0.3802 -1.5918 -0.7448
  140MOL    H4444802   7.097   6.002   1.886  0.1230  0.9755  0.4230
  140MOL    H4544803   7.041   5.968   1.652 -0.0601  0.5989 -0.1796
  140MOL    H4644804   7.451   6.047   1.543  2.3698  0.3016  0.9851
  140MOL    H4744805   7.509   6.077   1.772 -0.4759  1.6643 -1.5223
  140MOL    H4844806   7.303   5.855   2.032  2.4008 -1.7378 -1.8121
  140MOL    H4944807   7.465   5.909   2.041 -1.5142 -2.2056 -1.3633
  140MOL    C5044808   7.358   5.942   2.226  0.7027 -0.5833  0.2819
  140MOL    C5144809   7.207   5.961   2.263  0.0065 -0.2593  0.6286
  140MOL    C5244810   7.110   5.863   2.265  1.1233 -0.3316 -0.5061
  140MOL    C5344811   6.978   5.891   2.305 -0.0641 -0.4509  0.1003
  140MOL    C5444812   6.937   6.027   2.347 -0.0859 -0.1749 -0.0437
  140MOL   Cl5544813   6.774   6.062   2.395  0.1350  0.1592  0.0825
  140MOL    C5644814   7.036   6.129   2.343 -0.0813 -0.4139 -0.7822
  140MOL    C5744815   7.169   6.090   2.308 -0.4406  0.2638  0.2172
  140MOL    C5844816   7.427   5.831   2.297  0.3326 -0.0267 -0.7581
  140MOL    H5944817   7.412   6.028   2.264 -0.8548  0.7887 -0.5476
  140MOL    H6044818   7.133   5.759   2.247  3.0530 -0.1843  0.9171
  140MOL    H6144819   6.907   5.812   2.319  0.0448 -0.2758  1.6641
  140MOL    H6244820   7.007   6.228   2.378  0.1400 -0.9395  0.9671
  140MOL    H6344821   7.252   6.158   2.316  0.4146 -0.7815  0.2271
  140MOL    H6444822   7.417   5.830   2.406  0.6736  2.3877 -0.6932
  140MOL    H6544823   7.385   5.740   2.254  1.7097 -1.4095  0.7615
  140MOL    C6644824   7.582   5.807   2.259 -0.0563  0.7138  0.6350
  140MOL    C6744825   7.654   5.932   2.305 -0.7523 -0.5244 -0.0227
  140MOL    C6844826   7.664   5.968   2.444 -0.6898 -0.6497 -0.8349
  140MOL    C6944827   7.728   6.089   2.480  0.5398 -0.0968 -1.3555
  140MOL    C7044828   7.790   6.170   2.384  0.8333  0.2299  0.1761
  140MOL   Cl7144829   7.871   6.306   2.421 -0.1194 -0.0035 -0.1459
  140MOL    C7244830   7.781   6.130   2.249  0.6164  0.3787 -0.2019
  140MOL    C7344831   7.711   6.017   2.207  0.5277  0.2266 -0.0234
  140MOL    C7444832   7.649   5.685   2.329  0.1919  0.6338 -0.2359
  140MOL    H7544833   7.601   5.788   2.153  1.9120  0.6103  0.9859
  140MOL    H7644834   7.620   5.902   2.517  1.0690 -0.5599  0.3329
  140MOL    H7744835   7.725   6.119   2.584  0.0644 -2.9168 -0.5109
  140MOL    H7844836   7.800   6.200   2.169 -1.9700 -0.7912 -1.9049
  140MOL    H7944837   7.700   6.003   2.101  2.1298  2.9996 -0.6100
  140MOL    H8044838   7.714   5.709   2.413 -2.1895  0.9420  1.5912
  140MOL    H8144839   7.567   5.621   2.362 -1.3862  1.1565 -2.9302
  140MOL    C8244840   7.736   5.607   2.228 -0.1046  0.2230 -1.0663
  140MOL    C8344841   7.839   5.696   2.158 -0.0338  0.1794  0.8699
  140MOL    C8444842   7.951   5.746   2.230 -0.8456  0.4725  0.3973
  140MOL    C8544843   8.052   5.817   2.160 -0.7548 -0.1950  0.3822
  140MOL    C8644844   8.030   5.846   2.023 -0.5039  0.0650  0.4212
  140MOL   Cl8744845   8.145   5.946   1.937 -0.5790  0.4336  0.0547
  140MOL    C8844846   7.914   5.814   1.956  0.1466 -0.4007 -0.5385
  140MOL    C8944847   7.823   5.734   2.019  0.3887 -0.3814  0.0941
  140MOL    C9044848   7.802   5.485   2.303 -0.3289 -0.0701  0.2180
  140MOL    H9144849   7.672   5.557   2.155  0.3849  0.2637 -1.5312
  140MOL    H9244850   7.962   5.714   2.332  2.6303 -1.4021 -0.4945
  140MOL    H9344851   8.140   5.859   2.206  0.1049 -1.0031 -0.4998
  140MOL    H9444852   7.905   5.848   1.854 -0.4715  1.5713  0.1603
  140MOL    H9544853   7.735   5.694   1.970 -2.0532  0.8928  3.2712
  140MOL    H9644854   7.856   5.517   2.392  0.0461  0.2640 -0.1276
  140MOL    H9744855   7.724   5.416   2.334  0.1014 -0.4578  0.4377
  140MOL    C9844856   7.902   5.395   2.214 -0.2142 -0.2311  0.1503
  140MOL    C9944857   8.039   5.443   2.180  0.3826 -0.3027  0.3759
  140MOL   C10044858   8.084   5.463   2.047  0.4177 -0.0325  0.1007
  140MOL   C10144859   8.214   5.512   2.024  0.5003 -0.0311 -0.1121
  140MOL   C10244860   8.305   5.535   2.127  0.0967 -0.1867  0.5785
  140MOL  Cl10344861   0.023   5.572   2.096 -0.3698  0.0629 -0.2615
  140MOL   C10444862   8.265   5.508   2.259 -0.5598 -0.6618 -0.5925
  140MOL   C10544863   8.128   5.467   2.285 -0.1369  0.2849 -0.5331
  140MOL   C10644864   7.912   5.250   2.265 -0.3347  0.1395 -0.0655
  140MOL   H10744865   7.863   5.392   2.112  0.5172  1.3833 -0.1927
  140MOL   H10844866   8.026   5.457   1.956 -0.8653 -0.6912  0.9389
  140MOL   H10944867   8.234   5.550   1.926  1.2345 -1.1833 -0.4176
  140MOL   H11044868   8.329   5.526   2.344 -0.3391  2.3838 -1.3570
  140MOL   H11144869   8.091   5.453   2.386  0.1257 -1.0732 -0.6193
  140MOL   H11244870   7.983   5.246   2.347 -0.3807  2.3128  0.1080
  140MOL   H11344871   7.822   5.215   2.317  0.7627  0.9784  2.4645
  140MOL   C11444872   7.942   5.149   2.160 -0.5687  0.2096 -0.1711
  140MOL   C11544873   8.008   5.031   2.227  0.0979 -0.3167  0.2552
  140MOL   C11644874   8.151   5.034   2.243  0.0015  0.4454  0.4556
  140MOL   C11744875   8.214   4.924   2.316 -0.3086 -0.6262  0.4867
  140MOL   C11844876   8.136   4.820   2.360  0.0100 -0.1195 -0.0266
  140MOL  Cl11944877   8.201   4.690   2.446 -0.0331  0.0756  0.0077
  140MOL   C12044878   7.997   4.805   2.327 -0.1126  0.3580 -0.8400
  140MOL   C12144879   7.930   4.917   2.271  0.0407 -0.3485 -0.3455
  140MOL   C12244880   7.826   5.124   2.061  0.2379  0.6420 -0.3694
  140MOL   H12344881   8.021   5.198   2.103  0.2541 -1.9006 -0.8902
  140MOL   H12444882   8.222   5.107   2.207 -0.1465  0.2711 -0.1881
  140MOL   H12544883   8.322   4.923   2.325 -0.3436 -0.9081  0.9077
  140MOL   H12644884   7.934   4.722   2.355  1.2807  0.2944  2.3129
  140MOL   H12744885   7.824   4.906   2.258  0.2201 -1.6104 -0.8320
  140MOL   H12844886   7.763   5.042   2.094 -0.0976  1.5392  1.3090
  140MOL   H12944887   7.758   5.208   2.075 -1.7529 -1.0465  0.3069
  140MOL   C13044888   7.860   5.125   1.907 -0.0195 -0.3048  0.6060
  140MOL   C13144889   7.969   5.029   1.869  0.1875  0.2180 -0.0929
  140MOL   C13244890   8.052   5.070   1.759 -0.3154  0.3246  0.4292
  140MOL   C13344891   8.164   4.989   1.726  0.0823 -1.2113 -0.1029
  140MOL   C13444892   8.168   4.863   1.782  0.2126 -0.0417  0.2432
  140MOL  Cl13544893   8.295   4.755   1.760 -0.2850 -0.1247 -0.3687
  140MOL   C13644894   8.079   4.822   1.884 -0.8914 -0.1717  1.0343
  140MOL   C13744895   7.980   4.905   1.928  0.4679 -0.8297 -0.0906
  140MOL   C13844896   7.743   5.106   1.827  0.2659  0.4047  0.2125
  140MOL   H13944897   7.898   5.227   1.892 -0.2705 -0.6709 -3.2129
  140MOL   H14044898   8.039   5.167   1.713  0.1636  0.1891  0.0116
  140MOL   H14144899   8.244   5.032   1.668  0.4830  0.0472  1.3563
  140MOL   H14244900   8.083   4.726   1.934 -1.6119  0.0373  1.5017
  140MOL   H14344901   7.902   4.868   1.993 -0.1858  2.2558  0.9439
  140MOL   H14444902   7.765   5.069   1.727  0.5118  1.1112 -0.0003
  140MOL   H14544903   7.689   5.023   1.871  0.0419  0.5845  0.2806
  140MOL   C14644904   7.641   5.224   1.787 -0.1825 -0.7074 -0.3656
  140MOL   C14744905   7.700   5.330   1.693  0.5680 -0.7837 -1.1228
  140MOL   C14844906   7.726   5.465   1.737 -0.6526  0.2875 -0.0110
  140MOL   C14944907   7.778   5.557   1.645 -0.1525 -0.3576  0.0744
  140MOL   C15044908   7.822   5.522   1.518  0.2942 -0.1581 -0.1411
  140MOL  Cl15144909   7.896   5.637   1.409 -0.0092  0.3634 -0.2117
  140MOL   C15244910   7.808   5.386   1.483  1.0081  0.2149 -0.6122
  140MOL   C15344911   7.743   5.293   1.567 -0.1508  0.2470  0.3119
  140MOL   C15444912   7.500   5.178   1.737  0.0731  0.6814 -0.3003
  140MOL   H15544913   7.623   5.272   1.883  0.1475  0.1678 -0.7321
  140MOL   H15644914   7.713   5.518   1.830  3.1747 -1.0728  1.3755
  140MOL   H15744915   7.781   5.662   1.673  0.6803 -0.2786 -0.2848
  140MOL   H15844916   7.834   5.351   1.384 -0.3013  0.6277 -1.1116
  140MOL   H15944917   7.714   5.194   1.535 -0.6547  0.3168  0.5339
  140MOL   H16044918   7.442   5.262   1.700 -1.6779  0.7303  2.3798
  140MOL   H16144919   7.524   5.119   1.649 -0.3447  1.2436 -0.7928
  140MOL   C16244920   7.412   5.099   1.842  0.0301  0.3806  0.1381
  140MOL   C16344921   7.333   5.190   1.933 -0.4610  1.0134 -0.2404
  140MOL   C16444922   7.371   5.201   2.071  0.7370 -0.1181  0.0256
  140MOL   C16544923   7.303   5.288   2.157  0.3444 -0.0896 -0.6082
  140MOL   C16644924   7.190   5.364   2.115 -0.3062  0.0777 -1.0755
  140MOL  Cl16744925   7.105   5.473   2.220  0.0473 -0.3126  0.1504
  140MOL   C16844926   7.153   5.352   1.977  0.3421 -0.1853  0.1367
  140MOL   C16944927   7.223   5.266   1.885 -0.3371  0.2180 -0.0147
  140MOL   C17044928   7.321   4.989   1.772 -1.1506 -0.2244  0.4826
  140MOL   H17144929   7.474   5.034   1.904 -1.7343 -1.4676  0.0092
  140MOL   H17244930   7.451   5.138   2.107 -0.2912 -1.8961 -0.6887
  140MOL   H17344931   7.340   5.298   2.258  0.4078 -1.9872 -0.4133
  140MOL   H17444932   7.084   5.423   1.936  0.2620  0.1626  0.8685
  140MOL   H17544933   7.191   5.252   1.782  2.1967 -1.2342 -0.6554
  140MOL   H17644934   7.260   4.950   1.853 -1.6027  1.2611  0.8642
  140MOL   H17744935   7.250   5.038   1.705  0.3025  1.2135 -0.0173
  140MOL   C17844936   7.394   4.869   1.695  0.1908  0.2755 -0.4057
  140MOL   C17944937   7.509   4.807   1.784  0.1627 -0.1001 -0.0171
  140MOL   C18044938   7.478   4.763   1.913 -0.8552 -0.7074  0.6337
  140MOL   C18144939   7.575   4.703   1.996  0.2335 -0.9168  0.1237
  140MOL   C18244940   7.706   4.680   1.941 -0.0124 -0.0837  0.2526
  140MOL  Cl18344941   7.825   4.601   2.029 -0.1599 -0.0062  0.4288
  140MOL   C18444942   7.731   4.720   1.809 -0.4088 -0.1447  0.1664
  140MOL   C18544943   7.642   4.796   1.734  0.6130 -0.7136 -0.8915
  140MOL   C18644944   7.295   4.756   1.650 -0.5346  0.5063  0.7237
  140MOL   H18744945   7.445   4.906   1.606  1.3861  0.7672  0.4638
  140MOL   H18844946   7.379   4.779   1.955 -0.5398 -0.5419  1.3175
  140MOL   H18944947   7.573   4.693   2.103  2.6019  0.4263  0.3320
  140MOL   H19044948   7.833   4.700   1.777 -0.7153 -0.9531 -0.3329
  140MOL   H19144949   7.670   4.826   1.634  3.4254 -1.5717 -0.4041
  140MOL   H19244950   7.217   4.754   1.726 -0.1154  1.2543  1.1846
  140MOL   H19344951   7.247   4.797   1.561 -0.7464 -1.8278 -0.2671
  140MOL   C19444952   7.345   4.616   1.612 -0.6818 -0.4221 -0.3345
  140MOL   C19544953   7.232   4.524   1.574 -0.6387 -0.6505  0.4897
  140MOL   C19644954   7.149   4.560   1.460 -0.0278 -0.6766 -0.3640
  140MOL   C19744955   7.037   4.483   1.427 -0.3614 -0.7995 -0.6176
  140MOL   C19844956   7.010   4.362   1.495 -0.3947 -0.9382 -0.3487
  140MOL  Cl19944957   6.881   4.258   1.452 -0.3745  0.0078 -0.2448
  140MOL   C20044958   7.090   4.324   1.603 -0.4099 -0.3319 -0.5965
  140MOL   C20144959   7.204   4.403   1.639 -0.0023  0.1735  0.5862
  140MOL   C20244960   7.450   4.622   1.501 -0.2604  0.1820  0.2627
  140MOL   H20344961   7.382   4.577   1.706 -1.5549  1.3623  0.7705
  140MOL   H20444962   7.171   4.644   1.396 -0.4559  0.1686  0.5871
  140MOL   H20544963   6.968   4.523   1.354 -1.2451 -0.1300  0.5738
  140MOL   H20644964   7.068   4.237   1.664  2.4438 -1.4232 -1.0287
  140MOL   H20744965   7.264   4.370   1.723  0.1690 -1.6997 -0.2509
  140MOL   H20844966   7.403   4.657   1.409  0.6225 -1.1887 -0.7255
  140MOL   H20944967   7.524   4.702   1.509  0.8494 -0.8879  0.7979
  140MOL   C21044968   7.518   4.483   1.485 -0.5965  0.2767  0.1504
  140MOL   C21144969   7.615   4.482   1.362 -0.4626  0.1368  1.0257
  140MOL   C21244970   7.712   4.576   1.343 -0.3351  0.3603  0.1384
  140MOL   C21344971   7.789   4.575   1.223  0.6117 -1.1651  0.0379
  140MOL   C21444972   7.776   4.468   1.134  0.0282 -0.5018 -0.4416
  140MOL  Cl21544973   7.879   4.461   0.994 -0.0881  0.3404  0.0754
  140MOL   C21644974   7.684   4.363   1.164  0.2752 -0.6321  0.0112
  140MOL   C21744975   7.600   4.372   1.273  0.3210  0.2581  0.0057
  140MOL   C21844976   7.611   4.448   1.611  0.6511  0.0314  0.1987
  140MOL   H21944977   7.444   4.403   1.480 -1.3476  0.9624  0.2828
  140MOL   H22044978   7.728   4.652   1.418 -3.7131 -1.3559  2.7605
  140MOL   H22144979   7.847   4.664   1.207 -1.1777 -0.0333 -0.3380
  140MOL   H22244980   7.681   4.292   1.083 -2.3610  0.4389 -0.8890
  140MOL   H22344981   7.532   4.289   1.285 -1.4221  1.9487  2.4266
  140MOL   H22444982   7.716   4.473   1.601  0.8283 -1.0050 -0.5516
  140MOL   H22544983   7.580   4.517   1.690 -0.7189 -1.2476  0.8112
  140MOL   C22644984   7.587   4.304   1.667 -0.5361  0.0925 -1.3572
  140MOL   C22744985   7.632   4.193   1.568 -1.1752 -0.1538  0.8729
  140MOL   C22844986   7.542   4.117   1.486  0.3312 -0.1917 -0.0536
  140MOL   C22944987   7.584   4.018   1.400  0.3771  0.1577  0.3210
  140MOL   C23044988   7.722   3.983   1.397 -0.1858 -0.0726  0.5416
  140MOL  Cl23144989   7.769   3.862   1.277  0.0327  0.1507  0.3678
  140MOL   C23244990   7.817   4.062   1.465 -0.1267  0.4091 -0.2497
  140MOL   C23344991   7.772   4.175   1.548  0.7079 -0.3630 -0.2066
  140MOL   C23444992   7.661   4.281   1.803  0.3994 -0.1730  0.1082
  140MOL   H23544993   7.483   4.283   1.689 -0.0316 -0.8804  0.2344
  140MOL   H23644994   7.438   4.145   1.485 -0.0620 -1.6069  0.1368
  140MOL   H23744995   7.516   3.976   1.328  2.9441 -1.5333 -1.1692
  140MOL   H23844996   7.922   4.049   1.444 -0.1111  0.7756 -0.4055
  140MOL   H23944997   7.838   4.242   1.601  0.2824  0.5628 -0.8290
  140MOL   H24044998   7.679   4.174   1.807  0.9345 -0.1422 -1.0496
  140MOL   H24144999   7.757   4.331   1.817  0.0839  0.1622  1.1276
  140MOL   C24245000   7.584   4.316   1.935  0.1356  0.0016  0.5015
  140MOL   C24345001   7.431   4.303   1.938 -0.0209  0.4769  0.4079
  140MOL   C24445002   7.365   4.174   1.922  0.2890 -0.6798  0.4960
  140MOL   C24545003   7.223   4.173   1.930 -0.1701  0.0821  0.0190
  140MOL   C24645004   7.147   4.284   1.970  0.3638 -0.0879  0.1074
  140MOL  Cl24745005   6.981   4.278   2.006 -0.0957  0.0420 -0.6761
  140MOL   C24845006   7.218   4.399   1.998  0.0595  0.4860 -0.2047
  140MOL   C24945007   7.357   4.411   1.975  0.0225 -0.1898 -0.0131
  140MOL   C25045008   7.663   4.254   2.053 -0.1639  0.3504  0.3082
  140MOL   H25145009   7.602   4.423   1.944 -1.9940  0.5617 -1.2168
  140MOL   H25245010   7.428   4.089   1.902  0.8475 -0.5004  1.4383
  140MOL   H25345011   7.176   4.076   1.920 -1.1721  0.5676 -0.0744
  140MOL   H25445012   7.166   4.485   2.037 -1.4220 -1.0567  1.3709
  140MOL   H25545013   7.409   4.500   2.008  0.5190 -1.2241  2.0324
  140MOL   H25645014   7.653   4.146   2.037  0.8129 -0.1632  2.9303
  140MOL   H25745015   7.770   4.274   2.046 -0.2614  0.3449 -1.3754
  140MOL   C25845016   7.601   4.277   2.191  0.3089 -1.1361 -0.0302
  140MOL   C25945017   7.655   4.176   2.293 -0.1152  0.1462  0.2833
  140MOL   C26045018   7.560   4.137   2.392 -0.1843 -0.0413  0.2346
  140MOL   C26145019   7.597   4.042   2.490  0.3984 -0.3794 -0.3481
  140MOL   C26245020   7.725   3.980   2.481 -0.1092  0.0150  0.2531
  140MOL  Cl26345021   7.782   3.868   2.598 -0.3026 -0.0468  0.5762
  140MOL   C26445022   7.813   4.014   2.382 -0.3388 -0.0481  0.1248
  140MOL   C26545023   7.779   4.114   2.292 -0.5049 -0.0665 -0.4638
  140MOL   C26645024   7.622   4.422   2.242 -0.0370  0.1861 -0.1257
  140MOL   H26745025   7.495   4.252   2.181 -0.2279  1.6882 -1.7946
  140MOL   H26845026   7.461   4.178   2.390 -0.3458 -0.4704 -0.5196
  140MOL   H26945027   7.535   4.022   2.575  0.4925  0.4332 -0.0871
  140MOL   H27045028   7.910   3.967   2.380 -0.2643  0.1189 -0.4719
  140MOL   H27145029   7.854   4.140   2.219  2.7146 -2.0019  2.0032
  140MOL   H27245030   7.727   4.442   2.262  0.6244  2.5702 -5.1911
  140MOL   H27345031   7.602   4.497   2.166 -0.1755 -1.1143 -1.4030
  140MOL   C27445032   7.547   4.475   2.365 -0.5320  0.1468  0.0470
  140MOL   C27545033   7.582   4.614   2.406  0.5477 -0.2067  0.0542
  140MOL   C27645034   7.500   4.724   2.371 -0.1619  0.3403 -0.0586
  140MOL   C27745035   7.526   4.850   2.431  0.0638 -0.3853  0.4667
  140MOL   C27845036   7.632   4.870   2.520 -0.1118  0.0754 -0.1518
  140MOL  Cl27945037   7.647   5.034   2.582  0.1192  0.1381  0.0706
  140MOL   C28045038   7.714   4.761   2.551 -0.0949 -0.4039 -0.0033
  140MOL   C28145039   7.692   4.636   2.498  0.1510 -0.1789  0.1481
  140MOL   C28245040   7.393   4.457   2.355 -0.1806 -0.6948 -0.0522
  140MOL   H28345041   7.580   4.425   2.456  1.0453 -2.1744 -1.7302
  140MOL   H28445042   7.416   4.720   2.303 -0.5218  0.3768  0.3837
  140MOL   H28545043   7.455   4.929   2.413  0.5185  0.5484  2.6546
  140MOL   H28645044   7.794   4.788   2.618  0.4266 -1.3659 -0.2202
  140MOL   H28745045   7.747   4.549   2.532 -0.0538  0.6730  2.8490
  140MOL   H28845046   7.363   4.508   2.263 -0.4349  0.1623  0.4952
  140MOL   H28945047   7.372   4.357   2.318 -2.5799 -0.1775 -0.2339
  140MOL   C29045048   7.307   4.496   2.483 -0.7898 -0.1132  0.1551
  140MOL   C29145049   7.164   4.544   2.432  0.8137 -0.1565  0.4526
  140MOL   C29245050   7.077   4.466   2.351 -0.8255 -0.1892 -0.2256
  140MOL   C29345051   6.950   4.521   2.316 -0.5381  0.2956 -0.0814
  140MOL   C29445052   6.897   4.638   2.375 -0.4592  0.2100  0.3414
  140MOL  Cl29545053   6.731   4.665   2.352 -0.4431  0.1425  0.0857
  140MOL   C29645054   6.992   4.713   2.462  0.9046 -0.0998 -0.0542
  140MOL   C29745055   7.119   4.666   2.480  0.6202 -0.1171 -0.6905
  140MOL   C29845056   7.296   4.387   2.589 -1.1821 -0.3216  0.0071
  140MOL   H29945057   7.354   4.575   2.542  0.1989 -0.3141 -0.3617
  140MOL   H30045058   7.113   4.373   2.308 -0.3641  0.0352 -0.3248
  140MOL   H30145059   6.884   4.472   2.246  0.9553  0.6170 -1.7534
  140MOL   H30245060   6.959   4.805   2.507  0.3543  1.0047 -2.6332
  140MOL   H30345061   7.193   4.707   2.547  0.2699  0.4356 -0.6406
  140MOL   H30445062   7.212   4.424   2.647 -1.2805  0.2182 -0.4796
  140MOL   H30545063   7.266   4.296   2.537 -0.6769  0.1016 -1.0462
  140MOL   C30645064   7.421   4.357   2.683  0.0151  1.0466 -0.2742
  140MOL   C30745065   7.473   4.476   2.765  0.7199 -0.7159 -0.1741
  140MOL   C30845066   7.611   4.505   2.780  0.1382 -0.1847  0.1396
  140MOL   C30945067   7.653   4.621   2.846 -0.5138 -0.3131  0.2441
  140MOL   C31045068   7.568   4.717   2.897 -0.2483  0.0915 -0.0650
  140MOL  Cl31145069   7.628   4.857   2.977 -0.0884 -0.1346 -0.2345
  140MOL   C31245070   7.430   4.693   2.883  0.5447  0.7221  0.6201
  140MOL   C31345071   7.386   4.574   2.824  0.6584  0.1291  1.3104
  140MOL   C31445072   7.375   4.249   2.779  0.5814  0.4356  0.2015
  140MOL   H31545073   7.507   4.314   2.632 -2.0744 -0.2459 -2.8796
  140MOL   H31645074   7.687   4.436   2.743 -0.8940 -1.2525 -0.0258
  140MOL   H31745075   7.760   4.626   2.861 -0.4171 -0.7794 -0.2669
  140MOL   H31845076   7.354   4.756   2.927  0.6529  1.4715 -0.2507
  140MOL   H31945077   7.280   4.566   2.809  0.8696  1.4044 -1.1152
  140MOL   H32045078   7.365   4.151   2.732  0.1292  1.6908 -2.3900
  140MOL   H32145079   7.450   4.243   2.858  2.5251 -1.2487 -1.7212
  140MOL   H32245080   7.283   4.257   2.836  0.2281 -1.5087 -0.0460
  141MOL     C145081   0.170   3.796   0.597  0.0883  0.0463 -0.7152
  141MOL     C245082   0.193   3.655   0.654  0.4185 -0.2559  1.2422
  141MOL     C345083   0.305   3.625   0.731  0.1605  0.0920  0.0415
  141MOL     C445084   0.324   3.500   0.776  0.1286  0.1502  0.0245
  141MOL     C545085   0.229   3.395   0.747 -0.0861 -0.1729  1.0338
  141MOL    Cl645086   0.258   3.234   0.785  0.1860  0.0631 -0.0499
  141MOL     C745087   0.118   3.423   0.669 -0.4072  1.2804 -0.6068
  141MOL     C845088   0.095   3.557   0.629  0.5766  0.4986 -0.5778
  141MOL     C945089   0.173   3.798   0.446  0.3869 -0.2107  0.5909
  141MOL    H1045090   0.255   3.855   0.631  0.9952 -1.3911 -0.3937
  141MOL    H1145091   0.378   3.704   0.745  0.4593  0.0686 -1.3475
  141MOL    H1245092   0.415   3.466   0.824 -0.1724 -0.7669 -0.0393
  141MOL    H1345093   0.062   3.333   0.644  0.6954 -0.1139  1.7836
  141MOL    H1445094   0.016   3.580   0.559 -0.4757 -0.4419  0.2743
  141MOL    H1545095   0.256   3.732   0.421 -2.0261 -3.0060 -0.2444
  141MOL    H1645096   0.084   3.748   0.409 -0.0223  1.2209 -0.3991
  141MOL    H1745097   0.076   3.834   0.637  0.7290 -1.6610  2.5883
  141MOL    C1845098   0.207   3.930   0.377  0.1061 -0.2108  0.1332
  141MOL    C1945099   0.331   4.005   0.431 -0.3362 -0.3619  0.5499
  141MOL    C2045100   0.460   3.962   0.393 -0.5173 -0.2153  0.8855
  141MOL    C2145101   0.571   4.040   0.432  0.5656 -0.3543  0.4973
  141MOL    C2245102   0.551   4.158   0.504 -0.4634 -0.3692  0.2032
  141MOL   Cl2345103   0.696   4.249   0.553 -0.0238  0.3437 -0.1297
  141MOL    C2445104   0.419   4.209   0.527  0.0119  0.3658 -0.1063
  141MOL    C2545105   0.314   4.122   0.503 -0.0174 -0.1109 -0.4463
  141MOL    C2645106   0.211   3.904   0.223  0.1365 -0.3319 -1.2411
  141MOL    H2745107   0.124   3.993   0.409  0.5420  0.1223  0.6098
  141MOL    H2845108   0.473   3.874   0.332 -2.1137  0.2816 -0.2099
  141MOL    H2945109   0.669   3.999   0.410  0.4754 -0.4130  0.1984
  141MOL    H3045110   0.406   4.304   0.577  0.0514  0.9194 -1.1382
  141MOL    H3145111   0.212   4.143   0.534  0.2956  1.4111 -0.3826
  141MOL    H3245112   0.305   3.867   0.182  0.4469 -0.4987 -0.3869
  141MOL    H3345113   0.144   3.821   0.198 -0.7310  0.1298 -0.4780
  141MOL    C3445114   0.171   4.027   0.143  0.2264 -0.2214 -0.8404
  141MOL    C3545115   0.191   4.012   8.437  0.1029 -0.6772  0.1144
  141MOL    C3645116   0.135   3.903   8.364  0.2296 -0.3320 -0.2757
  141MOL    C3745117   0.145   3.898   8.222 -0.3909  0.0490  0.1201
  141MOL    C3845118   0.216   3.994   8.145  0.3697 -0.2969 -0.1056
  141MOL   Cl3945119   0.211   3.995   7.975 -0.2844 -0.1923  0.1298
  141MOL    C4045120   0.276   4.109   8.216  0.7179  0.4157 -0.1421
  141MOL    C4145121   0.264   4.114   8.360  0.5537 -0.4877 -0.2004
  141MOL    C4245122   0.016   4.057   0.159 -0.7406 -0.1303  0.3851
  141MOL    H4345123   0.236   4.109   0.176  1.5047 -1.6607  0.2674
  141MOL    H4445124   0.080   3.829   8.421  1.3396 -0.0428  1.2025
  141MOL    H4545125   0.094   3.814   8.178  1.4639 -1.6069  1.0568
  141MOL    H4645126   0.334   4.188   8.171  0.0273  0.7051 -0.5458
  141MOL    H4745127   0.306   4.195   8.419 -1.2515  0.2260  0.1463
  141MOL    H4845128   8.403   3.982   0.104 -1.1587  1.3428 -1.2604
  141MOL    H4945129   8.424   4.057   0.262  0.1520  0.7165  0.6969
  141MOL    C5045130   8.396   4.183   0.090 -0.0712  0.0292  0.0962
  141MOL    C5145131   8.246   4.184   0.116 -0.1970  0.1521  0.0756
  141MOL    C5245132   8.196   4.212   0.247 -0.2182 -0.0445  0.3029
  141MOL    C5345133   8.058   4.203   0.267 -0.2750  0.3050 -0.3984
  141MOL    C5445134   7.971   4.163   0.161  0.2028  0.2901 -0.2082
  141MOL   Cl5545135   7.802   4.134   0.180  0.4062 -0.5862 -0.3157
  141MOL    C5645136   8.021   4.130   0.035  0.3939 -0.2918 -0.3225
  141MOL    C5745137   8.162   4.138   0.012  0.4965  0.5058  0.6297
  141MOL    C5845138   0.014   4.319   0.131 -0.1078 -0.3807  0.7417
  141MOL    H5945139   8.418   4.175   8.427  0.6197 -0.5657  0.2791
  141MOL    H6045140   8.255   4.250   0.329 -0.5766  1.3689 -0.0933
  141MOL    H6145141   8.018   4.216   0.366 -1.4545 -0.7596 -0.7114
  141MOL    H6245142   7.953   4.103   8.399 -1.6735  0.7062  1.0637
  141MOL    H6345143   8.208   4.129   8.358  2.4718 -0.2611  1.6229
  141MOL    H6445144   8.396   4.373   0.202 -0.0503  0.0818  0.4432
  141MOL    H6545145   0.115   4.295   0.164 -0.2630 -2.3659 -0.1572
  141MOL    C6645146   0.024   4.422   0.006 -0.2552 -0.0030 -0.2764
  141MOL    C6745147   8.335   4.446   8.381  0.1697  0.1307  0.1801
  141MOL    C6845148   8.317   4.397   8.248  0.3228  0.0362 -0.0955
  141MOL    C6945149   8.186   4.407   8.186 -0.0924  0.9206  0.2244
  141MOL    C7045150   8.078   4.464   8.262 -0.3238  0.1284 -0.4509
  141MOL   Cl7145151   7.920   4.475   8.194 -0.3082 -0.3306  0.2382
  141MOL    C7245152   8.104   4.511   8.390 -0.5727  0.5910 -0.8501
  141MOL    C7345153   8.228   4.509   0.007  0.1640  0.0396  0.5723
  141MOL    C7445154   0.087   4.561   0.034 -0.6869 -0.4069  0.0971
  141MOL    H7545155   0.086   4.379   8.371 -0.4165 -2.0976  0.7128
  141MOL    H7645156   8.401   4.358   8.192 -1.2150 -0.4382 -2.1469
  141MOL    H7745157   8.167   4.379   8.084 -1.5945 -0.5968  0.9007
  141MOL    H7845158   8.019   4.545   0.005 -2.2582 -1.2467 -2.1580
  141MOL    H7945159   8.240   4.542   0.109 -0.0854  1.0456  0.2851
  141MOL    H8045160   0.079   4.631   8.394 -1.8507  0.5429  0.9803
  141MOL    H8145161   0.014   4.611   0.098  0.6588  0.8681  0.6616
  141MOL    C8245162   0.228   4.562   0.098 -0.1525 -0.8589 -0.4989
  141MOL    C8345163   0.333   4.489   0.013 -0.2807  0.1672 -0.7620
  141MOL    C8445164   0.325   4.497   8.313 -0.0431  0.0258 -0.2437
  141MOL    C8545165   0.419   4.435   8.227  0.4120  0.0497 -0.0750
  141MOL    C8645166   0.522   4.367   8.294 -0.4992 -0.5822 -1.1312
  141MOL   Cl8745167   0.646   4.294   8.197  0.1830  0.0071  0.7060
  141MOL    C8845168   0.534   4.368   8.432 -0.3729  0.6340  0.0152
  141MOL    C8945169   0.440   4.427   0.072 -0.1917 -0.6203 -0.3383
  141MOL    C9045170   0.276   4.704   0.143  0.8240 -0.6910  0.1333
  141MOL    H9145171   0.229   4.510   0.194  1.0934 -1.5243 -0.8645
  141MOL    H9245172   0.239   4.551   8.277  1.2214  2.9560  0.9552
  141MOL    H9345173   0.415   4.451   8.120 -1.2214 -0.9338 -0.1743
  141MOL    H9445174   0.621   4.322   0.033 -1.1424 -0.5104  0.3745
  141MOL    H9545175   0.451   4.446   0.178 -1.0225  2.2745 -0.7226
  141MOL    H9645176   0.379   4.685   0.170  1.7314 -0.4104 -2.9312
  141MOL    H9745177   0.277   4.760   0.049  0.7060 -0.4562  0.2700
  141MOL    C9845178   0.205   4.791   0.252  0.3079  0.1647 -0.2347
  141MOL    C9945179   0.192   4.714   0.381  0.8196  0.1268  0.4825
  141MOL   C10045180   0.063   4.694   0.434  0.0372  0.3766  0.7443
  141MOL   C10145181   0.055   4.629   0.562 -0.1415 -1.3550 -0.4190
  141MOL   C10245182   0.172   4.576   0.627  0.3859 -0.0065  0.7030
  141MOL  Cl10345183   0.153   4.481   0.765 -0.1746 -0.2360 -0.2886
  141MOL   C10445184   0.295   4.596   0.565  0.0080 -0.0964  0.1887
  141MOL   C10545185   0.306   4.679   0.450  0.1843  0.1503  0.3784
  141MOL   C10645186   0.274   4.927   0.265 -0.6881 -0.4225  1.1565
  141MOL   H10745187   0.107   4.821   0.215 -0.0444 -1.0325 -0.3000
  141MOL   H10845188   8.411   4.706   0.384  0.6415 -0.0154 -0.5163
  141MOL   H10945189   8.403   4.609   0.611  0.0789  2.5471  1.7750
  141MOL   H11045190   0.391   4.564   0.605  0.3923  0.2586 -0.4424
  141MOL   H11145191   0.407   4.701   0.419 -0.4412  1.2917 -0.8744
  141MOL   H11245192   0.377   4.899   0.287  0.0146  1.7747  0.7996
  141MOL   H11345193   0.282   4.988   0.175  0.5692  1.9758  2.8388
  141MOL   C11445194   0.226   5.020   0.379  0.3169  0.3486 -0.0917
  141MOL   C11545195   0.351   5.107   0.416  0.9050  0.3934 -0.2217
  141MOL   C11645196   0.450   5.039   0.489 -0.9920 -0.2096  0.2308
  141MOL   C11745197   0.564   5.108   0.542  0.1705 -0.6771 -0.3950
  141MOL   C11845198   0.580   5.246   0.512 -1.0420 -0.0123  0.5862
  141MOL  Cl11945199   0.711   5.333   0.585 -0.0822 -0.2105  0.5418
  141MOL   C12045200   0.483   5.314   0.437 -0.7716  0.0439 -1.0857
  141MOL   C12145201   0.365   5.248   0.395 -0.1931  0.8737 -0.6661
  141MOL   C12245202   0.109   5.102   0.336  0.1852  0.3955 -0.2916
  141MOL   H12345203   0.202   4.955   0.463  1.6402 -0.8041 -0.5773
  141MOL   H12445204   0.441   4.935   0.518 -1.6226  0.2675  1.7897
  141MOL   H12545205   0.632   5.067   0.616  0.6104  2.7640  1.2060
  141MOL   H12645206   0.504   5.418   0.415  2.2742 -0.1442  0.6727
  141MOL   H12745207   0.287   5.302   0.343 -0.8919 -0.6202 -1.2006
  141MOL   H12845208   0.131   5.176   0.258  0.6228 -1.2421 -1.7564
  141MOL   H12945209   0.030   5.044   0.288 -0.4318  0.0147  1.1516
  141MOL   C13045210   0.042   5.184   0.457 -0.2443  0.6683 -0.1484
  141MOL   C13145211   8.394   5.294   0.413  1.0373 -0.2841  0.4506
  141MOL   C13245212   8.371   5.412   0.492  0.0658 -0.5910  0.2465
  141MOL   C13345213   8.276   5.504   0.451  0.2192 -0.7684 -0.1611
  141MOL   C13445214   8.190   5.479   0.345  0.0366 -0.3338  0.0111
  141MOL  Cl13545215   8.059   5.583   0.305  0.3660 -0.3029 -0.2552
  141MOL   C13645216   8.204   5.365   0.267  0.3609 -0.0676  0.5119
  141MOL   C13745217   8.314   5.282   0.295 -0.2155  0.2369 -0.3983
  141MOL   C13845218   8.410   5.096   0.553  0.5461 -0.2804 -0.1487
  141MOL   H13945219   0.129   5.234   0.500  0.9510 -0.2886 -1.4162
  141MOL   H14045220   8.432   5.428   0.580  0.0305 -0.1752  0.1971
  141MOL   H14145221   8.261   5.593   0.510  0.9321  0.5861 -1.9737
  141MOL   H14245222   8.132   5.337   0.192  1.5957 -3.2624  0.4567
  141MOL   H14345223   8.322   5.196   0.231 -0.9967 -1.1910  1.3536
  141MOL   H14445224   8.308   5.075   0.521  0.8773  1.0140 -2.2066
  141MOL   H14545225   0.014   4.998   0.546  0.4218 -0.2090 -2.6760
  141MOL   C14645226   8.431   5.140   0.702 -0.1404  0.4431  0.2596
  141MOL   C14745227   8.348   5.050   0.788  0.2240  0.4095 -0.1030
  141MOL   C14845228   8.363   4.909   0.791  0.1715  0.1082  0.0466
  141MOL   C14945229   8.271   4.828   0.863  0.0121  0.2188  0.3757
  141MOL   C15045230   8.164   4.884   0.933 -0.1973 -0.1757 -1.0438
  141MOL  Cl15145231   8.054   4.778   1.015 -0.1257  0.3332  0.0082
  141MOL   C15245232   8.159   5.022   0.946  0.1173  0.0724 -0.2167
  141MOL   C15345233   8.245   5.106   0.869 -0.2983  0.1498 -0.2293
  141MOL   C15445234   0.139   5.151   0.739 -0.1063  0.2445  0.0280
  141MOL   H15545235   8.381   5.236   0.713 -1.2306  0.3806 -3.3707
  141MOL   H15645236   8.432   4.862   0.723  0.9284 -1.3138  1.7617
  141MOL   H15745237   8.283   4.721   0.852  1.5612  0.4190  0.0831
  141MOL   H15845238   8.070   5.063   0.993 -1.3384 -4.8501  1.5799
  141MOL   H15945239   8.220   5.211   0.875 -0.9277 -0.0246  0.2555
  141MOL   H16045240   0.189   5.057   0.715  1.4477  1.0791 -0.1223
  141MOL   H16145241   0.195   5.228   0.685 -1.5695  0.5680 -1.0649
  141MOL   C16245242   0.176   5.159   0.893  0.8768  0.0296  0.1368
  141MOL   C16345243   0.327   5.161   0.925 -0.3372  0.6241  0.1527
  141MOL   C16445244   0.364   5.117   1.054  1.0019 -0.0745 -0.6362
  141MOL   C16545245   0.495   5.123   1.105 -0.1731 -0.9870  0.8401
  141MOL   C16645246   0.589   5.189   1.029 -0.0359  0.6140 -0.3203
  141MOL  Cl16745247   0.745   5.242   1.094 -0.0185 -0.2547 -0.0179
  141MOL   C16845248   0.556   5.226   0.891  0.3677 -0.5385 -0.8617
  141MOL   C16945249   0.423   5.212   0.843  0.0308 -0.1492  0.6487
  141MOL   C17045250   0.099   5.263   0.972  0.0615 -0.0839  0.7646
  141MOL   H17145251   0.144   5.060   0.927  3.1554 -0.7075  0.1932
  141MOL   H17245252   0.293   5.069   1.120 -0.0035  0.5251 -1.2641
  141MOL   H17345253   0.524   5.081   1.200  1.5424 -0.6659  0.4770
  141MOL   H17445254   0.626   5.289   0.837 -2.4050  2.3693 -1.1849
  141MOL   H17545255   0.412   5.260   0.747  0.9275  1.0740  1.1483
  141MOL   H17645256   8.440   5.230   0.990 -0.4978  0.5661 -1.1545
  141MOL   H17745257   0.135   5.272   1.074  0.7413 -0.4811  0.5627
  141MOL   C17845258   0.088   5.399   0.916  0.1006  0.1994  0.2930
  141MOL   C17945259   8.424   5.475   0.992  0.1283  0.0775 -0.8263
  141MOL   C18045260   0.005   5.532   1.118  0.3127 -0.2814 -0.1220
  141MOL   C18145261   8.349   5.597   1.190  0.7769 -0.9639  0.1436
  141MOL   C18245262   8.224   5.617   1.128 -0.2400 -0.2133 -1.4526
  141MOL  Cl18345263   8.111   5.730   1.200  0.1030 -0.0809 -0.5948
  141MOL   C18445264   8.189   5.552   1.008  0.4099 -0.5773 -0.8429
  141MOL   C18545265   8.294   5.483   0.939  0.4809 -0.0008  0.0249
  141MOL   C18645266   0.213   5.493   0.902 -0.0422 -0.5896 -0.6307
  141MOL   H18745267   0.050   5.379   0.816  3.2874 -0.9090 -0.7317
  141MOL   H18845268   0.102   5.519   1.163 -0.5817 -0.3883  1.8127
  141MOL   H18945269   8.372   5.643   1.285 -1.8847  1.3883 -0.2988
  141MOL   H19045270   8.093   5.556   0.958 -1.2417  0.2126  2.2949
  141MOL   H19145271   8.284   5.438   0.841  1.6987 -1.8929  0.7521
  141MOL   H19245272   0.239   5.539   0.997  0.7552 -0.2466 -1.0128
  141MOL   H19345273   0.298   5.426   0.902  0.4000 -0.0354 -0.4664
  141MOL   C19445274   0.204   5.583   0.781 -0.0100 -0.5465  0.2109
  141MOL   C19545275   0.110   5.691   0.817  0.3169  0.2427  0.2379
  141MOL   C19645276   0.141   5.792   0.910  0.0342  0.3585  0.1609
  141MOL   C19745277   0.046   5.898   0.944  0.5095 -0.4131 -0.2891
  141MOL   C19845278   8.362   5.891   0.887  0.4308  0.3509 -0.0155
  141MOL  Cl19945279   8.237   5.986   0.961 -0.3599 -0.5455  0.1518
  141MOL   C20045280   8.332   5.794   0.788  0.4561  0.1473  0.0696
  141MOL   C20145281   8.427   5.697   0.749 -0.5965  0.1419 -0.4726
  141MOL   C20245282   0.339   5.636   0.733 -0.2159 -0.5555  0.3477
  141MOL   H20345283   0.149   5.525   0.707  0.9452 -1.5247  0.2368
  141MOL   H20445284   0.230   5.801   0.971  0.7675  0.5209 -0.9232
  141MOL   H20545285   0.075   5.966   1.023 -1.5424 -0.3583  0.4315
  141MOL   H20645286   8.232   5.784   0.747  0.6691  1.9211 -0.9350
  141MOL   H20745287   8.408   5.630   0.667  0.2348 -0.0543 -0.5166
  141MOL   H20845288   0.382   5.691   0.817 -0.1844 -2.2189  1.4542
  141MOL   H20945289   0.412   5.556   0.718 -1.1807 -1.2309 -0.8351
  141MOL   C21045290   0.339   5.738   0.619  0.4153  0.0860 -0.5689
  141MOL   C21145291   0.473   5.819   0.623  0.0540  0.5143 -0.6207
  141MOL   C21245292   0.591   5.750   0.609 -0.5645 -0.2172  0.3846
  141MOL   C21345293   0.716   5.814   0.618 -0.3230  0.1813  0.7910
  141MOL   C21445294   0.717   5.949   0.645 -0.2201  0.7550  0.1344
  141MOL  Cl21545295   0.866   6.029   0.669  0.2021  0.3150 -0.0375
  141MOL   C21645296   0.599   6.020   0.668 -0.2261  0.5134 -0.4444
  141MOL   C21745297   0.473   5.958   0.656  0.0115  0.4399  0.0937
  141MOL   C21845298   0.309   5.687   0.480  0.2769 -0.5087  0.4430
  141MOL   H21945299   0.265   5.812   0.651  2.1522  1.0314  1.3250
  141MOL   H22045300   0.595   5.651   0.567 -0.0435  0.2143 -0.5876
  141MOL   H22145301   0.809   5.768   0.588 -0.8684 -0.1426 -0.4413
  141MOL   H22245302   0.607   6.125   0.695 -1.6268  1.2052 -2.6382
  141MOL   H22345303   0.382   6.015   0.666 -0.4410 -0.1715 -0.4864
  141MOL   H22445304   0.396   5.636   0.440  0.9176  0.1488  0.9866
  141MOL   H22545305   0.234   5.609   0.499  0.9707 -1.5729 -1.1479
  141MOL   C22645306   0.245   5.784   0.377 -0.3636  0.2654 -0.5329
  141MOL   C22745307   0.255   5.731   0.238 -0.6803  0.2235  1.3110
  141MOL   C22845308   0.345   5.790   0.146  0.0620  0.3754  0.3959
  141MOL   C22945309   0.361   5.740   0.019 -0.8548 -0.1923  0.0363
  141MOL   C23045310   0.295   5.617   8.426  0.7552 -0.3939  0.2489
  141MOL  Cl23145311   0.335   5.525   8.286 -0.0747 -0.1740  0.2117
  141MOL   C23245312   0.209   5.554   0.076 -0.0924 -0.0557  0.1379
  141MOL   C23345313   0.180   5.617   0.200  0.6145 -0.1296 -0.3133
  141MOL   C23445314   0.095   5.820   0.416 -0.2000  0.0487 -0.2097
  141MOL   H23545315   0.308   5.871   0.399 -0.0148 -0.1273  0.0617
  141MOL   H23645316   0.412   5.869   0.178  1.9011 -0.6720 -0.7448
  141MOL   H23745317   0.437   5.776   8.394 -2.2779  0.0332 -1.4453
  141MOL   H23845318   0.170   5.454   0.060 -0.6109  0.2388 -0.4987
  141MOL   H23945319   0.116   5.565   0.269  0.0812  0.6639 -0.2087
  141MOL   H24045320   0.029   5.735   0.396  1.8266 -1.1652 -2.0522
  141MOL   H24145321   0.088   5.833   0.524 -0.8217 -0.1423 -0.2260
  141MOL   C24245322   0.038   5.945   0.359 -0.2700  0.6907 -0.5191
  141MOL   C24345323   8.403   5.918   0.231 -0.3991 -0.0372 -0.0613
  141MOL   C24445324   0.014   5.959   0.107  0.0544  0.3239 -0.1671
  141MOL   C24545325   8.383   5.957   8.429  0.1191 -0.1062 -0.7267
  141MOL   C24645326   8.246   5.910   8.436 -0.3150  0.2611  0.0237
  141MOL  Cl24745327   8.148   5.906   8.299  0.2817 -0.2036  0.5482
  141MOL   C24845328   8.193   5.866   0.115 -0.2820  1.0290 -0.9900
  141MOL   C24945329   8.269   5.873   0.235  0.9074  0.1270 -0.4670
  141MOL   C25045330   8.401   6.025   0.467 -0.2974  0.5450  0.5251
  141MOL   H25145331   0.127   6.005   0.342  0.7653 -1.2467 -2.1381
  141MOL   H25245332   0.115   5.995   0.104  1.1073 -2.1524  2.9290
  141MOL   H25345333   8.428   5.997   8.339  1.5403 -2.3897 -1.0753
  141MOL   H25445334   8.090   5.836   0.108  0.4578 -1.4972 -1.6734
  141MOL   H25545335   8.211   5.834   0.318  0.0370  1.3229 -0.5170
  141MOL   H25645336   8.317   5.961   0.494 -0.3645  0.2246 -0.4252
  141MOL   H25745337   0.018   6.034   0.558 -1.0104 -0.3631  1.0976
  141MOL   C25845338   8.357   6.163   0.431  0.5599 -0.4746 -0.3940
  141MOL   C25945339   8.253   6.215   0.529  0.3145  0.5010 -0.4039
  141MOL   C26045340   8.294   6.243   0.659 -0.1440 -0.4531  0.1282
  141MOL   C26145341   8.201   6.283   0.757 -0.4784  0.7335 -0.1467
  141MOL   C26245342   8.067   6.293   0.727  0.6889 -0.4415 -0.0314
  141MOL  Cl26345343   7.956   6.337   0.852  0.3222 -0.2596  0.1517
  141MOL   C26445344   8.023   6.257   0.597  0.2802 -0.1365 -0.2491
  141MOL   C26545345   8.113   6.216   0.498  0.0609  0.0112  0.3341
  141MOL   C26645346   0.024   6.265   0.397 -0.1944  1.0456  0.1241
  141MOL   H26745347   8.308   6.146   0.335  1.2690 -1.0095 -0.6641
  141MOL   H26845348   8.399   6.224   0.676 -0.0290 -0.1813 -0.2634
  141MOL   H26945349   8.236   6.303   0.857 -0.0836 -0.5435 -0.0140
  141MOL   H27045350   7.917   6.246   0.579 -0.0406 -1.7226  2.3276
  141MOL   H27145351   8.071   6.173   0.408  2.2100 -2.6223  0.5320
  141MOL   H27245352   0.091   6.274   0.482 -0.7011 -2.7386  1.0367
  141MOL   H27345353   0.087   6.227   0.316  0.4435 -0.2693  1.2124
  141MOL   C27445354   8.432   6.408   0.366 -0.3847  0.0486  0.2198
  141MOL   C27545355   0.104   6.499   0.372  0.0085 -0.5038 -0.1595
  141MOL   C27645356   0.200   6.483   0.272 -0.1160  0.5149  0.3461
  141MOL   C27745357   0.308   6.568   0.273 -0.5174  0.2158 -1.0384
  141MOL   C27845358   0.312   6.679   0.361 -0.3919  0.7769  0.3788
  141MOL  Cl27945359   0.450   6.781   0.366 -0.1280 -0.6214 -0.0379
  141MOL   C28045360   0.212   6.705   0.456 -0.1583  0.2858  0.4773
  141MOL   C28145361   0.112   6.606   0.463 -0.3523  0.2452 -0.6429
  141MOL   C28245362   8.356   6.431   0.234 -0.4586  0.0633 -0.2433
  141MOL   H28345363   8.364   6.438   0.446 -0.1953 -0.3525  0.5349
  141MOL   H28445364   0.194   6.406   0.197 -0.9063 -1.6709  2.6013
  141MOL   H28545365   0.388   6.544   0.205  0.0033  1.0879 -0.7365
  141MOL   H28645366   0.219   6.792   0.519 -1.4229 -0.6589  1.9635
  141MOL   H28745367   0.044   6.613   0.548 -1.6412 -0.6612 -1.5756
  141MOL   H28845368   8.424   6.394   0.158 -0.6149 -1.1606  0.2000
  141MOL   H28945369   8.274   6.359   0.230  1.7676 -2.8195  3.0142
  141MOL   C29045370   8.297   6.574   0.218 -0.4334  0.0848 -0.4393
  141MOL   C29145371   8.334   6.648   0.094 -0.3118  0.0862  0.1782
  141MOL   C29245372   8.364   6.580   8.420  0.2520  0.6619 -0.3169
  141MOL   C29345373   8.424   6.650   8.308 -0.7121 -0.1626 -0.3382
  141MOL   C29445374   0.022   6.786   8.323  0.1483  0.8828 -0.4703
  141MOL  Cl29545375   0.114   6.862   8.191 -0.2804  0.2445  0.4012
  141MOL   C29645376   8.431   6.850   0.002 -0.4291  0.4831  0.2759
  141MOL   C29745377   8.375   6.781   0.108  0.3621 -0.0408 -0.7084
  141MOL   C29845378   8.144   6.574   0.230 -1.1870  0.3259  0.1605
  141MOL   H29945379   8.332   6.631   0.303 -2.3427  0.8104 -0.1076
  141MOL   H30045380   8.344   6.474   8.411 -0.2154  0.2542  4.4590
  141MOL   H30145381   0.015   6.597   8.221 -0.9740 -0.3776 -0.3101
  141MOL   H30245382   0.012   6.955   0.008  1.5940  0.0871 -0.6126
  141MOL   H30345383   8.351   6.833   0.200  0.0097 -2.1592  0.4202
  141MOL   H30445384   8.112   6.667   0.184  1.8433  2.6477  2.5329
  141MOL   H30545385   8.109   6.504   0.153 -0.3780 -0.4192  0.4509
  141MOL   C30645386   8.092   6.557   0.373 -0.0232  0.3027  0.1750
  141MOL   C30745387   8.148   6.668   0.465 -0.0822 -0.3596 -0.2446
  141MOL   C30845388   8.161   6.803   0.417 -0.0794  0.5257  0.0174
  141MOL   C30945389   8.218   6.900   0.494  0.5808  0.1645 -0.5526
  141MOL   C31045390   8.278   6.858   0.615 -0.0434 -0.7882  0.2078
  141MOL  Cl31145391   8.323   6.979   0.734 -0.0306 -0.0531 -0.1467
  141MOL   C31245392   8.273   6.725   0.661 -0.7092  0.3758  0.0251
  141MOL   C31345393   8.202   6.628   0.588  0.4233 -0.0104 -0.1021
  141MOL   C31445394   7.941   6.535   0.365  0.5958 -0.0590 -0.1685
  141MOL   H31545395   8.132   6.462   0.408  0.6066  0.9397  1.2138
  141MOL   H31645396   8.126   6.821   0.317 -0.4640  0.5914  0.1603
  141MOL   H31745397   8.240   6.997   0.452  2.0670 -0.0208 -0.2548
  141MOL   H31845398   8.312   6.703   0.759  0.1917  1.6345 -0.0386
  141MOL   H31945399   8.199   6.526   0.621  0.8150 -0.2806 -0.8765
  141MOL   H32045400   7.897   6.541   0.465 -0.0375  0.6527 -0.4834
  141MOL   H32145401   7.898   6.608   0.296 -2.0428 -1.8584 -0.4963
  141MOL   H32245402   7.923   6.438   0.319 -2.2282 -0.6328  1.9779
  142MOL     C145403   1.544   6.639   4.279 -0.0882  0.0460 -0.7039
  142MOL     C245404   1.464   6.726   4.373 -0.1450  0.0330  0.5533
  142MOL     C345405   1.328   6.695   4.416 -0.8680 -0.8527  0.0359
  142MOL     C445406   1.262   6.795   4.490 -0.3748 -0.5120  0.6308
  142MOL     C545407   1.326   6.919   4.527  0.1000  0.0900  0.2350
  142MOL    Cl645408   1.238   7.042   4.608 -0.5528 -0.0848  0.2561
  142MOL     C745409   1.457   6.938   4.487  0.5786 -0.7190 -0.2245
  142MOL     C845410   1.526   6.850   4.406  0.1378 -0.4981  0.0216
  142MOL     C945411   1.648   6.548   4.349  0.5007 -0.1444 -0.4856
  142MOL    H1045412   1.600   6.707   4.214  0.3797 -0.0314 -0.3876
  142MOL    H1145413   1.269   6.613   4.378 -2.1090 -0.3088  0.7655
  142MOL    H1245414   1.165   6.772   4.529 -0.2208 -0.2327  1.1759
  142MOL    H1345415   1.496   7.037   4.507  0.1588 -0.5502 -0.2239
  142MOL    H1445416   1.632   6.870   4.395  0.1690 -0.2062  0.8382
  142MOL    H1545417   1.712   6.601   4.419  0.9511 -2.1224  0.6513
  142MOL    H1645418   1.594   6.465   4.395  0.5681  0.7604  1.2659
  142MOL    H1745419   1.478   6.579   4.217  1.8393 -2.2182 -0.6613
  142MOL    C1845420   1.748   6.481   4.250 -0.4510 -0.5235 -0.2943
  142MOL    C1945421   1.685   6.360   4.188 -0.0274  0.0517  0.0137
  142MOL    C2045422   1.720   6.232   4.233  0.1377  0.1689  0.7734
  142MOL    C2145423   1.665   6.118   4.178  0.7856 -0.1253  0.2561
  142MOL    C2245424   1.562   6.136   4.074  1.0635  0.2810  0.0257
  142MOL   Cl2345425   1.479   6.002   4.003  0.1275  0.0018  0.2201
  142MOL    C2445426   1.522   6.266   4.036  0.1404 -0.5581 -0.2881
  142MOL    C2545427   1.587   6.375   4.090 -0.3926 -0.4013 -0.3075
  142MOL    C2645428   1.822   6.574   4.148 -0.1593 -0.0501 -0.0036
  142MOL    H2745429   1.824   6.438   4.315 -0.0495 -0.5265 -0.7685
  142MOL    H2845430   1.801   6.215   4.303  1.0295 -2.4025 -0.7823
  142MOL    H2945431   1.690   6.021   4.219 -2.3235 -0.7556  0.8498
  142MOL    H3045432   1.443   6.279   3.964  1.5557 -0.6450 -1.8875
  142MOL    H3145433   1.572   6.477   4.056 -0.8618 -0.1849  0.5341
  142MOL    H3245434   1.754   6.623   4.078 -0.3781 -0.4045 -0.0398
  142MOL    H3345435   1.853   6.663   4.201 -1.9473  0.4736  0.1899
  142MOL    C3445436   1.950   6.514   4.075 -0.2563  0.0411  0.3798
  142MOL    C3545437   1.990   6.594   3.948  0.4119 -0.1531  0.1511
  142MOL    C3645438   2.037   6.727   3.943 -0.7036 -0.2548  0.1926
  142MOL    C3745439   2.066   6.796   3.819  0.0948  0.1770 -0.5845
  142MOL    C3845440   2.046   6.734   3.701 -0.1561  0.3137  0.2069
  142MOL   Cl3945441   2.081   6.823   3.562 -0.0435 -0.3612 -0.2061
  142MOL    C4045442   2.005   6.602   3.700  0.5498  0.2365 -0.5169
  142MOL    C4145443   1.970   6.537   3.820  0.0250 -0.3253 -0.6075
  142MOL    C4245444   2.066   6.517   4.177  0.0195 -0.0401  0.1070
  142MOL    H4345445   1.923   6.412   4.048  0.0702 -0.2508  1.1685
  142MOL    H4445446   2.041   6.783   4.035 -0.9136  0.2149 -0.0842
  142MOL    H4545447   2.083   6.903   3.822 -1.5810  0.4754 -0.9448
  142MOL    H4645448   1.988   6.554   3.604  1.3746  0.4024 -0.7490
  142MOL    H4745449   1.934   6.436   3.803  1.7977 -0.4309 -4.4024
  142MOL    H4845450   2.114   6.613   4.160  0.2168 -0.6569 -3.0035
  142MOL    H4945451   2.011   6.526   4.271  1.8460  1.4383  1.0772
  142MOL    C5045452   2.175   6.405   4.168 -0.4726  0.2267  0.5120
  142MOL    C5145453   2.123   6.266   4.202 -0.1219 -0.5314 -0.0155
  142MOL    C5245454   2.059   6.191   4.104  0.4163  0.4251 -1.1828
  142MOL    C5345455   2.024   6.058   4.146  0.0935  0.0088  0.2100
  142MOL    C5445456   2.058   6.009   4.269 -0.7267 -0.0085  0.1665
  142MOL   Cl5545457   2.020   5.845   4.314 -0.0086  0.0100 -0.5332
  142MOL    C5645458   2.135   6.084   4.359 -0.4595  0.2297 -0.1238
  142MOL    C5745459   2.175   6.211   4.321  0.0112  0.0218 -0.3145
  142MOL    C5845460   2.244   6.407   4.027 -0.0033 -0.6912 -0.0475
  142MOL    H5945461   2.252   6.437   4.238  0.1608 -1.1017  0.4422
  142MOL    H6045462   2.030   6.220   4.004  2.5320  0.8639 -1.6931
  142MOL    H6145463   1.970   5.994   4.078 -0.8012  0.3873  0.5545
  142MOL    H6245464   2.175   6.038   4.448 -1.4527 -1.7118 -0.6685
  142MOL    H6345465   2.241   6.265   4.388  1.9925 -1.3609 -1.0866
  142MOL    H6445466   2.171   6.381   3.950 -0.3924  1.1967 -0.3327
  142MOL    H6545467   2.279   6.507   4.000  0.6464 -0.9353 -0.1329
  142MOL    C6645468   2.362   6.309   4.003  0.3106 -0.3854  0.5691
  142MOL    C6745469   2.334   6.210   3.891  0.0645  0.2662  0.2167
  142MOL    C6845470   2.292   6.263   3.769  0.2098 -0.6126 -0.2379
  142MOL    C6945471   2.262   6.170   3.668  0.0898 -0.3823 -0.2223
  142MOL    C7045472   2.276   6.031   3.691 -0.5546  0.1484  0.1741
  142MOL   Cl7145473   2.260   5.914   3.561  0.0476 -0.2058  0.0830
  142MOL    C7245474   2.323   5.980   3.815  0.5111  0.0928 -0.5078
  142MOL    C7345475   2.345   6.072   3.917 -1.1878  0.6990  0.2432
  142MOL    C7445476   2.500   6.381   3.987 -0.8403 -0.2312 -0.1099
  142MOL    H7545477   2.359   6.238   4.086  0.5820 -0.1267  0.7986
  142MOL    H7645478   2.276   6.367   3.743 -1.2100 -0.9626 -0.8200
  142MOL    H7745479   2.234   6.219   3.576 -1.0492  2.1827  1.4326
  142MOL    H7845480   2.325   5.872   3.820 -2.9812 -0.1167 -2.4490
  142MOL    H7945481   2.384   6.038   4.013  1.1152 -0.3854 -1.0262
  142MOL    H8045482   2.559   6.296   3.954 -3.6989 -1.3381 -2.6069
  142MOL    H8145483   2.493   6.446   3.900 -3.6213 -1.3403 -0.7570
  142MOL    C8245484   2.574   6.439   4.112 -0.2424  0.6027 -0.8397
  142MOL    C8345485   2.595   6.331   4.215  0.3675  0.0136  0.7660
  142MOL    C8445486   2.679   6.221   4.193  0.1771 -0.0248  0.6799
  142MOL    C8545487   2.700   6.130   4.297 -0.3119 -0.5456  0.5820
  142MOL    C8645488   2.634   6.140   4.421  0.0517 -0.4138 -0.2535
  142MOL   Cl8745489   2.655   6.025   4.549 -0.0212 -0.4527 -0.0814
  142MOL    C8845490   2.550   6.251   4.436 -0.0955  0.5670  0.1853
  142MOL    C8945491   2.532   6.350   4.337 -0.3352 -0.7139 -0.1264
  142MOL    C9045492   2.721   6.498   4.078 -0.1439  0.0180  1.2249
  142MOL    H9145493   2.513   6.515   4.161 -0.8582 -0.4049 -0.0474
  142MOL    H9245494   2.719   6.193   4.097  0.0112  1.3364  0.2003
  142MOL    H9345495   2.753   6.041   4.266  0.8619  0.8273 -1.4653
  142MOL    H9445496   2.494   6.250   4.528 -1.2485 -0.3890 -0.5201
  142MOL    H9545497   2.459   6.427   4.357 -1.5068 -1.7557 -0.3337
  142MOL    H9645498   2.771   6.516   4.174  3.4093 -0.7696 -0.4236
  142MOL    H9745499   2.776   6.423   4.023 -0.9103  1.7670 -2.0627
  142MOL    C9845500   2.720   6.619   3.976 -0.7909 -0.2734 -0.0746
  142MOL    C9945501   2.657   6.742   4.039 -0.2519 -0.2235  0.1583
  142MOL   C10045502   2.543   6.812   3.986  0.2214  0.0774 -0.4762
  142MOL   C10145503   2.499   6.935   4.042  0.1185  0.0833  0.4823
  142MOL   C10245504   2.563   6.997   4.154 -0.5937  1.0590  0.4157
  142MOL  Cl10345505   2.513   7.149   4.218  0.2390 -0.1345  0.1286
  142MOL   C10445506   2.673   6.925   4.206  0.4626 -0.6564  0.8133
  142MOL   C10545507   2.718   6.801   4.153  0.1269 -0.2903 -0.0563
  142MOL   C10645508   2.864   6.643   3.923 -0.2881  0.0750 -0.8579
  142MOL   H10745509   2.663   6.605   3.884 -0.2123  2.4421 -0.8736
  142MOL   H10845510   2.497   6.779   3.893 -2.3002  1.0864  0.3621
  142MOL   H10945511   2.423   6.985   3.984  0.8937  0.0992 -0.5176
  142MOL   H11045512   2.711   6.955   4.303 -1.5615  1.6611  0.9421
  142MOL   H11145513   2.798   6.745   4.198 -1.4473 -0.7113  2.3113
  142MOL   H11245514   2.925   6.662   4.012 -1.0610 -1.6541  0.0751
  142MOL   H11345515   2.900   6.553   3.874 -1.7232 -2.5262  2.6161
  142MOL   C11445516   2.882   6.760   3.820 -1.0448 -0.9461  0.1525
  142MOL   C11545517   3.029   6.802   3.809  0.3606  0.1002  0.0032
  142MOL   C11645518   3.073   6.936   3.829 -0.0631  0.1963 -0.1248
  142MOL   C11745519   3.208   6.970   3.829 -0.1582  0.0746  0.2306
  142MOL   C11845520   3.309   6.869   3.810  0.3186  0.5145 -0.4230
  142MOL  Cl11945521   3.476   6.919   3.809  0.2208  0.0239  0.1821
  142MOL   C12045522   3.266   6.739   3.792  0.0056 -0.2664 -0.8777
  142MOL   C12145523   3.132   6.703   3.790 -0.3041  0.3865  0.5178
  142MOL   C12245524   2.807   6.758   3.684 -0.1320 -0.2075  0.4157
  142MOL   H12345525   2.844   6.848   3.870 -0.6234 -0.5870 -0.1527
  142MOL   H12445526   2.998   7.012   3.847  2.5375  2.6001  0.8763
  142MOL   H12545527   3.240   7.071   3.847 -0.8352  0.4672 -0.7486
  142MOL   H12645528   3.343   6.664   3.784  1.4003  1.1878 -1.0477
  142MOL   H12745529   3.110   6.598   3.779  0.0101  0.5297 -1.7723
  142MOL   H12845530   2.703   6.741   3.713 -0.1952 -0.6010 -0.0441
  142MOL   H12945531   2.807   6.854   3.632  2.3445 -1.9229 -2.8896
  142MOL   C13045532   2.845   6.641   3.586  0.5081 -0.1998  0.0292
  142MOL   C13145533   2.808   6.501   3.628  0.4610 -0.5322  0.6827
  142MOL   C13245534   2.673   6.458   3.640 -0.5811 -0.1740 -0.7390
  142MOL   C13345535   2.654   6.324   3.682 -0.4217 -0.1270 -0.5485
  142MOL   C13445536   2.757   6.231   3.692  0.0835 -0.2840 -0.0917
  142MOL  Cl13545537   2.720   6.067   3.741  0.1019 -0.2049 -0.2090
  142MOL   C13645538   2.890   6.269   3.667  0.0710 -0.2711  0.4075
  142MOL   C13745539   2.911   6.407   3.641 -0.3249  0.6558  0.1185
  142MOL   C13845540   2.810   6.669   3.437 -0.3163 -0.0987  0.4827
  142MOL   H13945541   2.953   6.647   3.576  0.7701 -1.4967  1.8998
  142MOL   H14045542   2.586   6.523   3.637 -0.5213 -0.1298 -1.5661
  142MOL   H14145543   2.550   6.300   3.700 -0.6110  1.3419  0.3512
  142MOL   H14245544   2.970   6.198   3.653 -0.8017 -1.0100 -0.9919
  142MOL   H14345545   3.011   6.441   3.621 -0.6139  1.6488  0.3073
  142MOL   H14445546   2.703   6.656   3.429 -0.5076  1.6421  0.0087
  142MOL   H14545547   2.822   6.776   3.415  0.5039 -0.1517  0.6325
  142MOL   C14645548   2.897   6.595   3.323 -0.0656  0.3506  0.0248
  142MOL   C14745549   2.887   6.447   3.322 -0.2069  0.6760  0.1546
  142MOL   C14845550   2.999   6.361   3.328  1.1319  0.1023 -0.1154
  142MOL   C14945551   2.988   6.222   3.335 -0.1508 -0.3790 -1.0681
  142MOL   C15045552   2.858   6.163   3.334  0.5234 -0.5438  0.0261
  142MOL  Cl15145553   2.840   5.989   3.369 -0.4204  0.1368  0.2568
  142MOL   C15245554   2.745   6.243   3.321 -0.0584 -0.1472  0.0661
  142MOL   C15345555   2.760   6.386   3.320 -0.3741  0.4191 -0.1395
  142MOL   C15445556   2.873   6.660   3.181  0.1856 -0.1529  0.1216
  142MOL   H15545557   3.003   6.607   3.346  0.2867 -1.5896 -0.4802
  142MOL   H15645558   3.100   6.400   3.323  2.0577 -2.1143  0.7491
  142MOL   H15745559   3.083   6.171   3.335  0.6509  1.0779 -0.9608
  142MOL   H15845560   2.651   6.189   3.321  0.3568 -0.8779 -0.3193
  142MOL   H15945561   2.677   6.456   3.328 -1.7277 -1.2475  0.7677
  142MOL   H16045562   2.779   6.628   3.136  0.2901 -0.2790 -0.0085
  142MOL   H16145563   2.879   6.768   3.192  2.4051 -0.2029 -0.3790
  142MOL   C16245564   2.980   6.612   3.075 -0.1946  0.6854  0.0349
  142MOL   C16345565   2.909   6.589   2.938 -0.3033  0.1286 -0.7343
  142MOL   C16445566   2.832   6.689   2.880 -0.5788 -0.1182  0.0760
  142MOL   C16545567   2.774   6.674   2.752  0.0577 -0.6142 -0.2252
  142MOL   C16645568   2.768   6.541   2.699  0.8606  0.1829 -0.3864
  142MOL  Cl16745569   2.679   6.518   2.554 -0.5165  0.1324  0.1382
  142MOL   C16845570   2.836   6.434   2.767 -0.7788  0.0451  0.6559
  142MOL   C16945571   2.906   6.459   2.885  0.0053  0.2376  0.5607
  142MOL   C17045572   3.098   6.717   3.077  0.2587  0.5335 -0.3115
  142MOL   H17145573   3.017   6.517   3.113 -3.3023 -0.0531  1.3904
  142MOL   H17245574   2.825   6.786   2.926 -0.3510 -0.6217  1.1989
  142MOL   H17345575   2.724   6.757   2.705  2.1254  0.3701 -0.7431
  142MOL   H17445576   2.838   6.334   2.727  0.6338  0.6458 -0.8480
  142MOL   H17545577   2.962   6.381   2.933  1.3990  0.0559 -1.3290
  142MOL   H17645578   3.050   6.812   3.058 -2.8604 -1.2699 -1.8288
  142MOL   H17745579   3.127   6.718   3.182 -1.7358 -0.9969  0.2872
  142MOL   C17845580   3.219   6.680   2.987  0.2964 -0.8082  0.8063
  142MOL   C17945581   3.182   6.697   2.839  0.3645 -0.5133  0.0687
  142MOL   C18045582   3.200   6.594   2.750 -0.7730 -0.0512 -0.1212
  142MOL   C18145583   3.164   6.600   2.618 -0.4447  0.1888  0.4855
  142MOL   C18245584   3.114   6.721   2.572  0.4025  0.5632  0.4083
  142MOL  Cl18345585   3.053   6.720   2.410 -0.0471 -0.2419 -0.0431
  142MOL   C18445586   3.097   6.830   2.658  0.5160  0.6702  0.3681
  142MOL   C18545587   3.131   6.813   2.789 -0.2916  0.0435  0.2322
  142MOL   C18645588   3.354   6.758   3.013  0.5687  0.3188  0.4159
  142MOL   H18745589   3.245   6.574   2.989  1.5414 -0.5934 -1.5843
  142MOL   H18845590   3.235   6.497   2.784  0.7277  0.7532  0.6809
  142MOL   H18945591   3.173   6.517   2.550 -0.9629  0.9378 -0.5175
  142MOL   H19045592   3.054   6.922   2.623 -2.1626 -0.4526  0.6028
  142MOL   H19145593   3.102   6.898   2.849 -1.4498 -0.3583  0.2458
  142MOL   H19245594   3.429   6.733   2.939 -0.1926 -2.6079  0.5613
  142MOL   H19345595   3.325   6.862   2.997 -1.7567  0.1587  3.2565
  142MOL   C19445596   3.422   6.730   3.146 -0.5386 -0.1917 -1.1776
  142MOL   C19545597   3.467   6.586   3.165 -0.3202 -0.2370  0.7532
  142MOL   C19645598   3.562   6.528   3.074  0.0079  0.3093  0.4192
  142MOL   C19745599   3.598   6.392   3.089 -0.5403  0.4941  0.4147
  142MOL   C19845600   3.533   6.314   3.189 -0.1579 -0.9645 -0.2075
  142MOL  Cl19945601   3.575   6.150   3.207  0.0396  0.4443 -0.2674
  142MOL   C20045602   3.432   6.370   3.273  0.4928 -0.2246 -0.0009
  142MOL   C20145603   3.406   6.506   3.265 -0.2918 -0.2201  0.3654
  142MOL   C20245604   3.540   6.820   3.162 -1.0780  0.0880 -0.5338
  142MOL   H20345605   3.356   6.742   3.232  1.2782  2.8711 -0.1551
  142MOL   H20445606   3.602   6.585   2.992  0.4723 -1.2811 -0.4897
  142MOL   H20545607   3.665   6.348   3.017 -0.6767 -0.6127  0.9524
  142MOL   H20645608   3.371   6.313   3.342 -2.2236  0.5866 -1.6605
  142MOL   H20745609   3.337   6.549   3.337 -0.9171 -0.3727 -0.1383
  142MOL   H20845610   3.584   6.800   3.260  1.7954  1.1860 -1.5388
  142MOL   H20945611   3.620   6.798   3.091  0.1526 -0.2745  0.9477
  142MOL   C21045612   3.503   6.975   3.170  0.6464  0.0286  0.1804
  142MOL   C21145613   3.374   6.991   3.250  0.4181  0.0801 -0.4771
  142MOL   C21245614   3.364   6.955   3.390  0.3224 -0.3008 -0.1329
  142MOL   C21345615   3.241   6.961   3.462 -0.0896  0.6099  0.0501
  142MOL   C21445616   3.127   7.006   3.389  0.3989  0.6544  0.8330
  142MOL  Cl21545617   2.972   6.985   3.468 -0.0731 -0.0481 -0.0260
  142MOL   C21645618   3.135   7.048   3.253 -0.5339 -0.1231  0.7425
  142MOL   C21745619   3.258   7.042   3.192  0.0379 -0.7971  0.6043
  142MOL   C21845620   3.619   7.066   3.218 -0.4056  0.5279 -0.5846
  142MOL   H21945621   3.473   6.996   3.067  1.3783 -1.6074 -0.3810
  142MOL   H22045622   3.451   6.909   3.436  3.2085  1.6840 -3.3512
  142MOL   H22145623   3.216   6.920   3.559 -2.4168  0.5793 -0.5446
  142MOL   H22245624   3.041   7.069   3.203  0.0547  3.6339  1.0379
  142MOL   H22345625   3.261   7.077   3.090  0.0948 -0.1535  0.8266
  142MOL   H22445626   3.580   7.156   3.264 -0.6407  0.6937 -1.1056
  142MOL   H22545627   3.683   7.031   3.300 -0.0620  2.9368  0.2081
  142MOL   C22645628   3.716   7.129   3.107 -0.0133 -0.2987  0.3378
  142MOL   C22745629   3.791   7.254   3.159 -0.2018  0.1040  0.4140
  142MOL   C22845630   3.782   7.292   3.294 -0.0826 -0.7242 -0.5964
  142MOL   C22945631   3.832   7.417   3.339  0.3105  0.1203 -0.1851
  142MOL   C23045632   3.882   7.508   3.245  0.1396  0.4511 -0.1506
  142MOL  Cl23145633   3.938   7.663   3.299 -0.3023 -0.2468  0.1825
  142MOL   C23245634   3.888   7.472   3.108 -0.2364 -0.0952 -0.3674
  142MOL   C23345635   3.846   7.348   3.068 -0.4343 -0.8098  0.1479
  142MOL   C23445636   3.798   7.029   3.032 -0.5205 -0.0419  0.4438
  142MOL   H23545637   3.643   7.167   3.036 -0.5745 -1.8153  0.0829
  142MOL   H23645638   3.745   7.229   3.374 -0.7815  1.3071  0.7349
  142MOL   H23745639   3.841   7.437   3.444  2.8421  1.1186 -0.5432
  142MOL   H23845640   3.942   7.535   3.038 -0.9479  0.8370 -0.0992
  142MOL   H23945641   3.854   7.327   2.962 -2.2803 -2.2192  0.2640
  142MOL   H24045642   3.738   6.958   2.974 -2.2198  3.6452 -2.5302
  142MOL   H24145643   3.838   7.100   2.960 -3.4491  0.9859 -0.2354
  142MOL   C24245644   3.907   6.966   3.120  0.4057 -0.1400 -0.8886
  142MOL   C24345645   3.910   6.818   3.098 -0.1661 -0.5811 -0.8558
  142MOL   C24445646   3.948   6.771   2.971  0.4392 -0.3361  1.5271
  142MOL   C24545647   3.959   6.635   2.953  0.3915  0.7769  0.1488
  142MOL   C24645648   3.947   6.544   3.060  0.1106  0.0240 -0.5178
  142MOL  Cl24745649   3.971   6.377   3.029 -0.1848  0.0271  0.1209
  142MOL   C24845650   3.894   6.588   3.182  0.2523  0.0763  0.6218
  142MOL   C24945651   3.877   6.730   3.205  0.6167 -0.0357  0.3318
  142MOL   C25045652   4.044   7.036   3.090 -0.2696 -0.0151 -0.0601
  142MOL   H25145653   3.889   6.973   3.228  2.8172 -2.1029 -0.3213
  142MOL   H25245654   3.962   6.834   2.884 -1.2659 -0.4886  1.1397
  142MOL   H25345655   3.986   6.591   2.858 -0.5031 -1.2131  0.7883
  142MOL   H25445656   3.863   6.517   3.256 -0.1218  0.9964  1.3611
  142MOL   H25545657   3.839   6.765   3.299 -0.5399  3.8491 -1.4908
  142MOL   H25645658   4.084   6.982   3.004  0.3050 -1.3866  1.0407
  142MOL   H25745659   4.042   7.137   3.050  0.0186 -0.2184 -0.5973
  142MOL   C25845660   4.152   7.024   3.198 -0.8192 -0.4914  0.2664
  142MOL   C25945661   4.296   7.065   3.146  0.2325  0.7687 -0.7652
  142MOL   C26045662   4.329   7.184   3.078  0.4565  0.3247 -0.1865
  142MOL   C26145663   4.460   7.210   3.038 -0.0259  0.3584 -0.1536
  142MOL   C26245664   4.565   7.123   3.078 -0.2839  0.3294 -0.3940
  142MOL  Cl26345665   4.734   7.150   3.025  0.3124  0.2284  0.3889
  142MOL   C26445666   4.533   6.999   3.142 -0.3072 -0.3580 -0.7209
  142MOL   C26545667   4.403   6.975   3.171  0.2723 -0.2504 -0.2607
  142MOL   C26645668   4.105   7.130   3.307 -0.6004  0.3154  0.5721
  142MOL   H26745669   4.162   6.924   3.239  2.0007  0.5845  2.3225
  142MOL   H26845670   4.258   7.260   3.050 -0.7059 -1.5363 -2.4358
  142MOL   H26945671   4.485   7.294   2.975  0.4021  0.5296  0.2328
  142MOL   H27045672   4.615   6.936   3.171  0.5178  0.4477 -1.2486
  142MOL   H27145673   4.382   6.885   3.228  1.5804 -0.1086  0.4662
  142MOL   H27245674   4.121   7.233   3.276  0.1234  0.4501  1.3689
  142MOL   H27345675   3.996   7.122   3.315 -0.5949 -1.1277 -0.6526
  142MOL   C27445676   4.165   7.114   3.450  0.3054 -0.0901 -0.0940
  142MOL   C27545677   4.320   7.111   3.474  0.9065  0.2424 -0.2154
  142MOL   C27645678   4.377   7.005   3.559  0.2563 -0.0303  0.4578
  142MOL   C27745679   4.514   7.005   3.596 -0.0351  0.0340 -0.1051
  142MOL   C27845680   4.603   7.087   3.524  0.2349 -0.3830 -0.8503
  142MOL  Cl27945681   4.774   7.068   3.544  0.0404 -0.0943  0.2608
  142MOL   C28045682   4.551   7.184   3.439 -0.4578 -0.1586 -0.6755
  142MOL   C28145683   4.410   7.206   3.423 -0.3075 -0.4559  0.3153
  142MOL   C28245684   4.089   7.214   3.547 -0.1797  0.4778 -0.2433
  142MOL   H28345685   4.136   7.011   3.471 -0.8775  0.6630  2.1434
  142MOL   H28445686   4.314   6.938   3.615 -0.7449 -0.5940 -1.3103
  142MOL   H28545687   4.539   6.930   3.669  1.3099  2.6304  2.1807
  142MOL   H28645688   4.622   7.252   3.395 -1.6601  1.8412  0.4377
  142MOL   H28745689   4.366   7.290   3.371  0.7007  0.7519  1.3858
  142MOL   H28845690   4.159   7.215   3.630 -0.6436  0.9043  0.1427
  142MOL   H28945691   4.085   7.316   3.508 -0.1753  0.2884 -0.7474
  142MOL   C29045692   3.956   7.179   3.613  0.5916  0.6810  0.2264
  142MOL   C29145693   3.951   7.032   3.666  0.7255 -1.3385 -0.2352
  142MOL   C29245694   4.043   6.986   3.765 -0.2517 -0.2884  0.1795
  142MOL   C29345695   4.016   6.865   3.831  0.7656 -0.3236  0.3257
  142MOL   C29445696   3.901   6.791   3.801  0.1337  0.2066  0.1294
  142MOL  Cl29545697   3.849   6.660   3.893  0.0047 -0.4694  0.0991
  142MOL   C29645698   3.815   6.834   3.701 -0.0073 -0.3407  1.1013
  142MOL   C29745699   3.834   6.957   3.637 -0.0018  0.0606 -0.5062
  142MOL   C29845700   3.917   7.282   3.724 -0.1212  0.7435 -0.1439
  142MOL   H29945701   3.877   7.187   3.538  1.3567  2.0455 -0.4559
  142MOL   H30045702   4.120   7.052   3.801 -1.5946  0.1925  2.2568
  142MOL   H30145703   4.074   6.826   3.913  1.2570  0.8323  0.5291
  142MOL   H30245704   3.721   6.784   3.680 -0.0989 -0.0100  0.7357
  142MOL   H30345705   3.769   6.998   3.562  0.2571  1.0451 -0.2023
  142MOL   H30445706   3.990   7.276   3.804  0.3101  0.4397 -0.5608
  142MOL   H30545707   3.927   7.382   3.681 -2.8374  0.1380 -2.3231
  142MOL   C30645708   3.775   7.255   3.789  0.7913 -0.5832 -0.0141
  142MOL   C30745709   3.751   7.331   3.922 -0.1458  1.1483  0.2419
  142MOL   C30845710   3.749   7.472   3.917  0.1597 -0.1950 -0.4358
  142MOL   C30945711   3.718   7.543   4.033 -0.8265 -0.0257 -0.2406
  142MOL   C31045712   3.693   7.473   4.151 -0.2958 -0.1029 -0.1170
  142MOL  Cl31145713   3.635   7.546   4.293 -0.3874 -0.1486 -0.3216
  142MOL   C31245714   3.701   7.335   4.160 -0.4062 -0.2031  0.0923
  142MOL   C31345715   3.723   7.260   4.044  0.0855  0.4440 -0.6147
  142MOL   C31445716   3.665   7.291   3.693 -0.3175 -0.0247 -0.2574
  142MOL   H31545717   3.775   7.150   3.818  0.5234 -0.5425  0.1337
  142MOL   H31645718   3.764   7.526   3.825 -1.2602 -0.2226 -0.7052
  142MOL   H31745719   3.712   7.651   4.027  3.6520  0.2493 -1.7649
  142MOL   H31845720   3.677   7.284   4.252 -0.5949  2.6557  1.6984
  142MOL   H31945721   3.711   7.153   4.052 -2.2699  0.6893 -0.5406
  142MOL   H32045722   3.643   7.205   3.629 -1.0036  0.4324 -0.6425
  142MOL   H32145723   3.569   7.294   3.743 -1.2014  1.5619 -2.0028
  142MOL   H32245724   3.685   7.380   3.634 -0.5431  0.3656  0.2564
  143MOL     C145725   6.788   4.332   5.069 -0.1157  0.0223 -0.0392
  143MOL     C245726   6.677   4.317   5.162  0.0983 -0.0309  0.3886
  143MOL     C345727   6.651   4.182   5.214 -0.1601 -0.1362 -0.4065
  143MOL     C445728   6.528   4.167   5.290  0.1823 -0.7631  0.1103
  143MOL     C545729   6.443   4.273   5.320  0.7263 -0.3467 -0.0339
  143MOL    Cl645730   6.301   4.264   5.419 -0.0280  0.4371 -0.3154
  143MOL     C745731   6.482   4.401   5.284  0.6765  0.9585  0.7754
  143MOL     C845732   6.592   4.425   5.201 -0.1771  0.8293 -0.1269
  143MOL     C945733   6.908   4.423   5.120  0.0635  0.3860 -0.2231
  143MOL    H1045734   6.763   4.373   4.971 -0.0030  1.1042  0.3803
  143MOL    H1145735   6.717   4.100   5.194  0.9158 -0.0871  2.7156
  143MOL    H1245736   6.498   4.068   5.321 -0.2860 -0.8591 -0.6339
  143MOL    H1345737   6.414   4.477   5.321 -0.9141 -0.2036  0.2697
  143MOL    H1445738   6.603   4.526   5.165 -1.0252  0.5527 -1.1861
  143MOL    H1545739   6.990   4.420   5.048  0.2571  1.4133 -0.0531
  143MOL    H1645740   6.870   4.524   5.135  0.7787  0.8067 -1.1931
  143MOL    H1745741   6.823   4.232   5.043  0.0762 -0.0952  0.6702
  143MOL    C1845742   6.962   4.369   5.253 -0.0253  0.1196  0.6369
  143MOL    C1945743   7.032   4.231   5.238 -0.0221  0.5737 -0.0723
  143MOL    C2045744   7.143   4.222   5.151 -0.6178  0.0456 -0.2304
  143MOL    C2145745   7.221   4.101   5.148  0.0637  0.1053  0.0386
  143MOL    C2245746   7.186   3.989   5.223  0.5740 -0.3041 -0.0054
  143MOL   Cl2345747   7.271   3.849   5.204  0.2210  0.3250  0.0621
  143MOL    C2445748   7.081   4.000   5.317  0.1075  0.0112  0.1060
  143MOL    C2545749   6.998   4.117   5.319  0.6631 -0.3117 -0.4712
  143MOL    C2645750   7.049   4.475   5.319 -0.2821  1.2638  0.4851
  143MOL    H2745751   6.875   4.363   5.320 -1.6559  2.1209 -1.2266
  143MOL    H2845752   7.182   4.307   5.097 -1.1551 -0.0304 -0.7368
  143MOL    H2945753   7.309   4.092   5.086  0.9024  2.2471  0.8323
  143MOL    H3045754   7.053   3.918   5.382 -0.7617  0.6189  0.5124
  143MOL    H3145755   6.908   4.125   5.377  1.2801 -2.4675  0.8390
  143MOL    H3245756   7.122   4.508   5.246 -0.2857  1.2895  0.4935
  143MOL    H3345757   6.984   4.561   5.339 -1.7388  0.4854 -0.7843
  143MOL    C3445758   7.108   4.434   5.453  0.6613  0.3309 -0.3682
  143MOL    C3545759   7.221   4.525   5.501 -0.3749 -0.1689 -0.1310
  143MOL    C3645760   7.356   4.479   5.481  0.6204 -0.2825  0.1610
  143MOL    C3745761   7.467   4.561   5.520  1.0266 -0.3818 -1.2049
  143MOL    C3845762   7.443   4.690   5.585 -0.8922 -0.5415  0.1481
  143MOL   Cl3945763   7.574   4.792   5.644 -0.2977  0.3230 -0.0155
  143MOL    C4045764   7.308   4.727   5.611  0.0335 -0.0359  0.2596
  143MOL    C4145765   7.198   4.643   5.574  0.3455 -0.0311 -0.2474
  143MOL    C4245766   6.992   4.408   5.557  0.1876 -0.3219  0.1416
  143MOL    H4345767   7.154   4.336   5.443  0.0055 -0.1356  1.0480
  143MOL    H4445768   7.377   4.381   5.440  1.2697 -0.4315  0.8521
  143MOL    H4545769   7.564   4.523   5.494  0.0925 -3.8352  0.0228
  143MOL    H4645770   7.288   4.816   5.669  0.2240  1.5847 -2.0657
  143MOL    H4745771   7.100   4.677   5.601 -0.2445 -0.5694 -1.6861
  143MOL    H4845772   6.959   4.508   5.583  0.1716  0.3054 -2.2255
  143MOL    H4945773   6.902   4.368   5.510  0.1126  0.0007  0.0123
  143MOL    C5045774   7.025   4.341   5.685  0.0944 -0.1217  0.2757
  143MOL    C5145775   6.918   4.372   5.794 -0.2534 -0.2368  0.4933
  143MOL    C5245776   6.954   4.409   5.925  0.1425  0.0069  0.3045
  143MOL    C5345777   6.849   4.448   6.015  0.1699  0.6279  0.2416
  143MOL    C5445778   6.716   4.455   5.972 -0.5091  0.4840 -0.0241
  143MOL   Cl5545779   6.595   4.515   6.081 -0.1280  0.0713 -0.3746
  143MOL    C5645780   6.684   4.411   5.843 -0.7808 -0.2026  0.7923
  143MOL    C5745781   6.784   4.367   5.754  0.3955 -0.3998 -0.4820
  143MOL    C5845782   7.017   4.190   5.651 -0.2713  0.2843  0.1178
  143MOL    H5945783   7.117   4.384   5.725  1.5694 -2.4856 -0.5034
  143MOL    H6045784   7.060   4.421   5.939  0.7992 -0.4234 -3.7159
  143MOL    H6145785   6.876   4.476   6.116  0.6476 -0.6803  0.4817
  143MOL    H6245786   6.582   4.429   5.812  0.0484  1.0680 -1.3468
  143MOL    H6345787   6.757   4.349   5.651 -0.9823 -0.5255 -0.1054
  143MOL    H6445788   6.920   4.155   5.617  1.0073 -2.5537 -0.8279
  143MOL    H6545789   7.088   4.168   5.571 -0.8428  0.2925 -0.3883
  143MOL    C6645790   7.046   4.103   5.773 -0.2957  0.4356 -0.3724
  143MOL    C6745791   7.012   3.951   5.743 -0.3279 -0.0869  0.2845
  143MOL    C6845792   7.109   3.851   5.715 -0.0399  0.3496 -0.2439
  143MOL    C6945793   7.076   3.715   5.695  0.2426  0.3284  0.1518
  143MOL    C7045794   6.941   3.687   5.694  0.2836 -0.4521  0.7614
  143MOL   Cl7145795   6.891   3.520   5.667 -0.0414 -0.2953 -0.0042
  143MOL    C7245796   6.844   3.790   5.712 -0.2951 -0.6139 -0.0156
  143MOL    C7345797   6.877   3.921   5.745  0.3840  0.1072 -0.5861
  143MOL    C7445798   7.188   4.110   5.834  1.1512 -0.1809  0.0948
  143MOL    H7545799   6.980   4.132   5.854  1.1553  1.1353  0.5906
  143MOL    H7645800   7.211   3.884   5.709 -0.7330  2.3163 -1.4266
  143MOL    H7745801   7.147   3.637   5.672  1.2784  1.4587 -0.5578
  143MOL    H7845802   6.741   3.762   5.724 -0.3953 -0.2760 -0.0825
  143MOL    H7945803   6.797   3.991   5.764 -0.3717 -0.8694 -0.1089
  143MOL    H8045804   7.266   4.066   5.772 -0.5080 -0.1158 -2.1089
  143MOL    H8145805   7.223   4.213   5.846  0.3819  0.0334  0.5278
  143MOL    C8245806   7.191   4.053   5.975 -0.2616  0.5283 -0.2788
  143MOL    C8345807   7.320   3.985   6.009 -1.0261 -0.0571 -0.5039
  143MOL    C8445808   7.339   3.841   6.000  0.7568  0.0360  0.5991
  143MOL    C8545809   7.465   3.782   6.027  0.4632 -0.3941  0.4012
  143MOL    C8645810   7.574   3.867   6.056  0.1842  0.5330 -0.2371
  143MOL   Cl8745811   7.715   3.787   6.091 -0.2335 -0.4159  0.1865
  143MOL    C8845812   7.561   4.007   6.060 -0.3823 -0.3106 -0.1468
  143MOL    C8945813   7.434   4.063   6.045  0.3883  0.3066 -0.5726
  143MOL    C9045814   7.135   4.158   6.079  0.4586  0.2623 -0.5040
  143MOL    H9145815   7.127   3.965   5.968 -0.9752  1.1649 -2.2217
  143MOL    H9245816   7.256   3.791   5.951  1.5239 -1.0151  0.3340
  143MOL    H9345817   7.486   3.676   6.017 -1.2944 -0.7451  0.2115
  143MOL    H9445818   7.648   4.065   6.084  0.8169 -1.7112 -1.0222
  143MOL    H9545819   7.426   4.171   6.055 -0.7905  0.2550 -0.9325
  143MOL    H9645820   7.205   4.238   6.101  0.1258 -0.2720  2.7511
  143MOL    H9745821   7.035   4.195   6.056  0.2385  0.4463  0.7292
  143MOL    C9845822   7.104   4.090   6.219 -0.2677  0.5502 -0.7571
  143MOL    C9945823   7.119   4.196   6.331  0.2415  0.1908  0.9026
  143MOL   C10045824   7.227   4.197   6.426  0.1736  0.3166  0.6084
  143MOL   C10145825   7.235   4.297   6.526 -0.2614 -0.0379  0.0041
  143MOL   C10245826   7.147   4.405   6.526  0.7015  0.7154  0.7763
  143MOL  Cl10345827   7.159   4.540   6.627 -0.2531  0.0786 -0.0593
  143MOL   C10445828   7.035   4.401   6.438  0.3736 -0.3728  0.1102
  143MOL   C10545829   7.023   4.295   6.347 -0.0340 -0.3996  0.5044
  143MOL   C10645830   6.961   4.021   6.223 -0.3429  0.3705  0.0683
  143MOL   H10745831   7.182   4.013   6.228 -0.0901  0.5972 -1.8290
  143MOL   H10845832   7.291   4.110   6.421 -1.2087 -0.5889 -2.1257
  143MOL   H10945833   7.310   4.286   6.603 -1.5565  1.1741  1.4549
  143MOL   H11045834   6.975   4.487   6.461  3.2503  1.6042  0.4911
  143MOL   H11145835   6.944   4.299   6.274  0.1998 -0.0612  0.2675
  143MOL   H11245836   6.877   4.085   6.249 -1.9933 -1.1032 -1.5294
  143MOL   H11345837   6.946   3.984   6.122  2.3981 -0.0322 -0.2432
  143MOL   C11445838   6.952   3.893   6.317  0.3684 -0.5548  0.1288
  143MOL   C11545839   6.958   3.952   6.455 -0.1175  0.8058 -0.3299
  143MOL   C11645840   6.845   4.028   6.512 -0.5747  0.7471 -0.3406
  143MOL   C11745841   6.845   4.067   6.644 -0.1325  0.1287  0.6708
  143MOL   C11845842   6.950   4.036   6.736  0.5663 -0.3187 -0.0645
  143MOL  Cl11945843   6.946   4.069   6.911 -0.3004 -0.1637 -0.2745
  143MOL   C12045844   7.055   3.955   6.679 -0.3660  0.7011 -0.3023
  143MOL   C12145845   7.067   3.925   6.543 -0.3861  0.1137 -0.2978
  143MOL   C12245846   6.827   3.805   6.293  0.3663  0.2290  0.5656
  143MOL   H12345847   7.039   3.827   6.313  0.4449 -0.5396  1.3715
  143MOL   H12445848   6.754   4.050   6.457 -1.5944  1.4711  1.5933
  143MOL   H12545849   6.759   4.119   6.683  2.2751  3.1828  2.1496
  143MOL   H12645850   7.132   3.921   6.747 -0.3745  0.6681 -0.3085
  143MOL   H12745851   7.145   3.857   6.511 -0.7505 -0.5228  0.1498
  143MOL   H12845852   6.802   3.746   6.381 -2.1452  1.7187  0.9056
  143MOL   H12945853   6.734   3.861   6.285 -0.6752 -1.7762 -2.5021
  143MOL   C13045854   6.831   3.714   6.170 -0.2248  0.4858  0.0762
  143MOL   C13145855   6.943   3.616   6.186  0.7832  0.2316 -0.2588
  143MOL   C13245856   7.024   3.582   6.079 -0.1568 -0.5951 -0.0746
  143MOL   C13345857   7.128   3.485   6.075 -0.1768  0.5389 -0.6616
  143MOL   C13445858   7.149   3.416   6.195 -0.5304 -0.1232 -0.0344
  143MOL  Cl13545859   7.279   3.303   6.212 -0.1639 -0.2784  0.2548
  143MOL   C13645860   7.077   3.451   6.312  0.1543 -0.1494  0.2393
  143MOL   C13745861   6.968   3.537   6.306  0.3699 -0.6714 -0.5751
  143MOL   C13845862   6.714   3.633   6.124 -0.0557  0.1090 -0.8483
  143MOL   H13945863   6.854   3.780   6.086 -2.2762 -0.9389 -1.6682
  143MOL   H14045864   7.019   3.636   5.985 -0.8730 -1.7030 -0.6859
  143MOL   H14145865   7.184   3.456   5.987  0.1892 -0.6223 -0.0690
  143MOL   H14245866   7.098   3.405   6.407 -1.6959  1.2985  1.3886
  143MOL   H14345867   6.903   3.553   6.391  2.1120  1.8608  0.3444
  143MOL   H14445868   6.739   3.602   6.022  0.0354  1.1073 -1.1265
  143MOL   H14545869   6.707   3.544   6.187 -2.4225  0.4635 -0.5909
  143MOL   C14645870   6.579   3.705   6.113 -0.3502  0.0049  0.3174
  143MOL   C14745871   6.562   3.773   5.975 -1.0738  0.5441  0.1309
  143MOL   C14845872   6.503   3.699   5.872 -0.4195  0.2261  0.2825
  143MOL   C14945873   6.478   3.764   5.750 -0.4963  0.2314 -0.9606
  143MOL   C15045874   6.498   3.903   5.735  0.4959  0.2240  0.2375
  143MOL  Cl15145875   6.439   3.975   5.589  0.3555 -0.5427  0.0259
  143MOL   C15245876   6.547   3.978   5.845 -0.7805 -0.7238 -0.4585
  143MOL   C15345877   6.590   3.909   5.962 -0.6122 -0.1304 -0.1402
  143MOL   C15445878   6.457   3.618   6.154 -0.4215 -0.1078  0.1510
  143MOL   H15545879   6.573   3.786   6.185 -1.2346  0.6848 -0.5105
  143MOL   H15645880   6.491   3.592   5.879 -0.8188  0.3402  1.3831
  143MOL   H15745881   6.442   3.695   5.675 -0.1868 -1.1118  0.1162
  143MOL   H15845882   6.552   4.085   5.834  1.6628 -0.7692 -0.2140
  143MOL   H15945883   6.634   3.972   6.038  0.5654  0.7465 -1.5250
  143MOL   H16045884   6.374   3.663   6.101  0.6005  0.2625 -1.1563
  143MOL   H16145885   6.475   3.514   6.127  2.7640  1.0728 -2.5720
  143MOL   C16245886   6.424   3.630   6.305 -0.4243  0.1876  0.1218
  143MOL   C16345887   6.282   3.586   6.315  0.0964 -0.7110 -0.4720
  143MOL   C16445888   6.242   3.452   6.284 -0.7564  0.3818 -0.4870
  143MOL   C16545889   6.106   3.410   6.282  0.1027  0.2354 -0.0921
  143MOL   C16645890   6.006   3.500   6.326 -0.2213  0.1717  0.3154
  143MOL  Cl16745891   5.844   3.444   6.333  0.2206 -0.0746  0.0449
  143MOL   C16845892   6.044   3.632   6.367 -0.4058 -0.2996  0.4128
  143MOL   C16945893   6.179   3.673   6.363  0.0086 -0.0520  0.1605
  143MOL   C17045894   6.520   3.555   6.400  0.0663 -0.2501  0.9333
  143MOL   H17145895   6.425   3.735   6.333  0.3910  1.0163 -2.8087
  143MOL   H17245896   6.318   3.379   6.259 -0.2087  0.3783  1.1397
  143MOL   H17345897   6.090   3.308   6.251 -1.4373  0.3346  0.3371
  143MOL   H17445898   5.971   3.695   6.417 -1.2857 -0.4822 -0.6154
  143MOL   H17545899   6.213   3.770   6.396 -0.1799 -0.2042  0.8050
  143MOL   H17645900   6.524   3.448   6.385  0.7965 -0.3353  1.6799
  143MOL   H17745901   6.627   3.578   6.391 -0.3412  1.9091  1.3634
  143MOL   C17845902   6.480   3.571   6.543  0.1135 -0.7995 -0.3824
  143MOL   C17945903   6.581   3.485   6.630  0.7879  0.3095  0.0980
  143MOL   C18045904   6.715   3.532   6.644 -0.8621 -0.1057  0.2233
  143MOL   C18145905   6.803   3.461   6.728 -0.0715  0.2077 -0.1988
  143MOL   C18245906   6.758   3.343   6.796 -0.5418  0.2904  0.2152
  143MOL  Cl18345907   6.866   3.252   6.892  0.3127 -0.2965 -0.3925
  143MOL   C18445908   6.634   3.294   6.770 -0.1226 -0.2075  0.1045
  143MOL   C18545909   6.539   3.366   6.699  0.3696 -0.3260 -0.3455
  143MOL   C18645910   6.478   3.718   6.603  0.0709  0.0933  0.3524
  143MOL   H18745911   6.376   3.538   6.544 -0.0366 -0.3888 -1.3380
  143MOL   H18845912   6.736   3.628   6.599 -0.1837 -0.0600  0.6276
  143MOL   H18945913   6.901   3.503   6.746 -0.2144  0.4781 -0.0596
  143MOL   H19045914   6.592   3.211   6.826  1.0021  0.4954  2.0249
  143MOL   H19145915   6.438   3.328   6.691 -0.5515  1.2460  2.8876
  143MOL   H19245916   6.564   3.780   6.581 -0.4217  0.3226 -1.0114
  143MOL   H19345917   6.401   3.762   6.539  1.0892  1.2884 -0.0696
  143MOL   C19445918   6.439   3.749   6.751 -0.5892  0.4147 -0.2185
  143MOL   C19545919   6.293   3.727   6.779 -0.0943  0.9527  0.2123
  143MOL   C19645920   6.254   3.593   6.803  0.4833  0.1355 -0.5042
  143MOL   C19745921   6.123   3.558   6.785 -0.0335 -0.3262  0.4115
  143MOL   C19845922   6.029   3.655   6.763 -0.3387  0.4081  0.0490
  143MOL  Cl19945923   5.865   3.604   6.734  0.0508 -0.2856  0.5159
  143MOL   C20045924   6.057   3.792   6.749  0.2194  0.7968  0.3085
  143MOL   C20145925   6.191   3.826   6.769 -0.6780  0.2866 -0.0944
  143MOL   C20245926   6.534   3.697   6.858  0.7847 -0.2222 -0.1314
  143MOL   H20345927   6.445   3.858   6.753 -3.4117  0.6154  0.1000
  143MOL   H20445928   6.317   3.515   6.843  0.6841  0.4628 -0.1729
  143MOL   H20545929   6.093   3.455   6.789  0.1152 -0.3957 -0.2586
  143MOL   H20645930   5.988   3.872   6.728  0.1320  0.3693 -1.0784
  143MOL   H20745931   6.213   3.931   6.759  2.1696 -0.0954  1.6258
  143MOL   H20845932   6.512   3.590   6.858  0.3465 -0.1367  0.1215
  143MOL   H20945933   6.637   3.699   6.825  0.8284  3.5955  0.0350
  143MOL   C21045934   6.529   3.743   6.999 -0.3068 -0.3206  0.5154
  143MOL   C21145935   6.563   3.633   7.094 -1.4945 -0.4811 -0.5165
  143MOL   C21245936   6.471   3.582   7.184  0.1614 -0.3781 -0.2864
  143MOL   C21345937   6.513   3.469   7.260  0.3149 -0.2501  0.8188
  143MOL   C21445938   6.636   3.409   7.242 -0.5911 -0.1311 -0.2858
  143MOL  Cl21545939   6.659   3.249   7.307  0.0076  0.1024 -0.0904
  143MOL   C21645940   6.727   3.461   7.150  0.0280  0.0141 -0.0147
  143MOL   C21745941   6.696   3.578   7.084 -0.1276 -0.1276 -0.1717
  143MOL   C21845942   6.615   3.867   7.034  0.1632  0.0604  0.2755
  143MOL   H21945943   6.429   3.780   7.020  0.3712  2.2280 -0.6018
  143MOL   H22045944   6.371   3.620   7.196  0.3855 -0.4086  2.0786
  143MOL   H22145945   6.438   3.430   7.327 -0.9479  0.9329  0.1097
  143MOL   H22245946   6.817   3.402   7.140  0.5302  0.8115 -0.2660
  143MOL   H22345947   6.760   3.625   7.010  0.1810  0.4100  0.4277
  143MOL   H22445948   6.719   3.849   7.006 -0.3940  0.8570 -2.4348
  143MOL   H22545949   6.580   3.951   6.975  0.3368  1.0945  1.6224
  143MOL   C22645950   6.623   3.895   7.187 -0.4628  0.4025 -0.1261
  143MOL   C22745951   6.734   3.999   7.215 -0.1101  0.4513  0.0491
  143MOL   C22845952   6.856   3.955   7.271 -0.8589  0.8086  1.0126
  143MOL   C22945953   6.957   4.050   7.297  0.2956  0.9122 -0.0491
  143MOL   C23045954   6.933   4.184   7.264 -0.3148 -0.3101  0.4030
  143MOL  Cl23145955   7.062   4.291   7.288  0.4739 -0.4342  0.4471
  143MOL   C23245956   6.814   4.229   7.211 -0.1080  0.1479 -0.3811
  143MOL   C23345957   6.711   4.137   7.191  0.2739  0.1550 -0.1396
  143MOL   C23445958   6.491   3.929   7.255  0.1984  0.5493  0.3432
  143MOL   H23545959   6.660   3.804   7.234 -0.0744  0.4040 -0.4240
  143MOL   H23645960   6.859   3.853   7.307  0.9528  0.0404 -1.2096
  143MOL   H23745961   7.051   4.029   7.346 -0.4936 -1.1220  0.6285
  143MOL   H23845962   6.791   4.326   7.169  0.6730  0.3209 -0.4119
  143MOL   H23945963   6.623   4.177   7.143 -0.7959 -1.5866  0.3505
  143MOL   H24045964   6.455   4.026   7.221 -1.9430  0.0822  1.2259
  143MOL   H24145965   6.416   3.863   7.211  2.1379 -0.4899 -1.4986
  143MOL   C24245966   6.503   3.929   7.414  0.6783  0.1027 -0.7020
  143MOL   C24345967   6.390   4.018   7.461  0.2714 -0.1384 -0.0156
  143MOL   C24445968   6.407   4.119   7.554  0.2490 -0.6151 -0.1122
  143MOL   C24545969   6.298   4.184   7.607  0.5395  0.8893  0.5481
  143MOL   C24645970   6.168   4.159   7.559 -0.4050  0.2893 -0.6434
  143MOL  Cl24745971   6.027   4.248   7.608  0.0292  0.0520  0.0355
  143MOL   C24845972   6.155   4.050   7.474 -0.3074  0.3454 -0.6392
  143MOL   C24945973   6.262   3.976   7.427 -0.2453 -0.4434  0.2743
  143MOL   C25045974   6.511   3.783   7.461  0.6371 -0.0144 -0.0350
  143MOL   H25145975   6.594   3.982   7.443 -0.2288 -0.1775  2.8244
  143MOL   H25245976   6.507   4.160   7.567 -0.6224  2.7780 -3.0748
  143MOL   H25345977   6.311   4.265   7.677  0.7370 -1.4696  3.3280
  143MOL   H25445978   6.059   4.008   7.446 -0.0055 -0.7702 -0.0123
  143MOL   H25545979   6.243   3.896   7.357 -1.6190 -0.6691  0.8884
  143MOL   H25645980   6.437   3.719   7.412 -1.6145  0.1230  3.0868
  143MOL   H25745981   6.603   3.742   7.418  0.5904  0.1059 -0.2518
  143MOL   C25845982   6.489   3.754   7.610 -0.3779 -1.0465 -0.3094
  143MOL   C25945983   6.468   3.610   7.631  0.3383 -0.0271 -0.6454
  143MOL   C26045984   6.339   3.559   7.610  0.4781  0.8947 -0.4679
  143MOL   C26145985   6.314   3.415   7.619 -0.5092 -0.1970 -0.5739
  143MOL   C26245986   6.423   3.324   7.636  0.5174 -0.2724 -0.2360
  143MOL  Cl26345987   6.407   3.150   7.625 -0.3911 -0.1133  0.3355
  143MOL   C26445988   6.553   3.373   7.648  0.6028 -0.2344 -0.2887
  143MOL   C26545989   6.575   3.513   7.649  0.9966  0.2633  0.1285
  143MOL   C26645990   6.599   3.814   7.706  0.2535 -1.0252 -0.1992
  143MOL   H26745991   6.397   3.808   7.632 -0.4062 -1.5162  0.7397
  143MOL   H26845992   6.264   3.634   7.586 -1.9635 -1.1786  0.4210
  143MOL   H26945993   6.218   3.368   7.604 -0.4766 -0.6904  0.7196
  143MOL   H27045994   6.627   3.294   7.653  2.1020  1.1065 -0.8189
  143MOL   H27145995   6.677   3.543   7.667  1.3498 -0.4623 -0.6436
  143MOL   H27245996   6.693   3.781   7.662  1.6517  1.8322  0.5413
  143MOL   H27345997   6.594   3.922   7.692 -0.9705 -0.7128  2.4686
  143MOL   C27445998   6.582   3.781   7.856 -0.5559  0.8119 -0.5403
  143MOL   C27545999   6.715   3.810   7.925 -0.4048 -0.2614 -0.0672
  143MOL   C27646000   6.786   3.932   7.906  0.5391  0.5373  0.0429
  143MOL   C27746001   6.915   3.950   7.960  0.7820 -0.2756  0.8288
  143MOL   C27846002   6.971   3.845   8.037 -0.7715  0.7395  0.2350
  143MOL  Cl27946003   7.126   3.875   8.099  0.1003  0.0562 -0.0811
  143MOL   C28046004   6.901   3.727   8.064  0.1164  0.4040 -0.3179
  143MOL   C28146005   6.775   3.709   8.007 -0.0612 -0.1841  0.0342
  143MOL   C28246006   6.464   3.866   7.903  0.4357  0.1476  0.2665
  143MOL   H28346007   6.563   3.674   7.868 -0.2274  0.8691  0.4549
  143MOL   H28446008   6.739   4.015   7.857  1.1843  0.4758 -0.6870
  143MOL   H28546009   6.969   4.043   7.946 -0.0567  0.1592  0.4390
  143MOL   H28646010   6.941   3.651   8.129  2.0066  0.9367 -0.8233
  143MOL   H28746011   6.730   3.613   8.027  0.2476  0.0636  2.0066
  143MOL   H28846012   6.478   3.973   7.888 -2.2998  0.3362 -1.2128
  143MOL   H28946013   6.369   3.845   7.854  0.4627 -1.0949  0.7186
  143MOL   C29046014   6.434   3.854   8.055 -0.3868 -0.0908  0.0619
  143MOL   C29146015   6.372   3.986   8.110 -0.3341 -0.8513  0.0535
  143MOL   C29246016   6.420   4.035   8.234 -0.9332 -0.1714  0.1736
  143MOL   C29346017   6.349   4.140   8.291 -0.0945  0.3426 -0.4004
  143MOL   C29446018   6.249   4.208   8.218  0.2430 -0.0878  0.4027
  143MOL  Cl29546019   6.166   4.343   8.289  0.2730  0.2680 -0.1622
  143MOL   C29646020   6.216   4.169   8.086  0.8301  0.0815  0.2650
  143MOL   C29746021   6.280   4.058   8.029  0.0137 -0.0723 -0.3367
  143MOL   C29846022   6.338   3.726   8.083 -0.3058 -0.3589 -0.4728
  143MOL   H29946023   6.530   3.841   8.105 -0.7812 -0.5149  0.6996
  143MOL   H30046024   6.501   3.990   8.289 -2.6639 -0.8981  2.2149
  143MOL   H30146025   6.369   4.186   8.386 -2.5788  2.2486 -0.7609
  143MOL   H30246026   6.146   4.219   8.021 -1.7029 -3.1959  0.3365
  143MOL   H30346027   6.262   4.025   7.928 -1.2172  2.9532 -1.1689
  143MOL   H30446028   6.237   3.763   8.070  1.1790  2.6943 -4.4026
  143MOL   H30546029   6.358   3.654   8.004  0.7098  0.0299 -0.5839
  143MOL   C30646030   6.363   3.661   8.212 -0.1583  0.5670 -0.1561
  143MOL   C30746031   6.237   3.604   8.279 -0.1547  0.2445  0.3500
  143MOL   C30846032   6.181   3.484   8.223 -0.9401 -0.2855  0.3278
  143MOL   C30946033   6.064   3.434   8.283 -0.0968  0.4788 -0.3361
  143MOL   C31046034   6.012   3.490   8.398  0.5059  0.0719  0.7571
  143MOL  Cl31146035   5.885   3.417   0.038 -0.0857  0.1398 -0.1550
  143MOL   C31246036   6.071   3.604   0.013  0.0840  0.0348 -0.2673
  143MOL   C31346037   6.181   3.667   8.392  0.3546 -0.3663 -0.2348
  143MOL   C31446038   6.476   3.562   8.232  0.2788 -0.3332  0.0777
  143MOL   H31546039   6.403   3.736   8.280  0.8216 -1.7204  1.8798
  143MOL   H31646040   6.218   3.441   8.131 -0.6477  0.4293  0.1135
  143MOL   H31746041   6.015   3.348   8.241  0.9259 -0.9998  1.4367
  143MOL   H31846042   6.042   3.631   0.113  0.1212 -0.8710 -0.0078
  143MOL   H31946043   6.229   3.758   8.426 -0.4980 -0.3841  1.0360
  143MOL   H32046044   6.481   3.531   8.336  0.3196  1.4960  0.6223
  143MOL   H32146045   6.463   3.473   8.170 -1.2922  0.3387 -0.5817
  143MOL   H32246046   6.576   3.590   8.199  0.5877 -2.0003 -0.4736
  144MOL     C146047   1.893   4.355   5.767  0.0092 -0.0307 -0.0557
  144MOL     C246048   2.011   4.285   5.841  0.1321  0.3536  0.1144
  144MOL     C346049   1.984   4.180   5.929 -0.2751  0.2503  0.3409
  144MOL     C446050   2.092   4.115   5.993 -1.3339 -0.0144  0.6518
  144MOL     C546051   2.223   4.158   5.973  0.1362  0.0814 -0.8709
  144MOL    Cl646052   2.344   4.088   6.068  0.0732 -0.2930 -0.3659
  144MOL     C746053   2.253   4.267   5.888  0.3665  0.2761  0.4802
  144MOL     C846054   2.145   4.328   5.810 -0.0215 -0.2654 -0.1563
  144MOL     C946055   1.858   4.489   5.839  0.1905  0.1133  0.6846
  144MOL    H1046056   1.796   4.308   5.756  0.1549 -0.1624 -0.7908
  144MOL    H1146057   1.880   4.157   5.949 -0.3299  1.1611  1.1034
  144MOL    H1246058   2.074   4.035   6.063 -1.1035  0.5574  1.3695
  144MOL    H1346059   2.356   4.290   5.867  0.7016  0.4884  2.2441
  144MOL    H1446060   2.158   4.399   5.729 -2.0030 -0.5998 -0.7928
  144MOL    H1546061   1.819   4.468   5.939 -1.9310  0.9096  0.0453
  144MOL    H1646062   1.960   4.528   5.845  0.9313 -1.4639 -1.2841
  144MOL    H1746063   1.935   4.383   5.670 -1.7734  1.1268 -0.5140
  144MOL    C1846064   1.762   4.587   5.778  0.3916  0.0966  0.4374
  144MOL    C1946065   1.815   4.650   5.645 -0.3028 -0.6412 -0.4570
  144MOL    C2046066   1.885   4.771   5.650  0.3449 -0.0865  0.8362
  144MOL    C2146067   1.947   4.820   5.530 -0.3815 -0.0648 -0.0884
  144MOL    C2246068   1.933   4.750   5.410 -0.0471 -0.2506  0.3074
  144MOL   Cl2346069   2.009   4.805   5.264  0.4590  0.0543  0.2373
  144MOL    C2446070   1.858   4.632   5.409  0.0206 -0.2249 -0.3408
  144MOL    C2546071   1.802   4.578   5.529 -0.0847 -0.1012  0.2828
  144MOL    C2646072   1.617   4.534   5.768 -0.1943 -0.2537 -0.0859
  144MOL    H2746073   1.759   4.671   5.847  0.7842 -1.7291  2.7289
  144MOL    H2846074   1.898   4.816   5.747 -0.2997  3.9671 -0.8730
  144MOL    H2946075   2.007   4.909   5.522  0.8704 -0.9853 -1.1446
  144MOL    H3046076   1.848   4.568   5.322 -2.9294 -0.6171  0.2061
  144MOL    H3146077   1.749   4.484   5.525 -1.4433  0.7158 -1.1898
  144MOL    H3246078   1.623   4.449   5.700 -0.6068  1.3620 -2.2172
  144MOL    H3346079   1.577   4.500   5.863  0.8189  0.9282  0.7782
  144MOL    C3446080   1.517   4.634   5.707 -0.2589 -0.5019  1.0174
  144MOL    C3546081   1.382   4.564   5.698  0.1471 -0.1682 -0.2635
  144MOL    C3646082   1.334   4.529   5.574  1.2978 -0.0582  0.0837
  144MOL    C3746083   1.219   4.449   5.565  0.8138 -0.4174  0.0774
  144MOL    C3846084   1.140   4.417   5.678  0.2245  0.4776  0.9369
  144MOL   Cl3946085   0.999   4.313   5.659 -0.1544  0.0803 -0.3689
  144MOL    C4046086   1.181   4.457   5.805 -0.3360 -0.1747  0.2092
  144MOL    C4146087   1.305   4.524   5.819 -0.1624  0.7236 -0.3553
  144MOL    C4246088   1.496   4.759   5.798 -0.5623  0.2405 -0.0844
  144MOL    H4346089   1.548   4.669   5.608 -4.3786 -0.6074 -0.4230
  144MOL    H4446090   1.378   4.554   5.478  0.9081  1.2344  0.2398
  144MOL    H4546091   1.189   4.409   5.469 -0.4032  0.0826  0.2372
  144MOL    H4646092   1.130   4.420   5.893  1.9278 -0.4315  1.4564
  144MOL    H4746093   1.347   4.538   5.917 -0.0258  1.9079 -0.5814
  144MOL    H4846094   1.391   4.784   5.814 -0.9795 -2.1986  1.2604
  144MOL    H4946095   1.527   4.733   5.899 -1.3322  3.3182  0.9795
  144MOL    C5046096   1.572   4.887   5.741 -0.4702 -0.3408  0.3258
  144MOL    C5146097   1.546   4.934   5.600 -0.0472  0.6115  0.2422
  144MOL    C5246098   1.653   4.998   5.523 -0.0338 -0.5210 -0.4625
  144MOL    C5346099   1.626   5.029   5.390 -0.3235 -0.0546  0.0800
  144MOL    C5446100   1.503   5.009   5.330 -0.1822 -0.5525 -0.3009
  144MOL   Cl5546101   1.455   5.079   5.178  0.0336  0.2045 -0.1364
  144MOL    C5646102   1.405   4.946   5.407 -0.0427  0.4094  0.5611
  144MOL    C5746103   1.423   4.908   5.537 -0.2545  0.1498  0.0809
  144MOL    C5846104   1.550   5.014   5.835 -0.0944 -0.3603 -0.0884
  144MOL    H5946105   1.677   4.861   5.761  0.0938  2.7773  1.6586
  144MOL    H6046106   1.744   5.024   5.574  0.7724 -1.9959 -1.1088
  144MOL    H6146107   1.691   5.077   5.319  1.1520 -1.1696  0.6465
  144MOL    H6246108   1.307   4.937   5.362  0.3510  1.3077 -0.5179
  144MOL    H6346109   1.341   4.869   5.596 -0.7473 -0.8125 -1.2049
  144MOL    H6446110   1.576   5.114   5.800  0.0912 -0.2157  0.4629
  144MOL    H6546111   1.442   5.027   5.842 -0.2352  0.3858 -2.7025
  144MOL    C6646112   1.589   4.994   5.979  0.3852 -0.0380 -0.0275
  144MOL    C6746113   1.741   4.961   5.978  0.0553  0.3912  0.5247
  144MOL    C6846114   1.787   4.844   6.035  0.1546  0.3297  0.3343
  144MOL    C6946115   1.922   4.806   6.032 -1.0044 -0.4566 -0.2006
  144MOL    C7046116   2.015   4.892   5.965  0.0363  0.3824  0.2265
  144MOL   Cl7146117   2.180   4.857   5.948  0.6286 -0.2354 -0.2713
  144MOL    C7246118   1.970   5.009   5.907 -0.1588  1.3215  0.2616
  144MOL    C7346119   1.838   5.046   5.921 -0.2496 -0.2767  0.4197
  144MOL    C7446120   1.539   5.110   6.078 -0.0162  0.8783 -0.0440
  144MOL    H7546121   1.534   4.910   6.022 -0.4316 -0.0803 -1.1353
  144MOL    H7646122   1.713   4.794   6.097  0.4209  0.0678  0.4368
  144MOL    H7746123   1.964   4.721   6.084  0.2734  0.6086  0.5500
  144MOL    H7846124   2.042   5.067   5.850  0.4824  0.3042  0.0203
  144MOL    H7946125   1.816   5.142   5.875  0.7489  0.3430  1.2181
  144MOL    H8046126   1.621   5.172   6.113  0.7174  1.8105 -3.2802
  144MOL    H8146127   1.481   5.185   6.024  0.1198  1.0870  0.0995
  144MOL    C8246128   1.458   5.058   6.199  0.5993 -0.5639 -1.0965
  144MOL    C8346129   1.463   5.162   6.309  0.1498  0.1584  0.1288
  144MOL    C8446130   1.392   5.279   6.281  0.5257  0.8681  0.1883
  144MOL    C8546131   1.397   5.382   6.377  0.3539 -0.3546 -0.6490
  144MOL    C8646132   1.486   5.373   6.487  0.6199  0.5846  0.3178
  144MOL   Cl8746133   1.525   5.509   6.589  0.0776  0.1501  0.2027
  144MOL    C8846134   1.562   5.257   6.507 -0.7801  0.2863 -0.6201
  144MOL    C8946135   1.548   5.142   6.421 -1.0169  0.1095  0.0997
  144MOL    C9046136   1.314   4.999   6.158 -0.3167 -0.5519  0.2206
  144MOL    H9146137   1.509   4.972   6.241  0.3280 -0.4319 -0.4912
  144MOL    H9246138   1.329   5.288   6.194 -2.7008 -0.2110  2.3218
  144MOL    H9346139   1.337   5.470   6.354 -0.5089 -1.2464 -1.8603
  144MOL    H9446140   1.622   5.243   6.596 -1.7083  0.5626  0.0569
  144MOL    H9546141   1.597   5.048   6.440 -1.5536  0.0219  1.0644
  144MOL    H9646142   1.260   5.089   6.129 -1.6394 -0.6555  2.2263
  144MOL    H9746143   1.328   4.936   6.071 -0.6500 -0.0239 -0.2142
  144MOL    C9846144   1.240   4.919   6.275 -0.1327 -0.7881  0.6076
  144MOL    C9946145   1.096   4.905   6.234 -0.0776 -0.9297  0.1636
  144MOL   C10046146   1.056   4.841   6.110  0.2406 -0.0905  0.7981
  144MOL   C10146147   0.918   4.812   6.084  0.2197 -0.0241 -0.3139
  144MOL   C10246148   0.820   4.871   6.168 -0.3689 -0.0134 -0.5689
  144MOL  Cl10346149   0.656   4.833   6.136 -0.5501 -0.0915 -0.2319
  144MOL   C10446150   0.859   4.948   6.281 -0.0016  0.5303 -0.3016
  144MOL   C10546151   0.997   4.961   6.316  0.0831  0.3251 -0.0967
  144MOL   C10646152   1.307   4.782   6.296 -0.1013  0.0538  0.0441
  144MOL   H10746153   1.238   4.980   6.365 -0.4510 -1.0505  0.7794
  144MOL   H10846154   1.132   4.789   6.053 -0.8993  0.7319 -1.5480
  144MOL   H10946155   0.901   4.748   5.998 -1.1795 -1.3822  0.9292
  144MOL   H11046156   0.784   4.991   6.345  0.9811 -0.0576  1.2647
  144MOL   H11146157   1.031   4.997   6.412 -0.0648 -3.1335  1.3370
  144MOL   H11246158   1.332   4.743   6.198 -0.0861  3.4509 -1.3864
  144MOL   H11346159   1.401   4.803   6.347  0.4970  1.0030 -1.4158
  144MOL   C11446160   1.227   4.675   6.375 -0.2591 -0.1968 -0.0165
  144MOL   C11546161   1.234   4.531   6.312 -0.1373  0.2332  0.1041
  144MOL   C11646162   1.350   4.480   6.250 -0.2943 -0.1112  0.0343
  144MOL   C11746163   1.355   4.348   6.196 -0.3969 -0.4769  0.6444
  144MOL   C11846164   1.240   4.272   6.193 -0.3391 -0.4664  0.9750
  144MOL  Cl11946165   1.225   4.132   6.089 -0.4189 -0.1358  0.0847
  144MOL   C12046166   1.125   4.320   6.259  0.1540  0.4699  0.3636
  144MOL   C12146167   1.126   4.446   6.317  0.3054 -0.5282  0.1928
  144MOL   C12246168   1.253   4.692   6.525 -0.3984 -0.0526 -0.4245
  144MOL   H12346169   1.122   4.699   6.357 -0.5485 -2.1030 -0.9186
  144MOL   H12446170   1.441   4.538   6.258  0.3552 -1.2093  0.8811
  144MOL   H12546171   1.449   4.314   6.155 -1.1401 -2.8720  0.8426
  144MOL   H12646172   1.051   4.244   6.276 -0.1048  0.0642 -2.2399
  144MOL   H12746173   1.036   4.483   6.364 -1.1945 -0.6510 -2.4830
  144MOL   H12846174   1.246   4.792   6.568  0.3120 -0.1686 -0.0387
  144MOL   H12946175   1.171   4.631   6.564 -0.2629 -0.0953 -0.2027
  144MOL   C13046176   1.380   4.612   6.572 -0.2221  0.0849  0.3599
  144MOL   C13146177   1.482   4.697   6.645 -0.4380 -0.0502  0.3539
  144MOL   C13246178   1.482   4.720   6.787 -0.4688 -0.6675  0.4518
  144MOL   C13346179   1.579   4.805   6.840 -0.3230 -0.5290 -0.0944
  144MOL   C13446180   1.681   4.853   6.759 -0.3354 -0.4270 -0.0114
  144MOL  Cl13546181   1.812   4.943   6.825 -0.2224 -0.2370 -0.3068
  144MOL   C13646182   1.683   4.826   6.625 -0.3760  0.1945  0.1650
  144MOL   C13746183   1.584   4.748   6.571  0.2251  0.6424  0.4573
  144MOL   C13846184   1.341   4.478   6.646 -0.2405  0.8158 -0.3043
  144MOL   H13946185   1.434   4.576   6.485  1.9672  1.1606  1.2198
  144MOL   H14046186   1.398   4.683   6.845  0.3897  0.3118  2.3591
  144MOL   H14146187   1.565   4.825   6.945 -0.1976  3.9931 -0.8263
  144MOL   H14246188   1.766   4.861   6.566  0.7756 -0.8127  1.1425
  144MOL   H14346189   1.588   4.741   6.464  0.0582  0.0351  0.4916
  144MOL   H14446190   1.307   4.512   6.744 -3.1278 -0.2650 -0.8720
  144MOL   H14546191   1.248   4.447   6.598 -1.0123 -0.1490  1.7376
  144MOL   C14646192   1.433   4.360   6.650 -0.4923  0.3925  0.7154
  144MOL   C14746193   1.379   4.264   6.750 -0.2828  0.3230 -0.1877
  144MOL   C14846194   1.429   4.248   6.878 -0.6342 -0.5086 -1.1183
  144MOL   C14946195   1.371   4.169   6.973  0.5446 -0.4810 -0.1432
  144MOL   C15046196   1.245   4.105   6.947  0.5006  0.3849 -0.5342
  144MOL  Cl15146197   1.163   4.026   7.076 -0.2390  0.2451  0.2469
  144MOL   C15246198   1.190   4.118   6.817  0.2702  0.2643  0.6711
  144MOL   C15346199   1.262   4.186   6.714  0.4653 -0.7234 -0.7160
  144MOL   C15446200   1.477   4.291   6.519  0.7433 -0.0893  0.6056
  144MOL   H15546201   1.526   4.403   6.687  1.6863 -1.7005 -2.1045
  144MOL   H15646202   1.516   4.306   6.906 -1.3386 -0.7471  1.7549
  144MOL   H15746203   1.420   4.168   7.069  1.3104  0.3941 -0.5199
  144MOL   H15846204   1.095   4.071   6.796  0.5373  0.2497 -0.5309
  144MOL   H15946205   1.224   4.179   6.613  0.7840 -3.2938 -0.7042
  144MOL   H16046206   1.385   4.249   6.480 -0.2058  2.3024  0.1976
  144MOL   H16146207   1.509   4.366   6.446 -0.4707  0.0426  0.2037
  144MOL   C16246208   1.579   4.172   6.543  0.2563 -0.3351 -0.5088
  144MOL   C16346209   1.580   4.076   6.424  0.5316 -0.2069 -0.4849
  144MOL   C16446210   1.607   4.114   6.290 -0.4677 -0.0467 -0.0724
  144MOL   C16546211   1.612   4.010   6.189  0.3714 -0.2107 -0.0145
  144MOL   C16646212   1.578   3.878   6.223  0.0453 -0.4934 -0.0692
  144MOL  Cl16746213   1.554   3.778   6.095  0.4043 -0.0667 -0.0508
  144MOL   C16846214   1.548   3.841   6.348 -0.0685  0.0390 -0.7709
  144MOL   C16946215   1.542   3.940   6.444 -0.6086 -0.2077  0.0889
  144MOL   C17046216   1.727   4.227   6.557  0.9659  0.5771 -0.1372
  144MOL   H17146217   1.554   4.119   6.635 -4.5548  0.8563 -1.0000
  144MOL   H17246218   1.629   4.217   6.265 -0.6720  0.3361  1.2466
  144MOL   H17346219   1.644   4.040   6.090  2.6722 -0.9878  0.4725
  144MOL   H17446220   1.516   3.741   6.373 -0.5424  0.2670 -0.4630
  144MOL   H17546221   1.511   3.903   6.541  2.0436 -0.2573  0.9829
  144MOL   H17646222   1.763   4.265   6.462 -0.4350  1.2432 -0.4162
  144MOL   H17746223   1.732   4.319   6.616  0.0604  1.6297 -1.6678
  144MOL   C17846224   1.826   4.117   6.607 -0.5447 -0.0825  0.3869
  144MOL   C17946225   1.962   4.149   6.558  0.1534  0.5505  0.0442
  144MOL   C18046226   2.009   4.067   6.451  0.5050  0.5083 -0.6579
  144MOL   C18146227   2.141   4.095   6.403 -0.0407  0.2161  0.9016
  144MOL   C18246228   2.220   4.187   6.464 -0.9520  0.0619  0.5474
  144MOL  Cl18346229   2.376   4.235   6.401  0.2611 -0.1159  0.1642
  144MOL   C18446230   2.174   4.256   6.579 -0.4093 -1.0653 -0.1624
  144MOL   C18546231   2.041   4.242   6.622  0.5566  0.0737  0.7991
  144MOL   C18646232   1.817   4.116   6.758  0.2880 -0.2262 -0.2509
  144MOL   H18746233   1.781   4.023   6.573 -0.2659 -0.3855  0.8414
  144MOL   H18846234   1.942   3.991   6.414 -0.1350  0.8419 -0.1970
  144MOL   H18946235   2.179   4.039   6.318 -0.0646 -0.7184  1.4982
  144MOL   H19046236   2.232   4.323   6.640 -2.2106 -1.5292  2.1238
  144MOL   H19146237   2.003   4.304   6.701 -2.3164  0.1929 -0.6159
  144MOL   H19246238   1.868   4.196   6.813 -1.3196 -0.0242  0.9820
  144MOL   H19346239   1.714   4.149   6.774  0.7952  1.7537 -0.9803
  144MOL   C19446240   1.844   3.991   6.840 -0.0391  0.2659 -0.3084
  144MOL   C19546241   1.787   3.863   6.781  0.7427  0.5864 -0.2141
  144MOL   C19646242   1.666   3.805   6.826 -0.2383 -0.2223  0.0348
  144MOL   C19746243   1.611   3.696   6.760  0.1280  0.0102 -0.0099
  144MOL   C19846244   1.679   3.641   6.653  0.0423  0.1259  0.4377
  144MOL  Cl19946245   1.615   3.492   6.588 -0.2061 -0.0157  0.0087
  144MOL   C20046246   1.805   3.685   6.609 -0.1016  0.3512  0.4538
  144MOL   C20146247   1.862   3.798   6.675 -0.2809 -0.3944 -0.3684
  144MOL   C20246248   1.988   3.987   6.890 -0.0843  0.0574 -0.0095
  144MOL   H20346249   1.782   4.008   6.928 -0.0887  0.9071 -0.4670
  144MOL   H20446250   1.602   3.848   6.902 -1.4741  3.0422 -2.6974
  144MOL   H20546251   1.510   3.664   6.784 -0.6251  1.7167 -0.8434
  144MOL   H20646252   1.853   3.643   6.521 -1.9271  0.7370 -0.7510
  144MOL   H20746253   1.960   3.838   6.654  0.2849 -0.5304  1.8572
  144MOL   H20846254   2.048   3.974   6.800  3.2160 -2.4834  2.4403
  144MOL   H20946255   2.022   4.082   6.932  1.3998 -0.5424  0.1702
  144MOL   C21046256   2.023   3.861   6.979 -0.2109 -0.2016 -0.2132
  144MOL   C21146257   2.171   3.831   6.982 -0.1071 -0.1384  0.3960
  144MOL   C21246258   2.216   3.705   6.930  0.8367  0.0925 -0.3769
  144MOL   C21346259   2.353   3.676   6.942  0.5046 -0.1615 -0.1982
  144MOL   C21446260   2.439   3.771   7.000 -1.0172  0.2394 -1.2172
  144MOL  Cl21546261   2.603   3.737   7.018  0.3820  0.2083 -0.4308
  144MOL   C21646262   2.391   3.895   7.048  0.2707 -0.0298 -0.8576
  144MOL   C21746263   2.262   3.930   7.032  0.4364 -0.0472 -0.1502
  144MOL   C21846264   1.970   3.884   7.123  0.3705 -0.5991 -0.7565
  144MOL   H21946265   1.967   3.777   6.937 -0.0659 -0.9596  1.0705
  144MOL   H22046266   2.158   3.619   6.899  1.7974  0.3795 -3.0927
  144MOL   H22146267   2.382   3.578   6.908 -1.5505 -1.6371  2.1523
  144MOL   H22246268   2.453   3.969   7.097 -3.1410  0.8033  2.5048
  144MOL   H22346269   2.225   4.025   7.069  0.7517 -0.2010  0.5648
  144MOL   H22446270   2.027   3.957   7.179 -2.8139  1.0204  0.5245
  144MOL   H22546271   1.872   3.931   7.114  1.1060  0.9254 -0.9027
  144MOL   C22646272   1.953   3.761   7.218  0.7619 -0.5071  0.1048
  144MOL   C22746273   1.950   3.805   7.363  0.2864 -0.6408 -0.2112
  144MOL   C22846274   1.849   3.895   7.410  0.4548 -0.3808 -0.3322
  144MOL   C22946275   1.841   3.920   7.550  0.8320  0.2016 -0.1054
  144MOL   C23046276   1.947   3.884   7.638 -0.1158  0.4961  0.0668
  144MOL  Cl23146277   1.941   3.913   7.807  0.2008  0.0906  0.1650
  144MOL   C23246278   2.050   3.799   7.592 -0.7876  0.1834  0.0661
  144MOL   C23346279   2.055   3.764   7.455  0.3527  0.1892  0.6295
  144MOL   C23446280   1.831   3.667   7.195  0.3758 -0.2226  0.1806
  144MOL   H23546281   2.038   3.695   7.204 -1.6282 -3.0780 -2.9669
  144MOL   H23646282   1.770   3.933   7.347  0.4857  3.1062  1.5644
  144MOL   H23746283   1.758   3.979   7.587 -1.1106 -2.0601 -0.6933
  144MOL   H23846284   2.124   3.780   7.668 -1.1612 -0.2718  0.3216
  144MOL   H23946285   2.140   3.705   7.425 -0.1309 -0.0200 -0.3784
  144MOL   H24046286   1.762   3.665   7.278 -1.1745 -0.1893 -1.0840
  144MOL   H24146287   1.785   3.709   7.105 -0.3133  1.1220  1.1481
  144MOL   C24246288   1.864   3.518   7.157 -0.2290  0.2741  0.1592
  144MOL   C24346289   1.931   3.451   7.279  0.2222 -0.0886  0.4209
  144MOL   C24446290   1.889   3.466   7.414  0.5184  0.4732  0.3960
  144MOL   C24546291   1.956   3.405   7.524 -0.4654  0.0760 -0.3742
  144MOL   C24646292   2.078   3.340   7.500 -0.2336  0.0326 -0.5757
  144MOL  Cl24746293   2.178   3.278   7.633 -0.1268  0.1964 -0.3719
  144MOL   C24846294   2.123   3.334   7.364  0.7417  0.9738 -0.4382
  144MOL   C24946295   2.048   3.380   7.254 -0.2975 -0.1438 -0.3148
  144MOL   C25046296   1.743   3.449   7.091 -0.4301 -0.4616  0.1920
  144MOL   H25146297   1.942   3.527   7.082  1.5975 -0.1046  1.9728
  144MOL   H25246298   1.795   3.514   7.438  0.4292  1.7734 -2.3836
  144MOL   H25346299   1.918   3.409   7.625  1.1391  4.2455  0.1625
  144MOL   H25446300   2.215   3.277   7.353 -0.3072 -1.3563  2.2402
  144MOL   H25546301   2.100   3.374   7.159 -0.0845 -0.7935 -0.1583
  144MOL   H25646302   1.680   3.416   7.174 -0.5136 -2.2537 -0.5576
  144MOL   H25746303   1.685   3.513   7.026 -0.5013  1.6838  2.2772
  144MOL   C25846304   1.774   3.328   7.003 -0.2499  0.3428 -0.2515
  144MOL   C25946305   1.654   3.236   6.990  0.5526 -1.0962  0.3173
  144MOL   C26046306   1.642   3.122   7.072  0.2022 -0.2735  0.0061
  144MOL   C26146307   1.538   3.034   7.050  0.2559  0.0534 -0.6040
  144MOL   C26246308   1.445   3.057   6.944 -0.3705 -0.4120  0.3319
  144MOL  Cl26346309   1.313   2.955   6.913  0.0079 -0.0154  0.0477
  144MOL   C26446310   1.453   3.176   6.877  0.2317  0.1721 -0.2089
  144MOL   C26546311   1.559   3.273   6.894 -0.7023 -0.0090  0.4012
  144MOL   C26646312   1.839   3.376   6.866 -0.4080 -0.2813 -0.2601
  144MOL   H26746313   1.854   3.271   7.050  1.0006 -0.4220 -3.2409
  144MOL   H26846314   1.718   3.097   7.144  0.9545 -0.0615 -0.6974
  144MOL   H26946315   1.519   2.937   7.095 -1.4329  0.4069 -0.5298
  144MOL   H27046316   1.378   3.201   6.804 -1.2824 -1.9985  0.5394
  144MOL   H27146317   1.571   3.362   6.834 -1.5274 -1.2068 -1.5888
  144MOL   H27246318   1.766   3.359   6.787 -3.0271  1.6402  1.6570
  144MOL   H27346319   1.832   3.485   6.868  1.7367 -0.0682 -2.1310
  144MOL   C27446320   1.983   3.332   6.830 -0.4039  0.6477 -0.1940
  144MOL   C27546321   1.982   3.177   6.812  0.2155 -0.8162  0.0887
  144MOL   C27646322   1.910   3.127   6.702  1.3606 -0.2882  0.0371
  144MOL   C27746323   1.912   2.989   6.673 -0.1106 -0.1725 -0.1135
  144MOL   C27846324   1.977   2.904   6.765 -0.3288 -0.0535 -0.3365
  144MOL  Cl27946325   1.959   2.732   6.746  0.0104 -0.3316 -0.1713
  144MOL   C28046326   2.055   2.952   6.875 -0.2638  0.6067  0.2431
  144MOL   C28146327   2.048   3.092   6.906 -0.7734  1.0843  0.4263
  144MOL   C28246328   2.023   3.418   6.708  0.2125  0.0365 -0.0428
  144MOL   H28346329   2.045   3.360   6.915 -1.0931  0.2428  0.4505
  144MOL   H28446330   1.864   3.190   6.629  0.3456  1.9839  2.5766
  144MOL   H28546331   1.845   2.957   6.594 -0.4702  1.7261 -0.6040
  144MOL   H28646332   2.105   2.874   6.930 -1.6490 -0.6854 -0.2911
  144MOL   H28746333   2.110   3.140   6.980 -0.4856 -2.2535  2.4605
  144MOL   H28846334   1.937   3.420   6.641  0.6092 -2.3831 -0.6489
  144MOL   H28946335   2.049   3.522   6.732 -1.2083  0.7008 -1.3087
  144MOL   C29046336   2.149   3.370   6.632  0.2920  0.8872  0.4382
  144MOL   C29146337   2.175   3.458   6.515  0.6158  0.5845  0.4572
  144MOL   C29246338   2.177   3.392   6.392  0.0560  0.5765 -0.4004
  144MOL   C29346339   2.222   3.455   6.277  0.9480 -0.3251  0.7312
  144MOL   C29446340   2.249   3.595   6.276 -0.5740 -0.8587 -0.4061
  144MOL  Cl29546341   2.290   3.678   6.134  0.1660  0.2165  0.3572
  144MOL   C29646342   2.255   3.660   6.400  0.7597 -0.2164 -0.6823
  144MOL   C29746343   2.221   3.591   6.521 -0.2000 -0.0614  0.1995
  144MOL   C29846344   2.268   3.353   6.729 -0.5895 -0.2612 -0.0349
  144MOL   H29946345   2.136   3.270   6.592 -1.5737  0.9206  0.8795
  144MOL   H30046346   2.160   3.287   6.374  0.0812  0.3929  0.6153
  144MOL   H30146347   2.225   3.400   6.184 -0.2782  0.4427  0.2122
  144MOL   H30246348   2.289   3.762   6.408 -1.4232  0.4320  1.0024
  144MOL   H30346349   2.234   3.649   6.611  3.9677  1.3620 -1.1948
  144MOL   H30446350   2.281   3.451   6.776  0.3376  0.8650 -2.5611
  144MOL   H30546351   2.240   3.281   6.806 -0.4609  0.4587  0.6885
  144MOL   C30646352   2.403   3.321   6.668 -0.4794 -0.4849 -0.1730
  144MOL   C30746353   2.517   3.339   6.767 -0.7146 -0.7375  0.5525
  144MOL   C30846354   2.530   3.269   6.884  0.0170  0.3667  0.4396
  144MOL   C30946355   2.639   3.289   6.976  0.0640 -0.3379 -0.2120
  144MOL   C31046356   2.729   3.394   6.945 -1.2225 -0.0469 -1.6841
  144MOL  Cl31146357   2.849   3.448   7.057 -0.0595 -0.1534 -0.0828
  144MOL   C31246358   2.715   3.464   6.823 -0.5611 -0.4392 -0.4624
  144MOL   C31346359   2.609   3.438   6.734 -0.5766  0.4872 -0.1591
  144MOL   C31446360   2.401   3.176   6.619 -0.7908 -0.3359 -0.4848
  144MOL   H31546361   2.428   3.390   6.588  3.8869 -0.6937  0.8794
  144MOL   H31646362   2.462   3.190   6.912  1.3188 -1.0714 -0.3513
  144MOL   H31746363   2.647   3.243   7.073 -0.4001 -0.7495 -0.3672
  144MOL   H31846364   2.790   3.536   6.793 -0.1270 -0.2434  1.0755
  144MOL   H31946365   2.602   3.488   6.638  2.1078 -2.0191 -1.7856
  144MOL   H32046366   2.316   3.168   6.551 -1.3832 -0.4681  0.2636
  144MOL   H32146367   2.485   3.143   6.558 -1.8947 -1.5474 -1.3798
  144MOL   H32246368   2.382   3.109   6.703 -0.4186  0.1935  0.0274
  145MOL     C146369   1.956   2.541   3.968 -0.0524 -0.2918  1.2510
  145MOL     C246370   1.831   2.468   3.932 -0.0585 -0.0490  0.6628
  145MOL     C346371   1.708   2.540   3.908  0.1804 -0.3579  0.0488
  145MOL     C446372   1.592   2.463   3.895 -0.5024  0.1952  0.0938
  145MOL     C546373   1.591   2.323   3.900 -0.6168  0.1591 -0.2555
  145MOL    Cl646374   1.442   2.234   3.885 -0.2906 -0.1607  0.3854
  145MOL     C746375   1.716   2.255   3.919  0.5613 -0.3792 -0.7725
  145MOL     C846376   1.832   2.322   3.944 -0.2558 -0.7473  0.5483
  145MOL     C946377   1.937   2.624   4.094  0.1318 -0.2035 -0.0001
  145MOL    H1046378   1.970   2.607   3.882 -0.9604 -1.3647  0.2501
  145MOL    H1146379   1.706   2.647   3.894 -3.5350 -0.3527 -0.0865
  145MOL    H1246380   1.501   2.519   3.878  0.8257  1.7897 -2.0708
  145MOL    H1346381   1.719   2.148   3.910  1.1469 -0.2935 -1.5638
  145MOL    H1446382   1.922   2.263   3.955  0.0010 -0.5467 -0.4850
  145MOL    H1546383   1.840   2.675   4.089  0.5302  0.5094 -0.5290
  145MOL    H1646384   1.928   2.560   4.182 -1.8421  1.9667  1.4394
  145MOL    H1746385   2.040   2.473   3.957  0.4566  0.6287 -0.7017
  145MOL    C1846386   2.049   2.734   4.118 -0.2922  0.6217  0.3866
  145MOL    C1946387   2.108   2.811   3.998  0.0367  0.3329  0.2933
  145MOL    C2046388   2.024   2.887   3.910  0.4356  0.5733 -0.2824
  145MOL    C2146389   2.081   2.953   3.802  0.0101  0.5226 -0.0523
  145MOL    C2246390   2.219   2.940   3.774 -0.3435  0.0012  0.0222
  145MOL   Cl2346391   2.268   3.004   3.624  0.1967 -0.1820 -0.1422
  145MOL    C2446392   2.303   2.869   3.855 -0.2239  0.1067  0.4463
  145MOL    C2546393   2.249   2.800   3.974 -0.5611  0.1609 -0.0775
  145MOL    C2646394   1.995   2.834   4.218  0.4061 -0.8335 -0.1366
  145MOL    H2746395   2.129   2.675   4.163  0.1847  0.0873 -1.1213
  145MOL    H2846396   1.918   2.901   3.921 -0.0160 -3.5095  1.4534
  145MOL    H2946397   2.031   3.024   3.737  0.4584 -0.8773 -1.9899
  145MOL    H3046398   2.404   2.849   3.823  0.1081  0.7627  1.0696
  145MOL    H3146399   2.304   2.737   4.042 -1.2061 -1.6020 -1.1394
  145MOL    H3246400   2.064   2.917   4.228 -0.0039 -0.5328  0.2113
  145MOL    H3346401   1.903   2.882   4.185 -0.5502 -1.8686  0.9504
  145MOL    C3446402   1.974   2.782   4.367  0.6475 -0.5135 -1.2363
  145MOL    C3546403   2.104   2.709   4.427 -0.4136 -0.8316  0.1420
  145MOL    C3646404   2.103   2.577   4.478 -0.1889  0.1101  0.2770
  145MOL    C3746405   2.224   2.514   4.505 -0.2194 -0.1667 -0.0059
  145MOL    C3846406   2.342   2.584   4.488 -0.0306  0.4666  0.1688
  145MOL   Cl3946407   2.487   2.500   4.522 -0.2228 -0.3380 -0.3535
  145MOL    C4046408   2.345   2.719   4.450 -0.0168 -0.4329  0.4690
  145MOL    C4146409   2.225   2.783   4.415 -0.7631  0.0544 -0.4590
  145MOL    C4246410   1.923   2.903   4.450 -0.7453  0.0832 -0.1019
  145MOL    H4346411   1.899   2.703   4.363  1.3904 -1.2809 -0.3731
  145MOL    H4446412   2.016   2.513   4.484  0.2770 -0.6206 -0.6860
  145MOL    H4546413   2.230   2.410   4.534 -2.9826 -0.4013 -0.1459
  145MOL    H4646414   2.431   2.780   4.429 -0.9060  1.6710  2.6883
  145MOL    H4746415   2.223   2.883   4.376  2.0281 -0.0014 -0.8356
  145MOL    H4846416   1.979   2.989   4.412  0.6787 -1.5851 -1.8814
  145MOL    H4946417   1.818   2.923   4.428 -0.8461 -1.0381 -0.6859
  145MOL    C5046418   1.968   2.907   4.602 -0.8546  0.5059 -0.3127
  145MOL    C5146419   1.927   3.049   4.657 -0.0712  0.1767 -0.4439
  145MOL    C5246420   1.794   3.079   4.689 -0.4612  0.4725 -1.0713
  145MOL    C5346421   1.760   3.206   4.743 -0.0470 -0.2089  0.0822
  145MOL    C5446422   1.851   3.313   4.741  0.3366  0.0930  0.3464
  145MOL   Cl5546423   1.813   3.459   4.826 -0.0606  0.2939  0.0588
  145MOL    C5646424   1.980   3.283   4.702  0.7609 -0.6932  0.2073
  145MOL    C5746425   2.021   3.153   4.665 -0.7256 -0.2015 -0.6777
  145MOL    C5846426   1.922   2.791   4.690 -0.0848  0.1704 -0.3414
  145MOL    H5946427   2.076   2.894   4.606 -0.9388 -1.0947 -2.5369
  145MOL    H6046428   1.718   3.005   4.667 -0.6273  1.2343 -3.2328
  145MOL    H6146429   1.661   3.232   4.777 -0.3998 -2.1945  0.6191
  145MOL    H6246430   2.053   3.363   4.701  0.3527 -0.3190  0.3155
  145MOL    H6346431   2.123   3.143   4.632 -0.6240  0.1913 -0.4891
  145MOL    H6446432   1.816   2.813   4.704 -0.3183 -1.3720  0.4845
  145MOL    H6546433   1.932   2.697   4.636 -1.2682 -0.0096 -0.2653
  145MOL    C6646434   2.001   2.777   4.827 -0.3717 -0.0552 -0.3161
  145MOL    C6746435   2.001   2.899   4.915 -0.9782 -0.2454  0.8033
  145MOL    C6846436   2.118   2.960   4.956  0.0334  0.0500 -0.2438
  145MOL    C6946437   2.116   3.071   5.043  0.0884 -0.1847  0.5676
  145MOL    C7046438   1.994   3.124   5.085  0.5881 -0.4514  0.4577
  145MOL   Cl7146439   1.996   3.265   5.188 -0.3743 -0.3685  0.1693
  145MOL    C7246440   1.875   3.067   5.047 -0.0574 -1.0775  0.0798
  145MOL    C7346441   1.882   2.953   4.963 -0.3185 -0.1361  0.5683
  145MOL    C7446442   1.961   2.652   4.917  0.6129 -0.7148  0.3982
  145MOL    H7546443   2.103   2.755   4.795 -0.3782 -1.4562  0.5697
  145MOL    H7646444   2.216   2.929   4.924 -0.3160 -0.5577 -0.7423
  145MOL    H7746445   2.205   3.125   5.074 -0.2787 -0.2873  1.8423
  145MOL    H7846446   1.780   3.114   5.069  1.2677  1.6054  0.1505
  145MOL    H7946447   1.794   2.899   4.931  1.2373 -1.9579 -0.7177
  145MOL    H8046448   1.957   2.684   5.021  1.3559 -2.0240  0.8502
  145MOL    H8146449   1.861   2.632   4.881  0.3660 -1.1466  1.2989
  145MOL    C8246450   2.052   2.527   4.890  0.2414 -0.3737 -0.2263
  145MOL    C8346451   2.192   2.544   4.932 -0.2991 -0.1837 -0.6011
  145MOL    C8446452   2.293   2.473   4.866 -0.5652 -0.7534 -0.5080
  145MOL    C8546453   2.426   2.488   4.896 -0.2883 -0.0877 -0.0623
  145MOL    C8646454   2.466   2.576   5.006  0.9411  0.3556 -0.0586
  145MOL   Cl8746455   2.639   2.586   5.038  0.0679 -0.0440  0.0559
  145MOL    C8846456   2.370   2.644   5.081 -0.2503 -0.3732  0.0586
  145MOL    C8946457   2.233   2.625   5.047 -0.1084  0.6055  0.1188
  145MOL    C9046458   1.986   2.400   4.960  0.7348  0.6113  0.2633
  145MOL    H9146459   2.067   2.513   4.783  2.9714  1.1245 -0.0784
  145MOL    H9246460   2.281   2.417   4.775  0.8777 -2.3081  0.2129
  145MOL    H9346461   2.511   2.436   4.856 -0.0474 -0.3363  0.7654
  145MOL    H9446462   2.409   2.688   5.171 -0.5002 -0.5118  0.2349
  145MOL    H9546463   2.151   2.665   5.105 -3.7772 -2.2854 -2.8933
  145MOL    H9646464   2.056   2.327   5.000  0.0136 -0.8359 -1.0625
  145MOL    H9746465   1.933   2.421   5.053 -1.6383 -2.4965 -0.2941
  145MOL    C9846466   1.882   2.326   4.877  0.5509  1.0306 -0.2917
  145MOL    C9946467   1.927   2.287   4.732 -0.1914 -0.2981 -0.6778
  145MOL   C10046468   1.832   2.315   4.630  0.1867  0.6232 -0.4220
  145MOL   C10146469   1.860   2.266   4.496 -0.5857 -0.2980 -0.2182
  145MOL   C10246470   1.981   2.204   4.468 -0.4656  0.5376 -0.0416
  145MOL  Cl10346471   2.023   2.151   4.315  0.0108 -0.2347 -0.5003
  145MOL   C10446472   2.071   2.182   4.574 -0.8727 -0.4635 -0.5487
  145MOL   C10546473   2.054   2.232   4.703 -0.4915 -0.1440 -0.2314
  145MOL   C10646474   1.828   2.207   4.955 -0.1121  0.3716 -0.3523
  145MOL   H10746475   1.792   2.387   4.871 -0.3433 -0.2833 -0.4570
  145MOL   H10846476   1.743   2.371   4.652 -0.0714 -0.5773  1.6886
  145MOL   H10946477   1.791   2.285   4.416 -0.8001 -2.3957 -0.5662
  145MOL   H11046478   2.166   2.143   4.542 -0.4354 -1.1920  1.5571
  145MOL   H11146479   2.122   2.213   4.785 -1.5438 -0.6945  0.5216
  145MOL   H11246480   1.916   2.151   4.986  1.5014  2.1590 -1.6327
  145MOL   H11346481   1.787   2.231   5.053 -0.8212 -0.8508 -0.3370
  145MOL   C11446482   1.732   2.109   4.876  0.4861 -0.4875 -0.4436
  145MOL   C11546483   1.726   1.978   4.951  0.0562  0.3813  0.6871
  145MOL   C11646484   1.815   1.873   4.923 -0.0706 -0.7345  0.6411
  145MOL   C11746485   1.812   1.746   4.980 -0.2462 -0.2958 -0.3432
  145MOL   C11846486   1.699   1.714   5.060 -0.1043  0.2494 -0.0730
  145MOL  Cl11946487   1.685   1.553   5.125 -0.2085 -0.1724  0.6762
  145MOL   C12046488   1.603   1.813   5.092  0.5157  0.5098 -0.0866
  145MOL   C12146489   1.617   1.945   5.037  0.0127 -0.2870 -0.1682
  145MOL   C12246490   1.588   2.162   4.845  0.0578 -0.7347  0.2454
  145MOL   H12346491   1.764   2.101   4.772  1.6575 -2.7912  0.0514
  145MOL   H12446492   1.901   1.890   4.859 -2.2934  2.1989 -1.7128
  145MOL   H12546493   1.885   1.684   4.930  1.3163  0.6355  0.7478
  145MOL   H12646494   1.517   1.791   5.154  0.0814  2.1714 -0.0706
  145MOL   H12746495   1.543   2.018   5.068 -0.6852 -1.3573  0.7156
  145MOL   H12846496   1.533   2.192   4.933 -0.8468 -0.8713 -0.2725
  145MOL   H12946497   1.602   2.255   4.791 -1.3963  0.5148  1.9728
  145MOL   C13046498   1.499   2.061   4.766  0.1575  0.2722  0.2925
  145MOL   C13146499   1.358   2.115   4.778 -0.2742 -0.5161  0.0186
  145MOL   C13246500   1.328   2.229   4.696 -0.0663 -0.6792 -0.8191
  145MOL   C13346501   1.204   2.290   4.697 -0.0150  0.5873 -0.7004
  145MOL   C13446502   1.108   2.239   4.791 -0.4428 -1.1569  0.8963
  145MOL  Cl13546503   0.949   2.295   4.771 -0.0578 -0.3876  0.0197
  145MOL   C13646504   1.137   2.133   4.877  0.7824 -0.0352 -0.5895
  145MOL   C13746505   1.265   2.073   4.873  0.6793  0.1630 -0.3682
  145MOL   C13846506   1.549   2.038   4.617  0.3230  0.0562  0.1686
  145MOL   H13946507   1.491   1.963   4.812  0.5916 -0.1585 -0.5321
  145MOL   H14046508   1.404   2.277   4.636  0.3417 -0.5278 -0.1886
  145MOL   H14146509   1.182   2.378   4.639 -0.5764  1.1513  0.3471
  145MOL   H14246510   1.067   2.092   4.949  1.1047 -0.9861 -0.8008
  145MOL   H14346511   1.281   1.988   4.938  1.5890  1.5357  1.2868
  145MOL   H14446512   1.576   2.136   4.576  3.2767 -0.1950  1.4335
  145MOL   H14546513   1.634   1.971   4.613  0.7351  0.6389 -1.0719
  145MOL   C14646514   1.445   1.964   4.524  0.3340 -0.0286  0.3447
  145MOL   C14746515   1.411   2.064   4.417  0.0027 -0.3958  0.3400
  145MOL   C14846516   1.505   2.106   4.323 -0.0260 -0.6680 -0.5525
  145MOL   C14946517   1.474   2.217   4.242 -0.1298 -0.3681 -0.0221
  145MOL   C15046518   1.343   2.276   4.249 -0.8445 -0.3996 -0.0131
  145MOL  Cl15146519   1.314   2.407   4.140 -0.1478 -0.0999 -0.2825
  145MOL   C15246520   1.247   2.234   4.341  0.0986  0.0493 -0.5850
  145MOL   C15346521   1.280   2.123   4.426 -0.0753 -0.5340 -0.0091
  145MOL   C15446522   1.493   1.824   4.462 -0.3327 -0.3180  0.0709
  145MOL   H15546523   1.352   1.949   4.579 -0.1602  1.5573 -0.0368
  145MOL   H15646524   1.606   2.068   4.318 -0.4902 -1.6336 -3.7335
  145MOL   H15746525   1.555   2.254   4.182  2.3165 -1.1247  2.7100
  145MOL   H15846526   1.153   2.285   4.356  0.0178 -0.2117 -0.1967
  145MOL   H15946527   1.203   2.079   4.488  0.4503 -0.1617  0.9329
  145MOL   H16046528   1.420   1.810   4.382 -1.3416 -1.8658  1.2429
  145MOL   H16146529   1.589   1.828   4.410  1.5151  1.1453  3.4494
  145MOL   C16246530   1.495   1.703   4.560 -0.8682  0.3785  0.2196
  145MOL   C16346531   1.375   1.698   4.654 -0.5357  0.1946 -0.2798
  145MOL   C16446532   1.391   1.691   4.793  0.5729  0.3511 -0.1566
  145MOL   C16546533   1.275   1.686   4.877 -0.6359  0.2046 -0.9347
  145MOL   C16646534   1.147   1.708   4.826 -0.1436 -0.5913  0.1667
  145MOL  Cl16746535   1.011   1.712   4.936 -0.0392  0.2347  0.0984
  145MOL   C16846536   1.132   1.707   4.688  0.3989  0.5333  0.1651
  145MOL   C16946537   1.246   1.696   4.599 -0.3129  0.9185 -0.7793
  145MOL   C17046538   1.498   1.575   4.471 -0.6845  0.7768 -0.4859
  145MOL   H17146539   1.582   1.714   4.626 -0.9807 -1.4470  0.6981
  145MOL   H17246540   1.487   1.679   4.840  0.8983  0.7058 -0.7210
  145MOL   H17346541   1.288   1.685   4.984  1.0497  0.2952 -1.1266
  145MOL   H17446542   1.031   1.701   4.649 -0.4916  0.1051  2.4442
  145MOL   H17546543   1.236   1.693   4.492  0.8758 -1.0214 -0.8685
  145MOL   H17646544   1.405   1.577   4.414 -0.9170 -0.3491 -0.1480
  145MOL   H17746545   1.578   1.576   4.397 -0.1981  1.2391  0.0455
  145MOL   C17846546   1.496   1.437   4.538  0.3900  0.7941  0.0155
  145MOL   C17946547   1.473   1.329   4.431  0.8382  0.9613  0.0205
  145MOL   C18046548   1.577   1.272   4.353 -0.2740  0.2016  0.0073
  145MOL   C18146549   1.550   1.178   4.253  0.2637 -0.9160  1.0145
  145MOL   C18246550   1.417   1.140   4.220 -0.7393 -0.0983 -0.1441
  145MOL  Cl18346551   1.400   1.017   4.106  0.1193  0.4412  0.4528
  145MOL   C18446552   1.318   1.200   4.294 -0.6093  0.0397 -0.3969
  145MOL   C18546553   1.338   1.297   4.396 -0.1552  0.2271  0.5073
  145MOL   C18646554   1.614   1.413   4.629 -0.3026 -0.1472  0.0989
  145MOL   H18746555   1.411   1.438   4.606 -0.9504  0.7438 -1.6339
  145MOL   H18846556   1.676   1.307   4.379  0.3057 -1.2618 -0.2062
  145MOL   H18946557   1.629   1.131   4.196 -0.5173 -1.8041  0.6460
  145MOL   H19046558   1.214   1.176   4.279 -0.2446 -2.2600  0.5442
  145MOL   H19146559   1.269   1.342   4.466 -1.2167  3.1941 -2.3145
  145MOL   H19246560   1.705   1.453   4.583 -0.1254 -1.4066 -0.6586
  145MOL   H19346561   1.599   1.484   4.710  0.0266 -0.5852  0.5501
  145MOL   C19446562   1.656   1.277   4.685  0.5900 -0.0012  0.4342
  145MOL   C19546563   1.798   1.298   4.737 -0.7447  0.3535  0.2982
  145MOL   C19646564   1.823   1.393   4.839 -0.1820 -0.2611  1.3255
  145MOL   C19746565   1.958   1.423   4.880  0.1545  0.2997 -0.2080
  145MOL   C19846566   2.065   1.350   4.823 -0.1910  0.0639  0.3197
  145MOL  Cl19946567   2.232   1.361   4.851 -0.2279 -0.0960 -0.0566
  145MOL   C20046568   2.035   1.247   4.728 -0.8020  0.4732  0.7116
  145MOL   C20146569   1.905   1.220   4.683  0.3753  0.2885 -0.8257
  145MOL   C20246570   1.563   1.210   4.797  0.3449 -0.7501  0.3040
  145MOL   H20346571   1.660   1.217   4.594 -2.6260  1.3013 -0.6013
  145MOL   H20446572   1.743   1.442   4.892 -0.2617  1.2784 -0.1686
  145MOL   H20546573   1.992   1.484   4.962 -0.7003 -1.7037  1.6780
  145MOL   H20646574   2.112   1.188   4.680 -2.7602 -0.4415 -1.4101
  145MOL   H20746575   1.888   1.153   4.601 -1.8346  1.4972 -1.3759
  145MOL   H20846576   1.633   1.159   4.864  0.3808  0.7565  1.4491
  145MOL   H20946577   1.514   1.286   4.858  0.8940 -0.1215 -0.0275
  145MOL   C21046578   1.457   1.117   4.748 -0.3339  1.4328 -0.0492
  145MOL   C21146579   1.516   0.996   4.670 -0.2401 -0.0768  0.4503
  145MOL   C21246580   1.466   0.971   4.539  0.4233  0.1431  0.4617
  145MOL   C21346581   1.519   0.863   4.458 -0.4187 -0.3568  0.1099
  145MOL   C21446582   1.585   0.761   4.527  0.4534  0.0803 -0.2208
  145MOL  Cl21546583   1.611   0.602   4.455 -0.0234  0.0181 -0.1287
  145MOL   C21646584   1.635   0.780   4.655  0.6984 -1.5675  0.1654
  145MOL   C21746585   1.606   0.902   4.725 -0.4888 -0.2427  0.4597
  145MOL   C21846586   1.372   1.061   4.859 -0.4781 -0.0650  0.2558
  145MOL   H21946587   1.396   1.169   4.673 -2.2383 -2.1029 -1.0645
  145MOL   H22046588   1.392   1.038   4.499  0.8250 -0.9442 -2.1719
  145MOL   H22146589   1.470   0.837   4.366  0.0664  0.9330 -0.5226
  145MOL   H22246590   1.689   0.709   4.717  1.5750 -0.3657  0.8235
  145MOL   H22346591   1.649   0.921   4.822  0.6171  0.2228 -0.1123
  145MOL   H22446592   1.331   0.965   4.828 -1.5795  0.0797  1.2017
  145MOL   H22546593   1.438   1.037   4.942 -1.6684 -0.1236  1.2009
  145MOL   C22646594   1.247   1.147   4.912 -0.2171  0.4986  0.1084
  145MOL   C22746595   1.147   1.180   4.798 -0.6131 -0.9520  1.3962
  145MOL   C22846596   1.078   1.084   4.722 -0.3906 -0.1298  0.5374
  145MOL   C22946597   0.999   1.126   4.611 -0.0147 -0.0724 -0.1253
  145MOL   C23046598   0.985   1.259   4.572  0.1897 -0.1381  0.1353
  145MOL  Cl23146599   0.879   1.306   4.439  0.2581 -0.0973  0.1837
  145MOL   C23246600   1.066   1.353   4.634  0.3223  0.3353 -0.6733
  145MOL   C23346601   1.140   1.313   4.748 -0.0320 -0.7136  0.8135
  145MOL   C23446602   1.178   1.069   5.027  0.4738 -0.0047 -0.4140
  145MOL   H23546603   1.287   1.241   4.950 -0.9188  1.1324 -0.6930
  145MOL   H23646604   1.082   0.979   4.747 -1.8803 -0.7669 -1.7327
  145MOL   H23746605   0.930   1.059   4.562 -0.1435  0.3995 -0.5893
  145MOL   H23846606   1.073   1.456   4.601  1.5438  0.0744 -1.2959
  145MOL   H23946607   1.207   1.386   4.791  0.0778 -0.3287 -0.0214
  145MOL   H24046608   1.139   0.979   4.980 -1.4176  0.9373 -0.6979
  145MOL   H24146609   1.259   1.043   5.095  0.8359 -2.0488 -1.6129
  145MOL   C24246610   1.064   1.145   5.102 -1.0602  0.1198 -0.2498
  145MOL   C24346611   0.926   1.127   5.034 -0.1685 -0.2868  0.2637
  145MOL   C24446612   0.870   1.001   5.009  0.3520 -0.3084 -0.3794
  145MOL   C24546613   0.732   0.986   4.967 -0.0313  0.0125 -0.4176
  145MOL   C24646614   0.652   1.103   4.943 -0.0590 -0.2517 -0.3097
  145MOL  Cl24746615   0.484   1.099   4.895 -0.7735  0.0970  0.3658
  145MOL   C24846616   0.708   1.230   4.961 -0.3254 -0.5942  0.0017
  145MOL   C24946617   0.850   1.243   5.003  0.6114 -0.5315 -0.1413
  145MOL   C25046618   1.060   1.105   5.248  0.1821  0.0111 -0.4809
  145MOL   H25146619   1.089   1.250   5.091 -1.5393  0.2787  0.1700
  145MOL   H25246620   0.930   0.912   5.026 -0.2356 -1.0291 -1.9382
  145MOL   H25346621   0.687   0.890   4.947 -0.1601  0.5244 -2.8269
  145MOL   H25446622   0.652   1.321   4.949 -0.5822 -0.4686  1.9533
  145MOL   H25546623   0.896   1.341   5.008 -3.2873  1.2819  2.5102
  145MOL   H25646624   0.965   1.140   5.288 -0.4927  0.2928 -2.2982
  145MOL   H25746625   1.045   0.997   5.250 -1.2744  0.1898 -1.1315
  145MOL   C25846626   1.185   1.153   5.332  0.1638  0.1703  0.0654
  145MOL   C25946627   1.206   1.307   5.329 -0.0225  0.1723 -0.3188
  145MOL   C26046628   1.337   1.355   5.311 -0.4169 -0.2752 -0.6733
  145MOL   C26146629   1.356   1.496   5.303  0.3192 -0.3569 -0.2651
  145MOL   C26246630   1.243   1.582   5.304  0.9974 -0.2225  0.2158
  145MOL  Cl26346631   1.263   1.754   5.304  0.9215 -0.0985  0.5995
  145MOL   C26446632   1.114   1.530   5.311  1.1103  0.6528  0.4452
  145MOL   C26546633   1.099   1.396   5.328 -0.3599  0.1952  0.2045
  145MOL   C26646634   1.163   1.108   5.474 -0.5283 -0.3726  0.2957
  145MOL   H26746635   1.277   1.116   5.287 -0.8170 -1.8621 -0.3417
  145MOL   H26846636   1.422   1.288   5.317  0.2189  0.5212 -0.6942
  145MOL   H26946637   1.455   1.539   5.302  0.2733 -0.2723 -1.1780
  145MOL   H27046638   1.023   1.589   5.303  0.6333 -0.1334 -0.0573
  145MOL   H27146639   0.999   1.357   5.339  0.0753 -0.4676  1.9231
  145MOL   H27246640   1.212   1.176   5.543  2.8640 -1.4931 -0.9196
  145MOL   H27346641   1.056   1.110   5.498 -0.6570  1.1250 -0.3508
  145MOL   C27446642   1.216   0.959   5.497  0.2159 -0.1014  0.3445
  145MOL   C27546643   1.368   0.963   5.483 -0.3611 -0.5162 -0.3000
  145MOL   C27646644   1.442   1.042   5.576  0.0823 -0.3973  0.0095
  145MOL   C27746645   1.586   1.024   5.582 -0.0854  0.7807 -0.2394
  145MOL   C27846646   1.654   0.946   5.485 -0.0753  0.0617 -0.0697
  145MOL  Cl27946647   1.819   0.928   5.513  0.0251 -0.5301  0.2329
  145MOL   C28046648   1.574   0.877   5.390 -0.6478 -0.1257 -0.3350
  145MOL   C28146649   1.436   0.886   5.388  0.2963 -0.5159  0.0652
  145MOL   C28246650   1.167   0.901   5.635  0.1843  0.5489  0.3566
  145MOL   H28346651   1.178   0.896   5.416  0.2937 -0.0491  0.2669
  145MOL   H28446652   1.397   1.105   5.651 -1.4939 -0.5441 -0.7931
  145MOL   H28546653   1.633   1.074   5.665  1.7545  0.1191 -0.8573
  145MOL   H28646654   1.629   0.815   5.321  2.0453 -0.1585  1.7475
  145MOL   H28746655   1.381   0.834   5.311  1.8519 -0.6481 -0.9945
  145MOL   H28846656   1.242   0.932   5.708  0.0930 -0.5065  0.9146
  145MOL   H28946657   1.076   0.956   5.657  0.7236  1.2867  0.7399
  145MOL   C29046658   1.146   0.743   5.651 -0.8817 -0.0004 -0.0163
  145MOL   C29146659   1.273   0.668   5.599  0.8033 -0.0653 -0.0844
  145MOL   C29246660   1.258   0.587   5.487  0.7241 -0.5358 -0.3698
  145MOL   C29346661   1.366   0.518   5.436  0.7783  0.4630  0.2376
  145MOL   C29446662   1.497   0.536   5.489  0.2500 -0.2349  0.3324
  145MOL  Cl29546663   1.634   0.453   5.430 -0.2042 -0.0586 -0.3822
  145MOL   C29646664   1.511   0.621   5.598  0.1341  0.3750  0.2384
  145MOL   C29746665   1.402   0.686   5.659 -0.2732  0.9850  0.0401
  145MOL   C29846666   1.114   0.712   5.798  0.1702 -0.5863  0.2198
  145MOL   H29946667   1.062   0.712   5.588 -0.2316  0.1611 -0.9774
  145MOL   H30046668   1.162   0.576   5.439  2.0977 -1.7833 -3.0259
  145MOL   H30146669   1.345   0.460   5.347 -0.7849  0.2375  0.7251
  145MOL   H30246670   1.609   0.646   5.634 -0.4433  2.4089  0.4862
  145MOL   H30346671   1.414   0.754   5.742  0.1909  0.3661  0.4901
  145MOL   H30446672   1.205   0.726   5.856  0.3924  2.6352 -0.8167
  145MOL   H30546673   1.047   0.788   5.839  1.9140  0.5121  1.0615
  145MOL   C30646674   1.053   0.571   5.837  0.5692 -0.1348  0.3663
  145MOL   C30746675   1.064   0.544   5.987  0.1974 -0.0471 -0.3963
  145MOL   C30846676   1.146   0.443   6.049 -0.1417 -0.4761  0.3145
  145MOL   C30946677   1.158   0.427   6.190  0.1335 -0.1726 -0.2933
  145MOL   C31046678   1.084   0.507   6.278  0.2049  0.2648 -0.0601
  145MOL  Cl31146679   1.101   0.502   6.451  0.0999 -0.1613 -0.1553
  145MOL   C31246680   0.998   0.600   6.222 -0.1520  0.1410 -0.2187
  145MOL   C31346681   0.987   0.615   6.084  0.5646  0.2317  0.3751
  145MOL   C31446682   0.910   0.558   5.783  0.6024  0.3381 -0.0708
  145MOL   H31546683   1.106   0.491   5.785 -0.5118 -1.2638  0.9742
  145MOL   H31646684   1.196   0.378   5.979 -1.6977 -2.2216  0.7710
  145MOL   H31746685   1.230   0.352   6.220 -0.8584 -1.3185 -0.7223
  145MOL   H31846686   0.944   0.667   6.288 -0.6499 -0.8828  0.4184
  145MOL   H31946687   0.921   0.690   6.043  0.2564  0.0061  0.4603
  145MOL   H32046688   0.892   0.572   5.676  1.8379 -0.2651 -0.3605
  145MOL   H32146689   0.858   0.466   5.808  0.8675  0.7138  1.9113
  145MOL   H32246690   0.848   0.631   5.836  0.6529  1.6524 -1.7337
  146MOL     C146691   5.276   8.244   7.982  0.2580  0.5104 -0.0275
  146MOL     C246692   5.420   8.195   7.974  0.0784 -0.4691  0.6463
  146MOL     C346693   5.523   8.245   8.059 -0.3606  0.3855  0.7667
  146MOL     C446694   5.655   8.202   8.037  0.1222  0.2942 -0.1923
  146MOL     C546695   5.691   8.109   7.940  0.2391  0.3158 -0.1291
  146MOL    Cl646696   5.850   8.043   7.949  0.1747  0.0843  0.3013
  146MOL     C746697   5.587   8.057   7.859 -0.6014 -0.1322  0.2147
  146MOL     C846698   5.456   8.099   7.875  1.0028 -0.3052  0.3794
  146MOL     C946699   5.245   8.373   7.897 -0.6085  0.7177  0.4277
  146MOL    H1046700   5.260   8.258   8.089 -3.0311  0.7565 -0.4955
  146MOL    H1146701   5.498   8.333   8.117  0.7654  2.1984 -1.3745
  146MOL    H1246702   5.738   8.249   8.088  0.7698 -1.3026  0.2594
  146MOL    H1346703   5.607   7.978   7.788  0.5248 -1.2359  1.7346
  146MOL    H1446704   5.376   8.052   7.818 -0.2881  0.8171  1.2334
  146MOL    H1546705   5.313   0.013   7.916 -0.2942  0.0702  2.2676
  146MOL    H1646706   5.258   8.360   7.790 -2.0567  1.8319  0.0928
  146MOL    H1746707   5.211   8.165   7.946  0.2384  0.2553  0.5616
  146MOL    C1846708   5.104   8.432   7.914  0.0748 -0.1042 -0.1992
  146MOL    C1946709   5.102   0.128   7.847 -0.1951 -0.4560  0.5953
  146MOL    C2046710   5.150   0.163   7.717 -0.1911 -0.3391  0.5265
  146MOL    C2146711   5.133   0.287   7.657 -0.1906 -0.0714 -0.5722
  146MOL    C2246712   5.056   0.385   7.729 -0.2578  0.6955 -0.1974
  146MOL   Cl2346713   5.034   0.544   7.668 -0.3897  0.2745 -0.1825
  146MOL    C2446714   5.017   0.365   7.866 -0.1881  0.1321  0.0568
  146MOL    C2546715   5.044   0.237   7.917 -0.4588 -0.2960 -0.5460
  146MOL    C2646716   4.987   8.340   7.863 -0.2250 -0.2090 -0.3653
  146MOL    H2746717   5.105   8.436   8.023  1.3576 -0.1559 -0.2007
  146MOL    H2846718   5.200   0.082   7.665 -0.7612  0.1475 -0.8000
  146MOL    H2946719   5.173   0.315   7.561 -0.2224 -1.0517 -0.8765
  146MOL    H3046720   4.960   0.442   7.915  0.8496  0.7887  0.2503
  146MOL    H3146721   5.011   0.213   8.017  0.6558  3.3008  0.7789
  146MOL    H3246722   4.990   8.351   7.754 -0.6825  2.4064 -0.1272
  146MOL    H3346723   4.996   8.236   7.894 -1.3226 -0.2522 -0.1820
  146MOL    C3446724   4.847   8.385   7.912 -0.1158  0.4486  0.6202
  146MOL    C3546725   4.739   8.359   7.812 -1.2810 -0.5104 -0.0606
  146MOL    C3646726   4.621   8.443   7.827  0.0822  0.4741 -0.4288
  146MOL    C3746727   4.513   8.414   7.745 -0.1387  0.6254 -0.3364
  146MOL    C3846728   4.519   8.313   7.651 -0.5277  0.7065 -0.3974
  146MOL   Cl3946729   4.383   8.276   7.556 -0.0834 -0.1121  0.1485
  146MOL    C4046730   4.634   8.235   7.633  0.5065  0.0672 -0.1829
  146MOL    C4146731   4.741   8.253   7.721  1.3265 -0.1792 -0.3508
  146MOL    C4246732   4.810   8.355   8.062  0.4530 -0.0888  0.5997
  146MOL    H4346733   4.850   0.050   7.913 -1.1756  0.4767  1.5212
  146MOL    H4446734   4.624   0.080   7.899  0.4346  1.1707 -1.2021
  146MOL    H4546735   4.423   0.030   7.752 -1.2269 -1.1167  0.7485
  146MOL    H4646736   4.634   8.156   7.559 -0.4267 -0.5766  0.4912
  146MOL    H4746737   4.830   8.194   7.707  1.2750 -0.2311 -0.4635
  146MOL    H4846738   4.887   8.387   8.132  0.7156 -1.2037  0.8163
  146MOL    H4946739   4.734   8.425   8.098  0.5402  0.5669 -0.4761
  146MOL    C5046740   4.757   8.209   8.092 -0.3178  0.6720 -0.2512
  146MOL    C5146741   4.869   8.105   8.073  0.4822  0.6033 -0.2990
  146MOL    C5246742   4.847   7.999   7.989  0.8598 -0.1029  0.4149
  146MOL    C5346743   4.938   7.890   7.985 -0.1134  0.1908  0.3757
  146MOL    C5446744   5.053   7.886   8.065  0.1326 -0.7789  0.0731
  146MOL   Cl5546745   5.165   7.759   8.042  0.1405  0.1626 -0.2425
  146MOL    C5646746   5.073   8.003   8.144  0.7947 -0.4996  0.4699
  146MOL    C5746747   4.981   8.112   8.158 -0.8106  0.2736 -0.4990
  146MOL    C5846748   4.694   8.182   8.230 -0.5444  0.7949  0.4264
  146MOL    H5946749   4.681   8.186   8.018  1.9035  0.1139 -2.4486
  146MOL    H6046750   4.751   7.992   7.939  0.1658  1.9409  1.4104
  146MOL    H6146751   4.910   7.818   7.911 -1.2671  2.0241 -1.0108
  146MOL    H6246752   5.161   8.001   8.206  1.7438  1.9446 -0.7504
  146MOL    H6346753   5.001   8.193   8.227 -0.9867 -2.4182  2.8188
  146MOL    H6446754   4.694   8.073   8.234 -1.2137  0.6846 -1.9839
  146MOL    H6546755   4.767   8.215   8.304  0.9515 -1.4834  0.0418
  146MOL    C6646756   4.544   8.228   8.247  0.6377  0.2922  0.3626
  146MOL    C6746757   4.448   8.177   8.138  0.0652 -0.3123 -0.0022
  146MOL    C6846758   4.443   8.039   8.111 -1.0992 -0.1077  0.2060
  146MOL    C6946759   4.362   7.988   8.007 -0.3598  0.0107 -0.9909
  146MOL    C7046760   4.292   8.077   7.929 -0.2961 -0.1267  0.1446
  146MOL   Cl7146761   4.204   8.010   7.790 -0.1792  0.3874  0.0032
  146MOL    C7246762   4.293   8.216   7.957 -0.4852  0.1285 -0.4462
  146MOL    C7346763   4.364   8.270   8.065 -0.0059 -0.8933  0.3013
  146MOL    C7446764   4.483   8.177   8.375  0.0826 -0.3895 -0.0294
  146MOL    H7546765   4.539   8.337   8.252  0.4243  0.3117 -0.1914
  146MOL    H7646766   4.496   7.962   8.164  0.4416  0.6383 -0.2410
  146MOL    H7746767   4.340   7.883   7.998 -2.0330  0.1364  1.3695
  146MOL    H7846768   4.239   8.279   7.887 -1.1616  0.3771  0.2931
  146MOL    H7946769   4.375   8.376   8.081 -2.1113 -0.7119  0.6806
  146MOL    H8046770   4.375   8.173   8.373  0.0634  0.5235 -2.6253
  146MOL    H8146771   4.509   8.072   8.389 -0.7106 -0.7267 -1.0912
  146MOL    C8246772   4.511   8.251   0.061  0.6490 -0.2412  0.3248
  146MOL    C8346773   4.443   8.387   0.062  0.7156  0.8432 -0.3076
  146MOL    C8446774   4.304   8.393   0.076  0.2800  0.0053 -0.3141
  146MOL    C8546775   4.240   0.074   0.064  0.2637 -0.8260  0.8818
  146MOL    C8646776   4.318   0.187   0.049  1.1369 -0.3553  0.1356
  146MOL   Cl8746777   4.243   0.339   0.044  0.3520 -0.1086 -0.1330
  146MOL    C8846778   4.453   0.186   0.048 -0.4831 -0.2394 -0.4594
  146MOL    C8946779   4.522   0.064   0.044  0.2428 -0.2965 -1.3104
  146MOL    C9046780   4.474   8.171   0.190  0.6734 -0.2644 -0.3220
  146MOL    H9146781   4.618   8.264   0.052  0.4194  1.2994 -0.4528
  146MOL    H9246782   4.249   8.308   0.111 -0.4479  1.1617  1.4132
  146MOL    H9346783   4.135   0.097   0.078 -0.6550 -4.1437 -0.1253
  146MOL    H9446784   4.512   0.276   0.037  0.6288 -0.8709  0.3856
  146MOL    H9546785   4.629   0.064   0.035  0.3677  0.4335 -0.0081
  146MOL    H9646786   4.463   8.239   0.275 -0.8943  1.2945 -1.7046
  146MOL    H9746787   4.381   8.114   0.179  0.2862 -0.4043  3.1700
  146MOL    C9846788   4.574   8.058   0.217 -0.4057  0.0595 -0.1632
  146MOL    C9946789   4.719   8.110   0.250  0.3202 -0.5274  0.5578
  146MOL   C10046790   4.819   8.086   0.154  0.8173  0.0772 -0.0542
  146MOL   C10146791   4.950   8.115   0.189 -0.2418  0.1936  0.5248
  146MOL   C10246792   4.978   8.190   0.307  0.0261 -0.1061 -0.2996
  146MOL  Cl10346793   5.135   8.237   0.346  0.0887 -0.3757 -0.0035
  146MOL   C10446794   4.876   8.226   0.397 -0.1235  0.1279  0.1623
  146MOL   C10546795   4.741   8.178   0.374 -0.1491 -0.6655 -0.1790
  146MOL   C10646796   4.531   7.973   0.335 -0.1657 -0.3856  0.3514
  146MOL   H10746797   4.580   7.990   0.132 -0.2624 -1.1205  0.7801
  146MOL   H10846798   4.798   8.042   0.058  0.3189  1.4483 -0.5951
  146MOL   H10946799   5.038   8.096   0.129  0.8604  0.4228  2.0463
  146MOL   H11046800   4.892   8.276   0.491 -2.5823  1.6817 -0.1968
  146MOL   H11146801   4.661   8.194   0.445 -1.4035  1.8884 -2.0999
  146MOL   H11246802   4.621   7.932   0.382  0.2772  0.4106  0.1936
  146MOL   H11346803   4.488   8.035   0.413  3.1957  1.8129  0.5582
  146MOL   C11446804   4.436   7.863   0.293 -0.5474 -0.5218  0.5153
  146MOL   C11546805   4.506   7.763   0.199 -0.5902  1.1061 -0.4747
  146MOL   C11646806   4.474   7.759   0.056 -0.2313  0.5279 -0.4046
  146MOL   C11746807   4.515   7.655   8.416  0.0076  0.1464  0.9041
  146MOL   C11846808   4.598   7.553   0.031 -0.2613  0.3301 -0.6168
  146MOL  Cl11946809   4.649   7.413   8.383  0.5705 -0.1265 -0.3512
  146MOL   C12046810   4.635   7.566   0.170  0.1188 -0.0529  0.1317
  146MOL   C12146811   4.582   7.660   0.255  0.1259 -0.3098 -0.2837
  146MOL   C12246812   4.371   7.795   0.412 -0.2992  0.0135  0.1117
  146MOL   H12346813   4.359   7.899   0.224 -0.3803 -1.1271  0.0080
  146MOL   H12446814   4.409   7.828   0.005  0.8569  1.8005 -0.1018
  146MOL   H12546815   4.491   7.657   8.311 -0.1855  4.1424  0.9483
  146MOL   H12646816   4.703   7.499   0.220 -0.0978 -0.2386  0.1806
  146MOL   H12746817   4.608   7.664   0.359 -1.3061 -0.7899  0.1076
  146MOL   H12846818   4.301   7.716   0.386 -1.8438  0.9931  1.1643
  146MOL   H12946819   4.447   7.748   0.474 -0.5733 -1.3001 -0.5263
  146MOL   C13046820   4.273   7.883   0.504  0.2089 -0.8225  0.1476
  146MOL   C13146821   4.165   7.935   0.409 -0.1115  0.8976  0.2073
  146MOL   C13246822   4.065   7.852   0.354 -0.7023 -0.1395  0.3183
  146MOL   C13346823   3.966   7.903   0.268 -0.3976  0.7751  0.0510
  146MOL   C13446824   3.962   8.040   0.241 -0.1957 -0.6344 -0.3049
  146MOL  Cl13546825   3.843   8.096   0.144  0.2245  0.0403  0.0465
  146MOL   C13646826   4.060   8.125   0.293  0.2175  0.0294 -0.0213
  146MOL   C13746827   4.160   8.073   0.375  0.2372 -0.7473 -0.8764
  146MOL   C13846828   4.212   7.824   0.631 -0.6928  0.0153 -0.3285
  146MOL   H13946829   4.338   7.964   0.537  0.3625 -0.5183 -0.8811
  146MOL   H14046830   4.057   7.747   0.380 -0.0073 -0.3199 -0.1771
  146MOL   H14146831   3.878   7.848   0.240  0.5148 -0.7645  0.1547
  146MOL   H14246832   4.065   8.230   0.268  1.1311 -0.9498 -4.3188
  146MOL   H14346833   4.235   8.138   0.417 -0.7418  0.3903 -0.8900
  146MOL   H14446834   4.160   7.733   0.603  0.3921 -1.1487  1.2705
  146MOL   H14546835   4.301   7.806   0.692 -0.3835  0.1253 -0.7451
  146MOL   C14646836   4.115   7.914   0.712  0.2254  0.8256  0.0240
  146MOL   C14746837   3.992   7.831   0.745 -0.5137  0.4075  0.0628
  146MOL   C14846838   3.860   7.881   0.722  0.1712 -0.9069  0.2831
  146MOL   C14946839   3.752   7.800   0.770 -0.3506  0.1511 -0.2545
  146MOL   C15046840   3.771   7.679   0.825 -0.1252 -0.5809  0.6650
  146MOL  Cl15146841   3.638   7.602   0.894 -0.1761 -0.1138  0.0576
  146MOL   C15246842   3.899   7.624   0.841  0.1518 -0.4085  0.2209
  146MOL   C15346843   4.008   7.700   0.798  0.2827  0.3027  0.0418
  146MOL   C15446844   4.183   7.964   0.840 -0.0074 -0.2269 -0.2962
  146MOL   H15546845   4.082   8.001   0.654 -1.1849  0.2030 -0.1340
  146MOL   H15646846   3.841   7.984   0.694 -2.4168 -1.3051  0.4671
  146MOL   H15746847   3.654   7.843   0.782  0.0761  1.1140 -0.1221
  146MOL   H15846848   3.912   7.524   0.881  1.2941 -0.7842 -1.0485
  146MOL   H15946849   4.110   7.667   0.801 -0.2062 -1.2454  0.0112
  146MOL   H16046850   4.100   8.011   0.894 -0.0075  0.9595 -1.3125
  146MOL   H16146851   4.208   7.882   0.908 -1.9902 -2.1964 -1.8407
  146MOL   C16246852   4.295   8.059   0.819  0.7151 -0.2410 -0.3882
  146MOL   C16346853   4.280   8.178   0.731 -0.4708 -0.1412  0.0604
  146MOL   C16446854   4.386   8.217   0.653  0.0384  0.3789 -0.0196
  146MOL   C16546855   4.380   8.325   0.570  0.8143  0.2782 -0.0886
  146MOL   C16646856   4.255   8.384   0.546 -0.0815  0.1334 -0.4624
  146MOL  Cl16746857   4.242   0.075   0.437  0.0803 -0.1494 -0.1453
  146MOL   C16846858   4.145   8.333   0.621  0.4080  0.6561 -0.0035
  146MOL   C16946859   4.158   8.233   0.715 -0.5123 -0.5814 -0.6262
  146MOL   C17046860   4.355   8.103   0.959  0.0215 -0.5701  1.0189
  146MOL   H17146861   4.370   7.996   0.770 -1.5356 -2.1091 -1.5076
  146MOL   H17246862   4.479   8.164   0.667  0.8998  1.8902  0.1297
  146MOL   H17346863   4.464   8.355   0.510  2.1226 -0.3071  1.4027
  146MOL   H17446864   4.047   8.373   0.598 -0.2168 -0.3686  0.8403
  146MOL   H17546865   4.069   8.201   0.768 -0.4971  1.6934  0.8141
  146MOL   H17646866   4.381   8.013   1.014 -1.1334 -2.5464 -1.5720
  146MOL   H17746867   4.445   8.162   0.940 -1.1105  0.8020 -0.2374
  146MOL   C17846868   4.263   8.196   1.042 -0.6169  0.5433 -0.1556
  146MOL   C17946869   4.207   8.131   1.168 -0.1154  0.1051  0.3253
  146MOL   C18046870   4.077   8.071   1.165 -0.6526  0.2523 -0.1541
  146MOL   C18146871   4.028   7.992   1.273 -0.5409  0.6568  0.3863
  146MOL   C18246872   4.106   7.987   1.389 -0.7277  0.1589  0.0881
  146MOL  Cl18346873   4.049   7.914   1.527 -0.0136 -0.1757  0.3211
  146MOL   C18446874   4.233   8.050   1.400 -0.0561 -0.8418  0.1121
  146MOL   C18546875   4.282   8.118   1.287  0.7933 -0.3366 -0.0694
  146MOL   C18646876   4.311   8.345   1.052  0.1879 -0.4765  0.1080
  146MOL   H18746877   4.167   8.210   0.992 -0.5166 -0.0531 -0.5249
  146MOL   H18846878   4.019   8.065   1.074  3.8126 -0.9937 -3.0898
  146MOL   H18946879   3.935   7.938   1.272  1.2429 -2.4866 -0.6053
  146MOL   H19046880   4.284   8.052   1.495  2.7694  0.8700 -1.4018
  146MOL   H19146881   4.377   8.169   1.288  0.5405  0.2168 -2.0028
  146MOL   H19246882   4.388   8.358   1.127 -1.2260  0.3101  1.4536
  146MOL   H19346883   4.355   8.386   0.960 -2.8681 -0.9697 -1.6595
  146MOL   C19446884   4.198   8.441   1.090  0.5830 -0.6964  0.0679
  146MOL   C19546885   4.262   0.128   1.137 -0.3790  0.5421 -0.0839
  146MOL   C19646886   4.253   0.162   1.271  0.1069 -0.2652  0.1986
  146MOL   C19746887   4.292   0.290   1.324 -0.1793 -0.5920  0.2384
  146MOL   C19846888   4.350   0.378   1.237  0.0355 -0.1538  0.3855
  146MOL  Cl19946889   4.386   0.542   1.279 -0.0210  0.1939 -0.2258
  146MOL   C20046890   4.374   0.347   1.102 -0.0487  0.3948  0.1083
  146MOL   C20146891   4.329   0.224   1.054 -0.2691  0.5363  0.1110
  146MOL   C20246892   4.099   0.034   0.975  0.2343 -0.1307  0.2547
  146MOL   H20346893   4.137   8.399   1.170 -2.1408  2.3069 -0.3573
  146MOL   H20446894   4.206   0.092   1.339  0.4194 -0.4472  0.2299
  146MOL   H20546895   4.278   0.328   1.424  2.0471 -1.5847  0.9531
  146MOL   H20646896   4.411   0.420   1.033 -3.5016  3.9584  1.7900
  146MOL   H20746897   4.338   0.203   0.948 -1.5424  0.5533 -0.0076
  146MOL   H20846898   4.159   0.047   0.885 -0.4342 -0.6723 -0.2795
  146MOL   H20946899   4.042   8.391   0.938  0.9813 -1.2005  1.5631
  146MOL   C21046900   4.008   0.164   0.995  0.5066 -0.1551 -0.2008
  146MOL   C21146901   3.959   0.210   0.861 -0.2909 -0.8392 -0.5654
  146MOL   C21246902   3.912   0.119   0.768 -0.3776  0.4364 -0.1875
  146MOL   C21346903   3.857   0.168   0.644 -0.1154  0.2938  0.6759
  146MOL   C21446904   3.853   0.309   0.620  0.2450 -0.0886 -0.1403
  146MOL  Cl21546905   3.773   0.356   0.477  0.5270  0.1445  0.6107
  146MOL   C21646906   3.900   0.398   0.713 -0.4941 -0.4489 -0.3431
  146MOL   C21746907   3.951   0.348   0.832  0.2462 -0.0907  0.1418
  146MOL   C21846908   3.892   0.133   1.090 -0.2867 -0.7480 -0.7877
  146MOL   H21946909   4.075   0.241   1.034 -1.0669  0.9631  0.3403
  146MOL   H22046910   3.914   0.012   0.783 -0.2106  0.6058  1.0938
  146MOL   H22146911   3.817   0.098   0.572  1.7566 -0.1134  0.0019
  146MOL   H22246912   3.896   0.504   0.692  0.4120 -0.7999 -2.4616
  146MOL   H22346913   3.998   0.412   0.905 -2.4120 -0.4965  2.2616
  146MOL   H22446914   3.831   0.059   1.038  0.3349 -0.5643 -1.7969
  146MOL   H22546915   3.941   0.074   1.168  0.5710 -0.7880 -1.3504
  146MOL   C22646916   3.806   0.239   1.165 -0.9259 -0.3458 -0.3104
  146MOL   C22746917   3.894   0.319   1.260  0.3379 -0.3827 -0.0050
  146MOL   C22846918   3.946   0.442   1.221  0.8705  0.2626  0.2908
  146MOL   C22946919   4.017   0.522   1.309  0.8487 -0.6414  0.4274
  146MOL   C23046920   4.032   0.484   1.443  0.0435  0.6137 -0.2559
  146MOL  Cl23146921   4.110   0.590   1.554 -0.2972  0.2787 -0.1846
  146MOL   C23246922   3.981   0.360   1.487  0.8082  0.9333  0.4634
  146MOL   C23346923   3.914   0.280   1.396  0.0532  1.2561  1.3729
  146MOL   C23446924   3.714   0.321   1.075 -0.0915 -0.1023  0.2148
  146MOL   H23546925   3.734   0.181   1.223  1.1955 -1.8729  0.8855
  146MOL   H23646926   3.927   0.473   1.119 -1.2679  0.0479  0.5854
  146MOL   H23746927   4.062   0.609   1.265  1.1737 -0.7665  0.5082
  146MOL   H23846928   4.003   0.332   1.589  0.4065 -3.8772 -0.6733
  146MOL   H23946929   3.869   0.190   1.435 -0.7913  0.0541 -2.1905
  146MOL   H24046930   3.664   0.393   1.139 -0.2861 -1.4597  1.6183
  146MOL   H24146931   3.772   0.386   1.009 -0.2538 -0.5149 -0.3391
  146MOL   C24246932   3.606   0.243   1.001  0.0400  0.2743 -0.5397
  146MOL   C24346933   3.521   0.159   1.096 -0.3027 -0.1561 -0.2230
  146MOL   C24446934   3.516   0.021   1.086  0.2516 -0.1654 -0.1593
  146MOL   C24546935   3.463   8.383   1.187 -0.4897 -0.2965 -0.3520
  146MOL   C24646936   3.392   8.440   1.296 -0.5558  0.7762  0.1756
  146MOL  Cl24746937   3.339   8.347   1.426  0.3644 -0.1515  0.0700
  146MOL   C24846938   3.389   0.140   1.301 -0.4446 -0.2940  0.6247
  146MOL   C24946939   3.447   0.218   1.198  0.2935 -0.1248 -0.5054
  146MOL   C25046940   3.510   0.326   0.910 -0.1674  0.3321  0.0346
  146MOL   H25146941   3.658   0.179   0.930 -0.5734 -1.4070  0.4945
  146MOL   H25246942   3.566   8.408   1.009  1.1104  0.7803 -0.2919
  146MOL   H25346943   3.481   8.277   1.175  1.8377 -0.0943  1.0659
  146MOL   H25446944   3.344   0.190   1.385 -1.0325 -1.5915  1.0945
  146MOL   H25546945   3.432   0.325   1.202 -3.3195 -0.4904 -2.2199
  146MOL   H25646946   3.452   0.391   0.975  0.4319  0.1460  0.7717
  146MOL   H25746947   3.568   0.391   0.845 -0.3591  1.0283  0.5608
  146MOL   C25846948   3.415   0.238   0.827 -0.2894  0.2845  0.5607
  146MOL   C25946949   3.305   0.327   0.766 -0.0424 -0.2160  0.2231
  146MOL   C26046950   3.344   0.440   0.686  0.1521  0.2967  0.1010
  146MOL   C26146951   3.239   0.506   0.619 -0.1137 -0.6679  0.5164
  146MOL   C26246952   3.108   0.455   0.618 -0.1557  0.0406  0.4339
  146MOL  Cl26346953   2.979   0.532   0.528  0.3184  0.2378 -0.1481
  146MOL   C26446954   3.077   0.347   0.695 -0.7280  0.8715 -0.0059
  146MOL   C26546955   3.172   0.282   0.770  0.5784  0.4611 -0.4106
  146MOL   C26646956   3.503   0.176   0.710  0.3061 -0.3787 -0.3573
  146MOL   H26746957   3.367   0.160   0.885  1.4583 -0.6102  0.8280
  146MOL   H26846958   3.444   0.479   0.684  0.1634  0.4104  2.0777
  146MOL   H26946959   3.263   0.590   0.556  0.1305 -0.4873  0.8486
  146MOL   H27046960   2.976   0.312   0.679  0.0555 -0.9967 -0.9195
  146MOL   H27146961   3.147   0.196   0.832 -0.7909  2.1415  1.4410
  146MOL   H27246962   3.561   0.251   0.658 -1.1068  0.3267 -0.9263
  146MOL   H27346963   3.579   0.115   0.760  1.4042  2.2692  1.2931
  146MOL   C27446964   3.433   0.083   0.606 -0.3076  0.1904  0.0142
  146MOL   C27546965   3.520   0.064   0.484 -0.4573  0.0940  0.1289
  146MOL   C27646966   3.523   0.164   0.382  0.1337  0.7050 -0.6441
  146MOL   C27746967   3.608   0.139   0.273 -1.0225  0.6471 -0.2390
  146MOL   C27846968   3.700   0.036   0.269 -0.8370  0.3018  0.0971
  146MOL  Cl27946969   3.819   0.011   0.143 -0.0372 -0.5316  0.0696
  146MOL   C28046970   3.692   8.380   0.369 -0.1706 -0.5679 -0.1235
  146MOL   C28146971   3.606   8.391   0.479  0.3321  0.6739  0.5030
  146MOL   C28246972   3.375   8.395   0.670  0.5134 -0.5092  0.0213
  146MOL   H28346973   3.351   0.141   0.563 -0.3511  1.0046  1.1851
  146MOL   H28446974   3.461   0.252   0.390  1.4463  1.4547  1.8001
  146MOL   H28546975   3.602   0.204   0.187 -1.6164  0.9957  0.0570
  146MOL   H28646976   3.746   8.287   0.372 -0.4636 -0.7670 -1.0443
  146MOL   H28746977   3.603   8.311   0.551  0.4745 -1.7301 -2.0936
  146MOL   H28846978   3.466   8.348   0.708  0.1938 -0.3775  0.9476
  146MOL   H28946979   3.319   8.417   0.761  0.1404  0.7681 -0.5008
  146MOL   C29046980   3.287   8.309   0.580 -0.7540  0.1052 -0.2126
  146MOL   C29146981   3.304   8.162   0.611 -0.0599  0.2545 -0.1294
  146MOL   C29246982   3.357   8.070   0.518  0.8653 -0.1255  0.2116
  146MOL   C29346983   3.370   7.937   0.545  0.5296  0.8662 -0.2635
  146MOL   C29446984   3.324   7.889   0.666 -0.3668 -0.2080  0.3490
  146MOL  Cl29546985   3.322   7.719   0.699  0.0990  0.2685 -0.3535
  146MOL   C29646986   3.274   7.974   0.762 -0.8197 -0.0533 -0.4888
  146MOL   C29746987   3.264   8.109   0.736  0.3427  0.6325  0.0554
  146MOL   C29846988   3.135   8.355   0.599  0.5088 -1.2260 -0.0765
  146MOL   H29946989   3.328   8.326   0.481  2.9492 -1.5672  0.9225
  146MOL   H30046990   3.393   8.111   0.424  2.1526 -0.1562  0.6886
  146MOL   H30146991   3.411   7.874   0.467 -0.7696 -0.3691  0.0398
  146MOL   H30246992   3.230   7.937   0.853  1.7181 -1.6324  0.1348
  146MOL   H30346993   3.222   8.169   0.815  0.5084 -0.3281  0.8872
  146MOL   H30446994   3.064   8.273   0.611  0.7871 -1.7146 -1.5482
  146MOL   H30546995   3.118   8.422   0.683 -2.2966 -0.9884 -0.7855
  146MOL   C30646996   3.101   8.436   0.472 -1.4409 -0.6453 -0.4901
  146MOL   C30746997   3.088   8.347   0.352  0.3105 -0.0113 -0.4478
  146MOL   C30846998   2.973   8.270   0.344  1.2423  0.3446  0.0562
  146MOL   C30946999   2.949   8.182   0.230 -0.0177  0.1879 -0.0719
  146MOL   C31047000   3.047   8.176   0.130  0.3617  0.4887  0.0787
  146MOL  Cl31147001   3.011   8.081   8.440  0.4090 -0.0038  0.1462
  146MOL   C31247002   3.154   8.270   0.132 -0.2817 -0.2350  0.6477
  146MOL   C31347003   3.187   8.342   0.249  0.2989  0.6163  0.1087
  146MOL   C31447004   2.984   0.089   0.485 -0.0458  0.0404 -0.5362
  146MOL   H31547005   3.187   0.055   0.446 -1.5632 -0.2027  0.1551
  146MOL   H31647006   2.902   8.281   0.425  1.6731  1.8750  0.2474
  146MOL   H31747007   2.857   8.126   0.221  0.5944 -0.6894 -0.9830
  146MOL   H31847008   3.216   8.287   0.046  0.6759  1.2429  1.6050
  146MOL   H31947009   3.279   8.399   0.247  1.1995 -0.8118 -0.7176
  146MOL   H32047010   2.897   0.057   0.542  1.7879 -0.9504  1.8232
  146MOL   H32147011   3.014   0.184   0.529  0.8273 -0.1012 -0.8254
  146MOL   H32247012   2.937   0.113   0.390 -1.3246 -1.5914 -0.3463
  147MOL     C147013   6.962   4.703   7.044  0.3260 -0.5116 -0.8949
  147MOL     C247014   6.848   4.619   6.987 -0.6529 -0.5247 -0.0740
  147MOL     C347015   6.878   4.501   6.915  0.0171  0.4865 -0.5675
  147MOL     C447016   6.773   4.428   6.858 -0.7664 -0.2483  0.2792
  147MOL     C547017   6.637   4.469   6.873 -0.0470 -0.0287 -0.3298
  147MOL    Cl647018   6.515   4.370   6.796 -0.3042  0.0249 -0.0133
  147MOL     C747019   6.609   4.581   6.955  0.1032 -0.0682  0.7533
  147MOL     C847020   6.713   4.656   7.006 -0.7556  0.2453  0.2907
  147MOL     C947021   6.999   4.671   7.183 -0.1378 -0.3925 -0.1160
  147MOL    H1047022   6.935   4.809   7.038 -0.7195 -0.7129  0.1304
  147MOL    H1147023   6.977   4.466   6.891 -0.6967 -3.8149  2.3310
  147MOL    H1247024   6.805   4.356   6.784  1.3705 -0.4054  1.3113
  147MOL    H1347025   6.506   4.602   6.981 -0.5807 -0.0123 -1.9082
  147MOL    H1447026   6.695   4.743   7.067  3.5034  1.3544  0.1340
  147MOL    H1547027   6.914   4.696   7.246 -1.0487 -1.5684 -0.8362
  147MOL    H1647028   7.026   4.566   7.196  1.9503 -0.3647 -3.6239
  147MOL    H1747029   7.054   4.696   6.985  1.3293 -2.0876  0.8179
  147MOL    C1847030   7.117   4.762   7.236 -0.6349  0.3416 -0.1921
  147MOL    C1947031   7.071   4.905   7.265  0.8726 -0.8553  0.2846
  147MOL    C2047032   6.975   4.939   7.365  0.2064 -0.1624 -0.7555
  147MOL    C2147033   6.931   5.067   7.388 -0.0333 -0.1057 -0.7740
  147MOL    C2247034   6.995   5.176   7.318 -0.7704  0.7102 -0.6784
  147MOL   Cl2347035   6.952   5.343   7.335  0.1989  0.1532  0.3189
  147MOL    C2447036   7.090   5.149   7.222  0.9929 -0.1517  0.2497
  147MOL    C2547037   7.128   5.015   7.199 -0.4948 -0.3834 -0.7769
  147MOL    C2647038   7.190   4.715   7.365  0.3973  0.2092  0.0809
  147MOL    H2747039   7.193   4.779   7.159 -0.0380  1.7422  0.6747
  147MOL    H2847040   6.916   4.866   7.419 -0.0531  2.1937  2.2581
  147MOL    H2947041   6.842   5.093   7.443  0.9393  2.5033 -0.3645
  147MOL    H3047042   7.131   5.229   7.162 -0.0582  0.7170  0.6746
  147MOL    H3147043   7.201   5.004   7.121  0.4076  3.0157 -0.4949
  147MOL    H3247044   7.240   4.799   7.415  1.2382 -0.5793  0.5942
  147MOL    H3347045   7.111   4.689   7.434 -0.5462 -1.2369 -1.5290
  147MOL    C3447046   7.294   4.597   7.347 -0.1688 -0.0280  0.1752
  147MOL    C3547047   7.413   4.642   7.261  0.3482  0.4027  0.7603
  147MOL    C3647048   7.427   4.589   7.128  0.0518 -1.1267  0.0173
  147MOL    C3747049   7.522   4.646   7.041 -0.3722 -0.5224  0.9049
  147MOL    C3847050   7.617   4.729   7.095  0.5081  0.1920 -0.1265
  147MOL   Cl3947051   7.753   4.770   6.997  0.1291  0.3998  0.0790
  147MOL    C4047052   7.607   4.777   7.229 -0.4387 -0.2910 -0.5861
  147MOL    C4147053   7.501   4.740   7.310  0.1824  0.1351  0.1512
  147MOL    C4247054   7.336   4.531   7.480  0.3339  0.4358 -0.1583
  147MOL    H4347055   7.231   4.525   7.296  0.0485 -0.3182  0.3160
  147MOL    H4447056   7.361   4.509   7.097 -1.1747  0.0519 -0.5127
  147MOL    H4547057   7.525   4.606   6.940  0.8042  0.6406  0.4696
  147MOL    H4647058   7.676   4.852   7.265 -0.7132 -0.4360  0.2436
  147MOL    H4747059   7.489   4.774   7.412 -3.0520 -1.9379  0.5417
  147MOL    H4847060   7.381   4.610   7.540  1.0312 -0.1854  0.1376
  147MOL    H4947061   7.246   4.496   7.531  0.5204 -2.0614 -1.4773
  147MOL    C5047062   7.443   4.413   7.476 -0.2038 -0.2597  0.0232
  147MOL    C5147063   7.481   4.391   7.618  0.1724  0.4225  0.0650
  147MOL    C5247064   7.619   4.401   7.652  0.5360  0.1650  0.7388
  147MOL    C5347065   7.671   4.380   7.781 -0.6959 -0.3025 -0.2174
  147MOL    C5447066   7.584   4.343   7.881 -0.7113 -0.1094  0.4608
  147MOL   Cl5547067   7.644   4.337   8.042  0.1771 -0.0216  0.1728
  147MOL    C5647068   7.446   4.326   7.853 -0.0125 -0.4503  0.0253
  147MOL    C5747069   7.393   4.344   7.719 -0.4186 -0.3298 -0.4123
  147MOL    C5847070   7.377   4.291   7.398  0.5111  0.3984 -0.5704
  147MOL    H5947071   7.525   4.444   7.411 -1.1090 -1.2213 -1.6256
  147MOL    H6047072   7.686   4.424   7.572  1.0284  1.6630  1.5724
  147MOL    H6147073   7.775   4.384   7.810 -0.9864 -1.5734  1.0640
  147MOL    H6247074   7.379   4.303   7.935  0.4269 -0.0871  0.4918
  147MOL    H6347075   7.286   4.338   7.711 -0.7251  1.3115  1.8468
  147MOL    H6447076   7.292   4.247   7.451 -0.1995 -1.7338 -3.3386
  147MOL    H6547077   7.330   4.321   7.305 -0.5505  1.1311  0.1887
  147MOL    C6647078   7.473   4.176   7.346  0.3802 -0.4046 -0.3432
  147MOL    C6747079   7.577   4.113   7.448 -1.0166  0.1723  0.4065
  147MOL    C6847080   7.529   4.037   7.553  0.5310 -0.1674  0.4281
  147MOL    C6947081   7.627   3.988   7.647  0.4405 -0.0167  0.3850
  147MOL    C7047082   7.764   4.007   7.625 -0.6977 -0.0147  0.0767
  147MOL   Cl7147083   7.883   3.921   7.718  0.1596 -0.0307 -0.1778
  147MOL    C7247084   7.809   4.077   7.513  0.1482  0.4241  0.3983
  147MOL    C7347085   7.717   4.137   7.428  0.4985 -0.1612  0.2960
  147MOL    C7447086   7.390   4.065   7.266 -0.3807 -0.2336  0.5001
  147MOL    H7547087   7.536   4.235   7.280  0.6476  0.5645  0.7700
  147MOL    H7647088   7.424   4.030   7.576 -0.4597  0.5725 -3.4985
  147MOL    H7747089   7.596   3.924   7.729  0.2204  0.0577  0.3605
  147MOL    H7847090   7.914   4.095   7.496  0.5155 -2.1249 -0.2426
  147MOL    H7947091   7.764   4.194   7.350 -0.3314 -1.2530 -1.0315
  147MOL    H8047092   7.341   4.014   7.348 -2.2794 -0.3619 -0.7031
  147MOL    H8147093   7.308   4.111   7.211 -0.9693  0.5026  1.9555
  147MOL    C8247094   7.462   3.959   7.177  0.0515 -1.0389  0.5673
  147MOL    C8347095   7.370   3.845   7.128 -0.5101  0.1232  0.2306
  147MOL    C8447096   7.240   3.872   7.077 -0.8895 -0.1404 -0.3458
  147MOL    C8547097   7.158   3.773   7.032 -0.5515 -0.1760  0.1504
  147MOL    C8647098   7.209   3.646   7.036 -0.0856  0.5880 -0.6414
  147MOL   Cl8747099   7.088   3.519   7.010  0.1819  0.3258  0.0407
  147MOL    C8847100   7.333   3.615   7.093  0.9612 -0.1911  0.6019
  147MOL    C8947101   7.413   3.713   7.137 -0.3835  0.6251 -0.4095
  147MOL    C9047102   7.536   4.034   7.057  0.4566  0.2973 -0.1114
  147MOL    H9147103   7.538   3.910   7.239  1.7434  0.0967 -0.5578
  147MOL    H9247104   7.197   3.971   7.084 -1.3416 -0.2870 -1.0207
  147MOL    H9347105   7.059   3.790   6.991 -0.6724 -0.9142  0.1255
  147MOL    H9447106   7.345   3.510   7.113 -0.5322 -0.3998  0.4625
  147MOL    H9547107   7.501   3.688   7.194  1.4739  3.3880 -1.9947
  147MOL    H9647108   7.467   4.088   6.992 -1.1738 -0.5832  0.8556
  147MOL    H9747109   7.605   4.107   7.099 -0.1482  0.4962  0.5520
  147MOL    C9847110   7.618   3.945   6.965 -0.7316 -0.1346  0.0682
  147MOL    C9947111   7.539   3.918   6.832  0.0166  0.5732 -0.4853
  147MOL   C10047112   7.502   4.022   6.755  0.4047 -0.0603  0.9042
  147MOL   C10147113   7.473   3.999   6.620  0.7912  0.0902 -0.3556
  147MOL   C10247114   7.457   3.865   6.570  0.0710 -0.4417 -0.3991
  147MOL  Cl10347115   7.402   3.830   6.412 -0.1480 -0.0274  0.0096
  147MOL   C10447116   7.490   3.759   6.658 -0.0685 -0.4969 -0.1788
  147MOL   C10547117   7.524   3.787   6.788  0.2091  0.2647 -0.3122
  147MOL   C10647118   7.752   4.007   6.938 -0.4543 -0.1790  0.0691
  147MOL   H10747119   7.624   3.851   7.020 -0.2706  1.1248  2.2246
  147MOL   H10847120   7.503   4.125   6.785 -1.1940  0.2601 -0.0662
  147MOL   H10947121   7.448   4.083   6.557  1.3570  1.5143  1.2920
  147MOL   H11047122   7.476   3.656   6.628 -0.1645  0.0234 -2.0030
  147MOL   H11147123   7.546   3.698   6.844 -1.1138 -0.4559 -0.9089
  147MOL   H11247124   7.794   3.945   6.858  0.8825 -0.7617  1.1858
  147MOL   H11347125   7.744   4.107   6.897  1.0298  0.1692  0.5850
  147MOL   C11447126   7.856   3.993   7.052  0.4808  0.1026  0.5529
  147MOL   C11547127   7.890   3.850   7.090 -0.0457 -0.0247 -1.0607
  147MOL   C11647128   7.850   3.801   7.214 -0.5504  0.5005  0.0416
  147MOL   C11747129   7.871   3.670   7.246  0.4527  0.7522 -0.0102
  147MOL   C11847130   7.947   3.582   7.167  0.0954 -0.0172  0.0594
  147MOL  Cl11947131   7.973   3.421   7.211  0.1638 -0.0300  0.2087
  147MOL   C12047132   7.989   3.629   7.039  0.0631 -0.1389  0.0168
  147MOL   C12147133   7.969   3.762   7.003 -0.3865 -0.1654 -0.5594
  147MOL   C12247134   7.984   4.072   7.024 -0.8005  0.0740 -0.1848
  147MOL   H12347135   7.815   4.042   7.141 -0.2483  1.5461 -0.5542
  147MOL   H12447136   7.800   3.857   7.292  0.1318  0.1624  0.7306
  147MOL   H12547137   7.848   3.638   7.347  0.6883 -0.3046 -0.2884
  147MOL   H12647138   8.041   3.563   6.972  0.2875 -1.7129  1.7127
  147MOL   H12747139   8.011   3.807   6.914  0.2862  1.7192  0.6695
  147MOL   H12847140   8.070   4.037   7.080 -0.1441  0.9741 -0.6270
  147MOL   H12947141   8.012   4.041   6.923 -0.1155 -1.0878  0.3507
  147MOL   C13047142   7.977   4.226   7.029  0.3381  0.1816  0.7709
  147MOL   C13147143   7.968   4.279   7.171  0.3489  0.5156  0.1740
  147MOL   C13247144   7.895   4.399   7.202  0.5328  0.4658  0.1248
  147MOL   C13347145   7.905   4.452   7.332  0.1738 -0.3715  0.2740
  147MOL   C13447146   7.978   4.385   7.431  0.1743 -0.0687  0.1955
  147MOL  Cl13547147   7.973   4.443   7.590 -0.1445 -0.0746  0.0935
  147MOL   C13647148   8.054   4.272   7.405  0.1532  0.2986  0.1656
  147MOL   C13747149   8.050   4.218   7.276 -0.5464 -0.2189  0.0255
  147MOL   C13847150   8.098   4.281   6.953 -0.0937 -0.0462  0.6504
  147MOL   H13947151   7.881   4.260   6.990  0.3481  1.5449  1.8597
  147MOL   H14047152   7.840   4.456   7.128 -0.3552  1.0038  1.1896
  147MOL   H14147153   7.848   4.543   7.345 -1.3565 -1.1808 -0.6306
  147MOL   H14247154   8.121   4.231   7.479 -1.0189  0.9957  1.6390
  147MOL   H14347155   8.096   4.122   7.258  0.8069  0.6564 -1.1982
  147MOL   H14447156   8.119   4.384   6.981  0.3306  0.0474 -0.0027
  147MOL   H14547157   8.187   4.221   6.973  1.3510  1.7102 -0.4010
  147MOL   C14647158   8.076   4.288   6.790  0.5532  0.0637  0.3482
  147MOL   C14747159   7.937   4.345   6.750 -0.0164  0.4479 -1.1219
  147MOL   C14847160   7.849   4.261   6.690  0.4962  0.0949  0.1923
  147MOL   C14947161   7.721   4.309   6.654  0.9684 -0.5260  0.8651
  147MOL   C15047162   7.685   4.444   6.674 -0.6499  0.7365  0.2402
  147MOL  Cl15147163   7.531   4.501   6.638 -0.3862 -0.2784  0.3217
  147MOL   C15247164   7.785   4.530   6.728 -0.2151 -0.4517 -0.5303
  147MOL   C15347165   7.910   4.477   6.777  0.7847 -0.7721  1.0249
  147MOL   C15447166   8.186   4.373   6.721 -0.2460 -0.3917  0.2702
  147MOL   H15547167   8.083   4.184   6.759  1.7620  0.7237 -1.6876
  147MOL   H15647168   7.882   4.159   6.672 -2.5253 -0.8857  0.0366
  147MOL   H15747169   7.635   4.246   6.633  0.4479 -1.0347  4.1528
  147MOL   H15847170   7.762   4.632   6.755  0.5529 -0.4560  0.1577
  147MOL   H15947171   7.986   4.539   6.821  0.7024  1.4291 -1.7942
  147MOL   H16047172   8.183   4.477   6.754  1.6533 -0.4280  0.5960
  147MOL   H16147173   8.286   4.350   6.757 -0.4589 -1.0837  0.4250
  147MOL   C16247174   8.182   4.364   6.568  0.3734  0.4298 -0.1357
  147MOL   C16347175   8.158   4.497   6.506 -0.3040  0.0385  1.1496
  147MOL   C16447176   8.027   4.525   6.459  0.2966  0.4569  0.0596
  147MOL   C16547177   8.008   4.638   6.379  0.1579 -0.2895 -0.1897
  147MOL   C16647178   8.116   4.722   6.351 -0.5539 -0.3192  0.4126
  147MOL  Cl16747179   8.092   4.856   6.256  0.6091 -0.4994 -0.6368
  147MOL   C16847180   8.239   4.708   6.415 -0.1963  0.2380 -0.5446
  147MOL   C16947181   8.261   4.593   6.496 -0.0273  0.4780  0.9565
  147MOL   C17047182   8.306   4.291   6.515 -0.5200  0.2956  0.4962
  147MOL   H17147183   8.100   4.301   6.534 -1.4270  0.8800  3.1277
  147MOL   H17247184   7.946   4.454   6.470  0.7094  0.1370  1.0426
  147MOL   H17347185   7.912   4.660   6.336  0.7187  1.2045 -0.6886
  147MOL   H17447186   8.319   4.780   6.406 -0.2418  0.1559 -1.7246
  147MOL   H17547187   8.360   4.573   6.535  1.0188 -0.4475 -2.0705
  147MOL   H17647188   8.314   4.322   6.410 -1.6383 -0.7031  0.1173
  147MOL   H17747189   8.391   4.330   6.571  0.7004  0.3934 -1.3778
  147MOL   C17847190   8.308   4.132   6.515 -0.2760 -0.3622  0.1923
  147MOL   C17947191   8.416   4.093   6.413  0.4068  0.2913  0.5982
  147MOL   C18047192   8.375   4.016   6.302 -0.7048  0.4314 -0.2253
  147MOL   C18147193   0.030   3.977   6.215 -0.0533  0.0469  0.2914
  147MOL   C18247194   0.165   4.017   6.225 -0.8781 -0.1085 -0.1220
  147MOL  Cl18347195   0.274   3.957   6.108 -0.0603  0.0868  0.0526
  147MOL   C18447196   0.204   4.089   6.335  0.0953 -0.5906 -0.3232
  147MOL   C18547197   0.108   4.125   6.437 -0.6004 -0.1605  0.8641
  147MOL   C18647198   8.328   4.060   6.652 -0.3167 -0.6419  0.0342
  147MOL   H18747199   8.213   4.109   6.467 -0.9610  0.3908  1.1519
  147MOL   H18847200   8.273   3.983   6.291 -0.7862  0.7512 -0.4346
  147MOL   H18947201   0.003   3.924   6.125  0.0629  0.5838 -0.0617
  147MOL   H19047202   0.305   4.122   6.354 -0.9857  2.7180  0.0328
  147MOL   H19147203   0.139   4.191   6.516 -0.8097 -0.2905  1.0562
  147MOL   H19247204   8.423   4.090   6.696  1.9040 -1.9352 -3.6456
  147MOL   H19347205   8.244   4.087   6.716 -0.0142 -1.1396  0.6461
  147MOL   C19447206   8.347   3.905   6.639  0.5470  0.8681  0.0688
  147MOL   C19547207   8.398   3.831   6.768 -0.3916  0.5991 -0.3143
  147MOL   C19647208   8.314   3.826   6.875 -0.1468  0.7283 -0.3566
  147MOL   C19747209   8.345   3.747   6.992  0.7797  0.1280 -0.4148
  147MOL   C19847210   0.030   3.693   7.007  0.9632  0.1919  0.3905
  147MOL  Cl19947211   0.093   3.612   7.147 -0.0575  0.0931  0.4373
  147MOL   C20047212   0.119   3.695   6.895  0.4213 -0.1965  0.0714
  147MOL   C20147213   0.077   3.770   6.778  0.3242 -0.4419  0.2283
  147MOL   C20247214   8.228   3.828   6.570 -0.3053 -0.5456  0.0494
  147MOL   H20347215   8.432   3.904   6.571 -0.0126 -0.7163 -0.6515
  147MOL   H20447216   8.217   3.873   6.882 -1.4395 -1.7736 -0.8787
  147MOL   H20547217   8.272   3.731   7.070 -0.2210  0.2735 -1.3142
  147MOL   H20647218   0.220   3.658   6.903 -0.9102 -3.5537  2.1005
  147MOL   H20747219   0.145   3.761   6.695 -1.7207 -0.1491 -1.5344
  147MOL   H20847220   8.133   3.846   6.621 -0.1927 -2.3469  0.9388
  147MOL   H20947221   8.221   3.865   6.468  1.0875 -1.3618 -0.3580
  147MOL   C21047222   8.244   3.672   6.545  0.2333 -0.1704  0.0747
  147MOL   C21147223   8.115   3.604   6.502  0.5066 -0.6753 -0.1100
  147MOL   C21247224   8.058   3.639   6.377 -0.5923  0.5218  0.3790
  147MOL   C21347225   7.934   3.582   6.336 -0.1200 -0.3989 -0.3819
  147MOL   C21447226   7.873   3.481   6.418  0.6719  0.4874  0.1950
  147MOL  Cl21547227   7.738   3.396   6.358 -0.2902 -0.4810 -0.1765
  147MOL   C21647228   7.931   3.451   6.545  0.5633 -0.1133 -0.0762
  147MOL   C21747229   8.052   3.514   6.584 -0.5737 -0.5243  0.6278
  147MOL   C21847230   8.372   3.646   6.450 -0.1172 -0.1133 -0.1743
  147MOL   H21947231   8.268   3.642   6.646  0.4749  1.0516  0.3849
  147MOL   H22047232   8.111   3.712   6.318  1.0131 -1.4209 -0.6329
  147MOL   H22147233   7.909   3.600   6.232 -1.6836 -1.2514 -0.1610
  147MOL   H22247234   7.895   3.365   6.601  3.6313  0.6718  3.2744
  147MOL   H22347235   8.109   3.493   6.674 -0.6213 -1.5509  0.4248
  147MOL   H22447236   8.336   3.666   6.349 -0.8129 -1.0180 -0.1084
  147MOL   H22547237   0.007   3.718   6.478 -1.0926  1.4102 -1.2773
  147MOL   C22647238   8.429   3.503   6.471 -0.7228 -0.7435 -0.4576
  147MOL   C22747239   8.333   3.389   6.429  0.8118 -0.3973  0.1456
  147MOL   C22847240   8.257   3.390   6.310 -0.2864 -0.3288  0.2663
  147MOL   C22947241   8.158   3.290   6.287  0.3465 -0.0288 -0.1832
  147MOL   C23047242   8.139   3.184   6.383 -0.5848  0.3918  0.2264
  147MOL  Cl23147243   8.013   3.070   6.365  0.4420 -0.0552  0.1592
  147MOL   C23247244   8.220   3.173   6.500 -0.2732 -0.0165 -0.0209
  147MOL   C23347245   8.311   3.279   6.522 -0.7238  0.8617  0.3804
  147MOL   C23447246   0.138   3.488   6.426  0.0295 -0.1341 -0.0839
  147MOL   H23547247   8.437   3.486   6.578  0.1677 -4.2822 -1.0342
  147MOL   H23647248   8.264   3.476   6.244 -0.4703  0.1364  0.8469
  147MOL   H23747249   8.092   3.310   6.204 -2.1785  0.2982  1.8421
  147MOL   H23847250   8.200   3.087   6.562 -1.1300  0.1732 -0.0343
  147MOL   H23947251   8.372   3.273   6.612  0.5746 -0.8809 -0.5880
  147MOL   H24047252   0.154   3.411   6.351 -0.6325 -1.8294  1.4875
  147MOL   H24147253   0.174   3.574   6.368  0.9640 -1.3605 -1.3470
  147MOL   C24247254   0.242   3.480   6.538  0.5266  0.4166  0.4407
  147MOL   C24347255   0.223   3.359   6.627  0.3021 -0.2028  0.4229
  147MOL   C24447256   0.217   3.231   6.571 -0.6923 -0.1737 -0.6108
  147MOL   C24547257   0.202   3.118   6.663 -0.0691  1.0433  0.6487
  147MOL   C24647258   0.198   3.133   6.806 -0.2850  0.5671 -0.0630
  147MOL  Cl24747259   0.159   3.002   6.912  0.4737  0.1361 -0.3910
  147MOL   C24847260   0.202   3.266   6.855  0.4232 -0.3993  1.0589
  147MOL   C24947261   0.217   3.375   6.771 -0.1795 -0.5761  0.7883
  147MOL   C25047262   0.390   3.487   6.496  0.1191  0.0764  0.1363
  147MOL   H25147263   0.218   3.559   6.609  2.8674  1.8268 -0.2865
  147MOL   H25247264   0.238   3.213   6.467  1.0534 -0.1476 -0.2838
  147MOL   H25347265   0.187   3.019   6.622  0.7012  1.1416  0.1073
  147MOL   H25447266   0.211   3.272   6.963  0.0232 -0.1194  1.0771
  147MOL   H25547267   0.230   3.476   6.807 -0.7502 -0.0278 -0.4891
  147MOL   H25647268   0.443   3.443   6.581  0.0302  1.8089  1.1026
  147MOL   H25747269   0.416   3.427   6.409  2.8343 -0.9948  1.6361
  147MOL   C25847270   0.452   3.629   6.477  0.4404 -0.8334  0.1140
  147MOL   C25947271   0.432   3.723   6.601 -0.4503  0.3183 -0.2884
  147MOL   C26047272   0.369   3.845   6.588  0.7214  0.1165 -0.8359
  147MOL   C26147273   0.357   3.935   6.699  0.0760 -0.0563 -0.5931
  147MOL   C26247274   0.402   3.891   6.826  0.2413 -0.2216  0.6406
  147MOL  Cl26347275   0.395   4.000   6.955 -0.1469 -0.3588 -0.0270
  147MOL   C26447276   0.477   3.773   6.833  0.0084 -0.3542 -0.0683
  147MOL   C26547277   0.480   3.682   6.727 -0.2716  0.3169  0.7715
  147MOL   C26647278   0.606   3.624   6.444  0.0849 -0.3899  0.5152
  147MOL   H26747279   0.399   3.675   6.394  0.1886  0.1698  0.8221
  147MOL   H26847280   0.323   3.870   6.493  1.3164  0.4240 -1.0436
  147MOL   H26947281   0.295   4.023   6.704  0.4584  0.2093 -0.5502
  147MOL   H27047282   0.512   3.757   6.934  1.4356 -3.1341 -0.9431
  147MOL   H27147283   0.530   3.588   6.745  0.6102  0.2943 -1.6132
  147MOL   H27247284   0.653   3.571   6.526  1.1692  1.9681  1.4788
  147MOL   H27347285   0.624   3.552   6.365  0.7979 -0.5108  0.7807
  147MOL   C27447286   0.688   3.746   6.408 -0.3016 -0.2021 -0.6513
  147MOL   C27547287   0.837   3.724   6.438  0.3475  0.1356  0.3456
  147MOL   C27647288   0.930   3.657   6.351 -0.0987 -0.4621 -0.0665
  147MOL   C27747289   1.068   3.641   6.388 -0.2968 -0.2232 -0.0750
  147MOL   C27847290   1.113   3.693   6.512  0.3832  0.1080 -0.6849
  147MOL  Cl27947291   1.273   3.672   6.561  0.1502 -0.2309 -0.1817
  147MOL   C28047292   1.027   3.768   6.590  0.4963 -0.3769  0.4271
  147MOL   C28147293   0.891   3.772   6.555  0.2911 -0.1716 -0.0148
  147MOL   C28247294   0.657   3.798   6.267 -0.1298  0.7043  0.5853
  147MOL   H28347295   0.653   3.826   6.472 -0.2661 -1.0940  0.5095
  147MOL   H28447296   0.907   3.626   6.250  1.1774  0.0335 -0.5283
  147MOL   H28547297   1.144   3.596   6.327  0.4048  2.5639 -1.3740
  147MOL   H28647298   1.059   3.819   6.679 -2.0206  0.2523  1.0278
  147MOL   H28747299   0.824   3.823   6.623  1.0385  0.7429  0.0275
  147MOL   H28847300   0.722   3.735   6.206 -2.0200  0.2396 -0.9953
  147MOL   H28947301   0.553   3.781   6.240 -0.2750  0.1295  1.4864
  147MOL   C29047302   0.697   3.949   6.254  0.8027 -0.1361  0.5042
  147MOL   C29147303   0.701   3.987   6.101 -0.2302  0.0475 -0.5851
  147MOL   C29247304   0.792   4.086   6.053 -0.1143  0.7918 -0.3508
  147MOL   C29347305   0.786   4.130   5.921  0.1936  0.7014  0.1751
  147MOL   C29447306   0.683   4.083   5.838 -0.9610 -0.6307  0.5367
  147MOL  Cl29547307   0.658   4.147   5.678 -0.4833 -0.3111 -0.0713
  147MOL   C29647308   0.586   3.985   5.883  0.2643 -0.7357  0.8393
  147MOL   C29747309   0.603   3.938   6.015 -0.5122 -0.1821 -0.3836
  147MOL   C29847310   0.594   4.045   6.331  0.3795 -0.3784 -0.9419
  147MOL   H29947311   0.789   3.975   6.305  1.3589 -0.6198 -0.2482
  147MOL   H30047312   0.868   4.117   6.123 -0.1496 -0.8644  0.4343
  147MOL   H30147313   0.864   4.191   5.878  1.8969 -1.1173  0.6075
  147MOL   H30247314   0.505   3.947   5.822  1.1746 -0.0645 -0.8364
  147MOL   H30347315   0.544   3.853   6.045  2.0627 -2.9558 -2.7913
  147MOL   H30447316   0.498   4.056   6.281  0.5718 -0.3309 -1.2965
  147MOL   H30547317   0.560   4.019   6.431  1.5006  1.1018 -0.1539
  147MOL   C30647318   0.646   4.194   6.357 -0.5048  0.1145 -0.1478
  147MOL   C30747319   0.533   4.289   6.390  0.4318 -0.4691 -0.1786
  147MOL   C30847320   0.475   4.276   6.517 -0.0528  0.4400  0.2070
  147MOL   C30947321   0.368   4.361   6.546 -0.3262 -0.3596 -0.1242
  147MOL   C31047322   0.310   4.449   6.449 -0.6587 -0.3117 -0.9612
  147MOL  Cl31147323   0.175   4.531   6.492 -0.2033  0.2821  0.0211
  147MOL   C31247324   0.364   4.458   6.319 -0.1578 -0.2458 -0.3003
  147MOL   C31347325   0.481   4.381   6.296 -0.4960  0.9241 -0.3817
  147MOL   C31447326   0.760   4.215   6.452 -0.2613  0.1436 -0.2299
  147MOL   H31547327   0.683   4.234   6.262  0.9614  0.0701  0.3880
  147MOL   H31647328   0.518   4.200   6.580  0.4348 -1.1825 -2.0521
  147MOL   H31747329   0.324   4.353   6.645  0.5447 -2.2466  0.1316
  147MOL   H31847330   0.322   4.532   6.252  0.1885  1.0092  0.8443
  147MOL   H31947331   0.527   4.385   6.198 -2.3082  2.4097 -1.1990
  147MOL   H32047332   0.833   4.142   6.420 -1.7460 -0.9717 -1.1161
  147MOL   H32147333   0.817   4.307   6.441  0.4242 -0.4548 -1.8224
  147MOL   H32247334   0.739   4.200   6.558  1.4124 -2.0068 -0.1826
  148MOL     C147335   3.835   6.171   3.418  0.8352 -0.1534 -0.2172
  148MOL     C247336   3.914   6.292   3.454 -1.0754  0.3055 -0.5104
  148MOL     C347337   3.911   6.359   3.578  0.1415 -0.0625  0.4573
  148MOL     C447338   3.992   6.464   3.610 -0.4840 -0.1185  0.1578
  148MOL     C547339   4.082   6.508   3.512 -0.2394  0.5351  0.0121
  148MOL    Cl647340   4.161   6.657   3.530 -0.0259 -0.1339 -0.1198
  148MOL     C747341   4.097   6.438   3.390  0.1016 -0.1035 -0.0456
  148MOL     C847342   4.012   6.331   3.364  0.1992 -1.0481  0.2354
  148MOL     C947343   3.890   6.043   3.481  0.0510  0.7619 -0.7115
  148MOL    H1047344   3.813   6.168   3.311 -0.7053  0.0317  0.0850
  148MOL    H1147345   3.831   6.334   3.647 -1.3468 -0.0472 -1.2154
  148MOL    H1247346   3.981   6.523   3.700  1.6568  1.3049 -0.4776
  148MOL    H1347347   4.167   6.475   3.316 -1.9997 -0.1878 -2.1324
  148MOL    H1447348   4.025   6.285   3.267  0.0596  0.7262 -0.6474
  148MOL    H1547349   3.998   6.050   3.467  0.1815 -0.8504 -0.5950
  148MOL    H1647350   3.862   6.035   3.586  0.6820 -3.1234 -0.7514
  148MOL    H1747351   3.735   6.195   3.453  1.8529  1.7462  1.4510
  148MOL    C1847352   3.840   5.919   3.399  0.2155  0.8013 -0.4457
  148MOL    C1947353   3.902   5.921   3.255  0.5748 -0.5328 -0.1660
  148MOL    C2047354   4.040   5.909   3.238 -0.3070 -0.0819 -0.1830
  148MOL    C2147355   4.093   5.912   3.108  0.1164  0.2915 -0.1052
  148MOL    C2247356   4.018   5.904   2.995  0.1263 -0.2627 -0.1008
  148MOL   Cl2347357   4.083   5.898   2.833  0.0267  0.1881 -0.1518
  148MOL    C2447358   3.882   5.911   3.013  0.3448 -0.3677  0.7533
  148MOL    C2547359   3.819   5.913   3.138 -0.3358 -0.3155 -0.4529
  148MOL    C2647360   3.849   5.787   3.480 -0.6577  0.5805 -0.3442
  148MOL    H2747361   3.733   5.938   3.386 -0.4028 -1.3967  1.1048
  148MOL    H2847362   4.109   5.912   3.321  0.2617  0.3324 -0.6632
  148MOL    H2947363   4.199   5.923   3.093 -0.2913  3.3064 -1.1587
  148MOL    H3047364   3.832   5.897   2.919 -0.9791 -2.3447  1.7093
  148MOL    H3147365   3.712   5.910   3.152 -0.4163 -1.9109 -1.3101
  148MOL    H3247366   3.823   5.712   3.405  1.3984 -0.6380  0.1144
  148MOL    H3347367   3.951   5.768   3.511 -0.6408 -0.5648 -1.0719
  148MOL    C3447368   3.746   5.770   3.601 -0.6903 -0.1589  0.1212
  148MOL    C3547369   3.598   5.803   3.560  0.5530 -0.3873 -0.3566
  148MOL    C3647370   3.533   5.721   3.466 -0.3694 -0.7037 -0.4455
  148MOL    C3747371   3.402   5.757   3.419 -0.0379 -0.6343  0.0983
  148MOL    C3847372   3.339   5.870   3.469  0.4671  0.1124 -0.3901
  148MOL   Cl3947373   3.179   5.904   3.420 -0.1610  0.1393 -0.2438
  148MOL    C4047374   3.409   5.951   3.558 -0.2290 -0.2175 -1.4845
  148MOL    C4147375   3.542   5.925   3.598 -0.4518 -0.3161 -0.7633
  148MOL    C4247376   3.786   5.631   3.662  0.1232 -0.5787  0.2721
  148MOL    H4347377   3.771   5.847   3.674 -0.2303  0.0028 -0.2037
  148MOL    H4447378   3.592   5.636   3.434 -2.4221 -2.4195  0.2050
  148MOL    H4547379   3.348   5.688   3.356 -1.5617  2.2430 -1.8758
  148MOL    H4647380   3.351   6.023   3.614  0.6902 -1.8012  1.6013
  148MOL    H4747381   3.590   5.991   3.669 -1.3993  0.1341 -0.5309
  148MOL    H4847382   3.774   5.560   3.580  0.8173 -0.9270  0.4715
  148MOL    H4947383   3.893   5.633   3.682  0.3165  1.5159 -0.8209
  148MOL    C5047384   3.695   5.578   3.768  0.0106 -0.4155  0.2762
  148MOL    C5147385   3.714   5.428   3.793 -0.5162 -0.1260  0.2918
  148MOL    C5247386   3.840   5.374   3.851  0.3305  0.4190  0.1969
  148MOL    C5347387   3.843   5.238   3.877  1.2136 -0.4805  0.4507
  148MOL    C5447388   3.737   5.152   3.840 -0.7632  0.0328 -0.9189
  148MOL   Cl5547389   3.750   4.981   3.868  0.0671 -0.1566 -0.2032
  148MOL    C5647390   3.620   5.202   3.779  0.1609 -0.4798 -0.2304
  148MOL    C5747391   3.613   5.338   3.759  0.2377 -0.6106 -0.2761
  148MOL    C5847392   3.703   5.650   3.903  0.4189 -0.0206 -0.1059
  148MOL    H5947393   3.592   5.577   3.733  0.1035 -4.4148 -0.1390
  148MOL    H6047394   3.928   5.430   3.877 -0.0390  0.3565  1.6497
  148MOL    H6147395   3.924   5.197   3.935  1.1934 -1.3096 -0.1121
  148MOL    H6247396   3.537   5.136   3.757 -0.1703 -0.4530  0.8766
  148MOL    H6347397   3.523   5.391   3.732  1.3505  0.5556 -1.7332
  148MOL    H6447398   3.741   5.589   3.986 -0.9200 -0.1495  0.4189
  148MOL    H6547399   3.776   5.731   3.897  1.9205 -1.4730 -2.1669
  148MOL    C6647400   3.568   5.724   3.944  0.2019  0.0121  0.0267
  148MOL    C6747401   3.452   5.620   3.960  0.2669  0.3091 -0.2848
  148MOL    C6847402   3.429   5.552   4.085 -0.3776  0.3579 -0.2640
  148MOL    C6947403   3.326   5.457   4.096  0.7447 -0.3701 -0.2936
  148MOL    C7047404   3.236   5.441   3.991  0.1171 -0.2346 -0.0765
  148MOL   Cl7147405   3.093   5.345   3.999  0.0686 -0.1908 -0.4264
  148MOL    C7247406   3.257   5.508   3.869  0.0824  1.1480 -0.2581
  148MOL    C7347407   3.365   5.595   3.852 -0.0294 -0.3939  0.0766
  148MOL    C7447408   3.577   5.822   4.068 -0.3722 -0.1951  0.6131
  148MOL    H7547409   3.546   5.787   3.857 -0.7371 -1.7382 -1.0377
  148MOL    H7647410   3.505   5.556   4.162 -1.3174 -1.1007  0.7646
  148MOL    H7747411   3.318   5.397   4.186 -1.8007  0.4128  0.0652
  148MOL    H7847412   3.187   5.498   3.787 -0.5442 -1.1704  0.5184
  148MOL    H7947413   3.380   5.649   3.759  0.9733 -1.6691 -0.5180
  148MOL    H8047414   3.552   5.771   4.161  1.2001 -0.3274  0.9921
  148MOL    H8147415   3.684   5.838   4.081  0.1117 -3.1644  0.6752
  148MOL    C8247416   3.497   5.946   4.078  0.7450  0.0927  1.1953
  148MOL    C8347417   3.342   5.931   4.069  0.2916 -0.4267 -0.0791
  148MOL    C8447418   3.266   5.844   4.154  0.2531 -0.8677  0.6895
  148MOL    C8547419   3.128   5.814   4.131 -0.1664  0.9406  0.9948
  148MOL    C8647420   3.057   5.871   4.020  0.8379 -0.6966  0.9016
  148MOL   Cl8747421   2.897   5.828   3.990  0.0620  0.1069 -0.5188
  148MOL    C8847422   3.130   5.955   3.931 -1.0329 -0.0936  0.6378
  148MOL    C8947423   3.270   5.984   3.956 -0.6160  0.2522 -0.3404
  148MOL    C9047424   3.528   6.017   4.212  0.0267  1.4174  0.1454
  148MOL    H9147425   3.543   6.009   4.002  0.9378 -1.7876 -0.3001
  148MOL    H9247426   3.320   5.806   4.240 -0.0056  0.3640  1.4072
  148MOL    H9347427   3.075   5.755   4.205 -0.8117 -0.7674 -0.7747
  148MOL    H9447428   3.077   6.008   3.853 -0.5910 -0.9199 -0.2269
  148MOL    H9547429   3.324   6.035   3.877 -0.2996  0.4389 -0.0076
  148MOL    H9647430   3.485   5.952   4.288  0.6820  3.4228  2.2754
  148MOL    H9747431   3.637   6.022   4.218  0.5378 -2.1935 -3.5853
  148MOL    C9847432   3.468   6.157   4.236  0.2282 -0.7487  0.4152
  148MOL    C9947433   3.385   6.160   4.362  0.1698  0.0665 -0.0058
  148MOL   C10047434   3.449   6.139   4.488  0.4930 -0.6026 -0.0950
  148MOL   C10147435   3.379   6.163   4.607  0.2191  0.0404 -0.0616
  148MOL   C10247436   3.240   6.183   4.603  0.2347  0.2760  0.1707
  148MOL  Cl10347437   3.161   6.214   4.750 -0.1352 -0.1003  0.4299
  148MOL   C10447438   3.170   6.192   4.482  0.3329 -0.4653 -0.0839
  148MOL   C10547439   3.247   6.188   4.363 -0.1890 -0.3945 -0.3929
  148MOL   C10647440   3.571   6.278   4.225 -0.1647 -0.0039 -0.1447
  148MOL   H10747441   3.401   6.177   4.152  1.0647 -0.8480 -0.2741
  148MOL   H10847442   3.556   6.125   4.496  0.5015 -0.3459  0.2545
  148MOL   H10947443   3.427   6.144   4.702 -0.4693  0.3374  0.3480
  148MOL   H11047444   3.065   6.219   4.485  0.4282 -0.3480  2.8219
  148MOL   H11147445   3.205   6.214   4.267 -0.5733 -1.7330 -0.5934
  148MOL   H11247446   3.511   6.366   4.249  0.3619  0.3381 -0.0731
  148MOL   H11347447   3.639   6.266   4.309 -1.3627  0.9906  1.0031
  148MOL   C11447448   3.646   6.282   4.088 -0.0328 -0.8916 -0.2148
  148MOL   C11547449   3.548   6.304   3.977 -0.0166 -0.5622  0.2498
  148MOL   C11647450   3.428   6.375   3.992  0.0744 -0.1162 -0.0536
  148MOL   C11747451   3.333   6.383   3.881 -0.1452  0.3837 -0.0405
  148MOL   C11847452   3.362   6.333   3.753 -0.5346 -1.2788 -0.5512
  148MOL  Cl11947453   3.257   6.349   3.614 -0.1009 -0.1760  0.3277
  148MOL   C12047454   3.484   6.260   3.734  0.6996 -0.6229  0.1025
  148MOL   C12147455   3.571   6.257   3.845  0.6611  0.0641 -0.0885
  148MOL   C12247456   3.774   6.369   4.083  0.4870  0.0716 -0.0207
  148MOL   H12347457   3.680   6.179   4.080 -0.6353 -1.0351 -1.0662
  148MOL   H12447458   3.405   6.423   4.087  2.0234  1.1167 -0.1860
  148MOL   H12547459   3.247   6.444   3.901  0.9517  0.8780  3.5286
  148MOL   H12647460   3.502   6.223   3.634 -1.7798  0.7491 -0.9065
  148MOL   H12747461   3.659   6.195   3.839  0.7031  0.0705  0.4338
  148MOL   H12847462   3.786   6.370   3.975 -1.4568 -0.5852 -0.2696
  148MOL   H12947463   3.758   6.470   4.120 -1.4276 -0.6267  1.1499
  148MOL   C13047464   3.899   6.300   4.128  0.5604 -0.1972 -0.7432
  148MOL   C13147465   3.937   6.173   4.044 -0.7023  0.4453  0.3134
  148MOL   C13247466   3.981   6.187   3.914  0.9286 -0.2384  0.0525
  148MOL   C13347467   4.025   6.067   3.856 -0.8291 -0.4047  0.8037
  148MOL   C13447468   4.042   5.942   3.920 -0.7517  0.1995 -0.1348
  148MOL  Cl13547469   4.112   5.803   3.841  0.5114 -0.3583  0.0375
  148MOL   C13647470   3.985   5.929   4.051  0.2636 -0.8812 -0.0218
  148MOL   C13747471   3.925   6.045   4.106 -0.1373 -0.7115  0.7838
  148MOL   C13847472   4.013   6.404   4.120  0.9400 -0.6581 -0.4060
  148MOL   H13947473   3.882   6.264   4.229  0.7751  2.4152  0.2794
  148MOL   H14047474   3.964   6.276   3.857  1.0791  0.4817  1.1081
  148MOL   H14147475   4.046   6.067   3.750  0.0741  2.1581  0.9289
  148MOL   H14247476   3.976   5.834   4.101 -0.8960 -0.6165  0.2937
  148MOL   H14347477   3.882   6.039   4.205 -0.5203  0.5575  0.7124
  148MOL   H14447478   4.100   6.338   4.114  0.8467 -1.3258  4.0582
  148MOL   H14547479   4.002   6.457   4.025  0.9580  1.2785  0.6530
  148MOL   C14647480   4.039   6.506   4.238  0.6066 -0.6514 -0.2937
  148MOL   C14747481   4.053   6.439   4.377 -0.2020 -0.4717  0.0772
  148MOL   C14847482   3.951   6.440   4.472  0.1736  0.3545 -0.3805
  148MOL   C14947483   3.973   6.383   4.601 -0.4055  0.2904  0.2850
  148MOL   C15047484   4.101   6.331   4.630  0.4804 -0.0709 -0.1481
  148MOL  Cl15147485   4.130   6.276   4.791 -0.0307 -0.4575  0.0138
  148MOL   C15247486   4.198   6.322   4.529 -0.0927 -0.4596 -0.2758
  148MOL   C15347487   4.170   6.365   4.400 -0.4490  0.3686 -0.0912
  148MOL   C15447488   4.147   6.606   4.197 -0.1942 -0.6025  0.0771
  148MOL   H15547489   3.953   6.572   4.243  0.4065 -1.0213  1.6270
  148MOL   H15647490   3.857   6.487   4.447 -1.2573 -2.8530 -1.3738
  148MOL   H15747491   3.899   6.405   4.677  1.3320  4.7438  0.8145
  148MOL   H15847492   4.287   6.263   4.547 -0.9860 -1.2032  1.8945
  148MOL   H15947493   4.245   6.362   4.323 -2.0600  2.3700 -1.7819
  148MOL   H16047494   4.236   6.545   4.211  0.2024 -0.1520 -0.4326
  148MOL   H16147495   4.142   6.632   4.091  2.3530  0.9354  0.2775
  148MOL   C16247496   4.156   6.731   4.279 -0.3281  0.5767  0.0220
  148MOL   C16347497   4.223   6.699   4.419 -0.5182  0.2794 -1.3340
  148MOL   C16447498   4.158   6.714   4.545  0.4444  0.6925  0.1632
  148MOL   C16547499   4.215   6.672   4.667  0.0459  0.4693 -0.3267
  148MOL   C16647500   4.354   6.635   4.665  0.9035  0.3804  0.1012
  148MOL  Cl16747501   4.433   6.611   4.810  0.1467  0.6211  0.0279
  148MOL   C16847502   4.417   6.621   4.542 -0.0096  0.2941  0.1888
  148MOL   C16947503   4.352   6.650   4.421 -0.0521 -0.0763  0.3679
  148MOL   C17047504   4.231   6.849   4.209  0.0609  0.0980  0.2546
  148MOL   H17147505   4.052   6.761   4.292  0.4037  2.5272  1.5298
  148MOL   H17247506   4.055   6.745   4.538  0.0890 -0.2867  0.8686
  148MOL   H17347507   4.159   6.675   4.759  0.1864  0.0787 -0.2276
  148MOL   H17447508   4.514   6.573   4.545 -0.7757 -1.2586  0.7656
  148MOL   H17547509   4.405   6.617   4.333  1.9077  0.0358  1.4716
  148MOL   H17647510   4.326   6.817   4.167  0.3610  0.9375  0.2771
  148MOL   H17747511   4.174   6.881   4.122  0.2160 -0.0843  0.0858
  148MOL   C17847512   4.257   6.976   4.290 -0.3233 -0.3196  0.0939
  148MOL   C17947513   4.390   6.966   4.356 -0.3905 -0.5689 -0.2203
  148MOL   C18047514   4.404   6.993   4.489 -0.0423 -0.3038  0.2352
  148MOL   C18147515   4.533   6.992   4.542 -0.1314  0.3050 -0.1884
  148MOL   C18247516   4.647   6.963   4.460  0.6552 -0.0911  0.6938
  148MOL  Cl18347517   4.799   6.964   4.541 -0.1618 -0.1050 -0.0666
  148MOL   C18447518   4.633   6.930   4.326 -0.1953 -0.3833  0.3093
  148MOL   C18547519   4.504   6.943   4.272  0.3119 -0.0370  0.0375
  148MOL   C18647520   4.235   7.109   4.218 -0.3707 -0.2886 -0.0200
  148MOL   H18747521   4.182   6.964   4.368  0.6758 -0.2791  1.0742
  148MOL   H18847522   4.315   7.012   4.546 -1.1159  2.2079 -2.1685
  148MOL   H18947523   4.555   7.030   4.641  0.3683 -2.2268  0.7017
  148MOL   H19047524   4.722   6.919   4.267  1.2117 -0.5628  2.4159
  148MOL   H19147525   4.494   6.937   4.165  0.1237  1.0054 -0.0110
  148MOL   H19247526   4.321   7.173   4.234 -0.9537  0.5465 -0.1829
  148MOL   H19347527   4.248   7.082   4.114  2.3577 -1.3020  0.5359
  148MOL   C19447528   4.104   7.188   4.232 -0.1480 -0.3171  0.9680
  148MOL   C19547529   3.993   7.086   4.240 -0.1960  1.1422  0.0991
  148MOL   C19647530   3.930   7.058   4.366  0.8548  0.3378  0.9662
  148MOL   C19747531   3.837   6.951   4.373  0.9353 -0.1579 -0.8142
  148MOL   C19847532   3.794   6.880   4.261  0.5289 -0.3490 -0.8621
  148MOL  Cl19947533   3.691   6.745   4.269  0.0960  0.0595 -0.4164
  148MOL   C20047534   3.851   6.913   4.136  0.3410  0.7039 -0.4150
  148MOL   C20147535   3.942   7.018   4.124  0.2717  0.6910 -0.3649
  148MOL   C20247536   4.110   7.288   4.346  0.4157 -0.4131  0.7456
  148MOL   H20347537   4.074   7.242   4.142 -2.5917 -1.2469  1.1823
  148MOL   H20447538   3.961   7.112   4.454  0.4242 -2.0701  2.6328
  148MOL   H20547539   3.791   6.933   4.470  2.6627  1.9399  0.4319
  148MOL   H20647540   3.808   6.871   4.046 -1.3865  1.1524  0.1870
  148MOL   H20747541   3.969   7.050   4.024 -0.2555 -0.5950 -0.9242
  148MOL   H20847542   4.011   7.297   4.391  0.0820  2.0676 -0.3858
  148MOL   H20947543   4.174   7.243   4.422 -0.1738 -2.1349  0.2349
  148MOL   C21047544   4.179   7.426   4.315  0.8504  0.5024  0.7116
  148MOL   C21147545   4.096   7.523   4.241  0.1502  0.1731  0.0434
  148MOL   C21247546   4.139   7.578   4.116 -0.0884  0.1635 -0.8551
  148MOL   C21347547   4.073   7.686   4.054 -0.0466 -0.0245  0.1346
  148MOL   C21447548   3.963   7.745   4.116  0.7020  0.8031  0.0308
  148MOL  Cl21547549   3.871   7.873   4.037  0.0078  0.2713 -0.1998
  148MOL   C21647550   3.923   7.701   4.247  0.8844 -0.7832  0.5808
  148MOL   C21747551   3.987   7.587   4.308  0.0338 -0.2053 -0.5474
  148MOL   C21847552   4.235   7.494   4.440  0.3016  0.3150 -0.7268
  148MOL   H21947553   4.260   7.407   4.245 -0.7009  2.9068 -1.8292
  148MOL   H22047554   4.224   7.541   4.060 -0.2786  1.7843 -2.2554
  148MOL   H22147555   4.108   7.719   3.957 -0.8094  1.8296  0.4497
  148MOL   H22247556   3.840   7.754   4.292 -0.3549 -1.3564 -1.0011
  148MOL   H22347557   3.957   7.543   4.402  1.6356 -1.6180 -0.6805
  148MOL   H22447558   4.260   7.596   4.410  0.2900  0.2204 -1.0609
  148MOL   H22547559   4.163   7.519   4.518  0.1152  0.3010 -0.8952
  148MOL   C22647560   4.361   7.438   4.498 -0.0075 -0.0145  0.3328
  148MOL   C22747561   4.473   7.430   4.392 -0.1619 -0.5111 -0.5123
  148MOL   C22847562   4.503   7.301   4.341  0.2531 -0.1950 -0.6253
  148MOL   C22947563   4.594   7.287   4.237 -1.0506  0.2598 -0.6122
  148MOL   C23047564   4.662   7.397   4.193  0.3837  0.6075  0.5482
  148MOL  Cl23147565   4.790   7.385   4.087  0.0580  0.0851  0.2094
  148MOL   C23247566   4.634   7.524   4.246 -0.1552  0.4632 -0.1480
  148MOL   C23347567   4.542   7.543   4.345  0.1213  0.1047  0.7963
  148MOL   C23447568   4.410   7.521   4.621  0.1784  0.2468  1.1412
  148MOL   H23547569   4.332   7.339   4.535  3.2788 -1.0888  0.1682
  148MOL   H23647570   4.456   7.217   4.390  0.0012  0.6056  0.5192
  148MOL   H23747571   4.618   7.195   4.185 -1.3140  1.1870 -2.4092
  148MOL   H23847572   4.686   7.605   4.198 -1.0546  0.7017 -0.7377
  148MOL   H23947573   4.508   7.641   4.377 -0.8508 -0.2458  0.8468
  148MOL   H24047574   4.471   7.605   4.588 -2.0873  1.6192  0.2986
  148MOL   H24147575   4.316   7.553   4.667 -0.4465  1.0631 -0.6790
  148MOL   C24247576   4.510   7.457   4.725  0.8694  0.5766  0.3712
  148MOL   C24347577   4.445   7.400   4.848 -0.6860 -0.4581 -0.5806
  148MOL   C24447578   4.468   7.465   4.976 -0.1970 -0.3203 -0.0977
  148MOL   C24547579   4.401   7.409   5.089 -0.0028  0.5975 -0.0480
  148MOL   C24647580   4.340   7.285   5.080  0.1071  0.0471 -1.0717
  148MOL  Cl24747581   4.296   7.222   5.233 -0.0533  0.2804 -0.2055
  148MOL   C24847582   4.326   7.214   4.958 -0.1630  0.6107  0.3683
  148MOL   C24947583   4.377   7.282   4.843  0.2495  0.0698  0.3821
  148MOL   C25047584   4.627   7.360   4.678 -0.4903  0.1860  0.2278
  148MOL   H25147585   4.556   7.544   4.773  0.7802  0.3048  0.9433
  148MOL   H25247586   4.528   7.553   4.992  2.0655 -1.9214  0.4756
  148MOL   H25347587   4.392   7.462   5.182  1.4788 -2.8391  2.1340
  148MOL   H25447588   4.282   7.116   4.953  1.3756 -0.1300  0.8793
  148MOL   H25547589   4.360   7.226   4.752  0.0345 -0.6550  0.8724
  148MOL   H25647590   4.662   7.310   4.768  2.7942  1.7811 -0.1267
  148MOL   H25747591   4.584   7.283   4.613  2.5129 -0.9248 -0.5099
  148MOL   C25847592   4.754   7.429   4.618 -0.2534  0.4986 -0.3170
  148MOL   C25947593   4.799   7.544   4.706  0.4693 -1.2206  0.5156
  148MOL   C26047594   4.795   7.673   4.652  0.2672 -0.2756 -0.0256
  148MOL   C26147595   4.826   7.786   4.731  0.2768 -0.9437  1.3224
  148MOL   C26247596   4.881   7.764   4.862  0.1416  0.3549 -0.6494
  148MOL  Cl26347597   4.930   7.895   4.969 -0.1901  0.2482  0.1463
  148MOL   C26447598   4.894   7.630   4.909  0.5185  0.0077  0.2779
  148MOL   C26547599   4.853   7.522   4.833  0.3061  0.0331 -0.4794
  148MOL   C26647600   4.861   7.325   4.580 -0.0087  0.0989 -1.0052
  148MOL   H26747601   4.721   7.473   4.524  0.2116 -1.0559 -1.2296
  148MOL   H26847602   4.770   7.695   4.550  1.7925 -1.3487 -0.6602
  148MOL   H26947603   4.814   7.886   4.692  0.0746 -1.4001  0.2083
  148MOL   H27047604   4.946   7.620   5.003  1.6239 -1.0515 -0.4333
  148MOL   H27147605   4.863   7.418   4.860  2.3245 -0.1298 -1.7644
  148MOL   H27247606   4.856   7.257   4.665  1.8824  1.8147  0.5298
  148MOL   H27347607   4.826   7.264   4.496 -0.2308  1.6011 -2.0134
  148MOL   C27447608   5.002   7.382   4.547  0.3042  0.1497 -0.4237
  148MOL   C27547609   5.106   7.286   4.598 -0.1858  0.4930  0.2927
  148MOL   C27647610   5.155   7.180   4.518 -0.1924  0.0905 -0.1312
  148MOL   C27747611   5.247   7.092   4.569  0.0608  0.8055  0.6011
  148MOL   C27847612   5.298   7.112   4.699  0.2189  0.2442  0.3758
  148MOL  Cl27947613   5.417   7.004   4.759 -0.3910  0.1814 -0.1301
  148MOL   C28047614   5.248   7.212   4.785 -0.0789  0.1726  0.1625
  148MOL   C28147615   5.156   7.300   4.728  0.1753 -0.0524  0.6217
  148MOL   C28247616   5.021   7.424   4.398  0.6216 -0.7042 -0.6691
  148MOL   H28347617   5.009   7.469   4.612 -2.2198  0.7217 -0.8890
  148MOL   H28447618   5.121   7.159   4.418  0.1090 -1.6527  0.1175
  148MOL   H28547619   5.284   7.009   4.510 -0.0907  0.6108  0.7771
  148MOL   H28647620   5.280   7.206   4.888  2.1779 -1.0097 -0.5596
  148MOL   H28747621   5.121   7.388   4.780 -0.1719  0.1778  0.0075
  148MOL   H28847622   5.032   7.333   4.339 -1.2699 -1.9590  0.8561
  148MOL   H28947623   4.937   7.481   4.357  0.1941  0.6245  1.9203
  148MOL   C29047624   5.154   7.495   4.367  0.1955 -1.0633  0.5649
  148MOL   C29147625   5.208   7.442   4.234  0.3431 -0.2473  0.2556
  148MOL   C29247626   5.134   7.463   4.112 -1.1176  0.4276 -0.7626
  148MOL   C29347627   5.197   7.416   3.991  0.0280 -0.5921 -0.5006
  148MOL   C29447628   5.330   7.378   3.990  0.9330  1.0023 -0.0400
  148MOL  Cl29547629   5.414   7.341   3.846  0.0052  0.1317 -0.1679
  148MOL   C29647630   5.405   7.357   4.107  0.4694 -0.7567 -0.5730
  148MOL   C29747631   5.335   7.386   4.231 -0.0761 -0.4589  0.2497
  148MOL   C29847632   5.144   7.648   4.352 -0.1336  0.7127  0.0193
  148MOL   H29947633   5.222   7.464   4.446 -0.6133  0.1412  1.7504
  148MOL   H30047634   5.037   7.511   4.116 -1.9488 -1.3218  2.3678
  148MOL   H30147635   5.147   7.437   3.898 -0.4622  1.9879  0.3040
  148MOL   H30247636   5.504   7.315   4.101  0.3820 -1.2085  0.9713
  148MOL   H30347637   5.389   7.384   4.325  2.6068  1.0629 -1.1911
  148MOL   H30447638   5.226   7.693   4.296 -0.8159  1.6894 -0.2037
  148MOL   H30547639   5.059   7.671   4.289  0.9690 -0.7544 -2.0613
  148MOL   C30647640   5.115   7.718   4.487 -0.5411 -0.5266 -0.2532
  148MOL   C30747641   5.232   7.688   4.589  0.1550 -0.5468  0.4372
  148MOL   C30847642   5.368   7.694   4.541 -0.1779  0.5809  0.0544
  148MOL   C30947643   5.471   7.679   4.634  0.2092  0.7968  0.6156
  148MOL   C31047644   5.441   7.650   4.768 -0.3884  0.1845 -0.5847
  148MOL  Cl31147645   5.566   7.620   4.879  0.2631  0.4385 -0.1546
  148MOL   C31247646   5.308   7.638   4.809 -0.0431  0.3421 -0.2115
  148MOL   C31347647   5.204   7.663   4.724  0.6735 -0.0189 -0.0890
  148MOL   C31447648   5.091   7.871   4.483  0.2949 -0.4182  0.1636
  148MOL   H31547649   5.023   7.671   4.520 -0.3390  0.5097  1.8443
  148MOL   H31647650   5.391   7.721   4.439  2.0083  1.5666  0.7766
  148MOL   H31747651   5.574   7.689   4.603 -0.3670  1.8845 -0.9692
  148MOL   H31847652   5.290   7.625   4.914  2.1031  0.1134  0.1634
  148MOL   H31947653   5.102   7.667   4.761 -0.0665 -0.2169 -2.0378
  148MOL   H32047654   5.066   7.918   4.578  3.7327  1.9336 -0.0252
  148MOL   H32147655   5.183   7.926   4.462  1.3651 -2.6521 -1.2296
  148MOL   H32247656   5.009   7.900   4.418 -0.4029 -2.4759  0.0817
  149MOL     C147657   3.474   3.855   3.948  0.2768 -0.6157  0.4373
  149MOL     C247658   3.494   3.704   3.952  0.1296 -0.7410 -0.7750
  149MOL     C347659   3.435   3.620   3.853 -0.2581 -0.3437  0.1909
  149MOL     C447660   3.433   3.480   3.871  0.9106 -0.4908  0.9139
  149MOL     C547661   3.483   3.432   3.992  0.3833 -0.2887 -0.0249
  149MOL    Cl647662   3.468   3.252   4.005  0.0685 -0.1988  0.4734
  149MOL     C747663   3.562   3.510   4.077  0.3798  0.3414  0.0708
  149MOL     C847664   3.565   3.646   4.057  0.0295  0.2850  0.3263
  149MOL     C947665   3.340   3.919   3.899 -0.5590  0.4811 -0.3490
  149MOL    H1047666   3.554   3.903   3.892 -1.2772  1.2820 -0.2153
  149MOL    H1147667   3.381   3.667   3.772 -0.3984 -2.8488 -1.2334
  149MOL    H1247668   3.389   3.414   3.797 -2.6705  2.1502  0.5584
  149MOL    H1347669   3.612   3.459   4.159 -0.6511  0.7373  0.9614
  149MOL    H1447670   3.621   3.706   4.127  0.7858 -0.3717  0.2982
  149MOL    H1547671   3.353   4.027   3.908 -1.2154  0.5617 -0.3538
  149MOL    H1647672   3.315   3.904   3.794  0.9241  1.8574 -0.9263
  149MOL    H1747673   3.497   3.900   4.045 -0.9734  0.1218  0.4042
  149MOL    C1847674   3.213   3.880   3.979 -0.7883 -1.4287 -0.8699
  149MOL    C1947675   3.214   3.913   4.130 -0.5739 -0.2640  0.3491
  149MOL    C2047676   3.179   4.038   4.179  0.0319  0.0362 -0.1706
  149MOL    C2147677   3.188   4.074   4.314 -0.1279 -0.3128 -0.3339
  149MOL    C2247678   3.215   3.975   4.404 -0.1360 -0.1154  0.1429
  149MOL   Cl2347679   3.209   4.010   4.574  0.2623  0.0765  0.3708
  149MOL    C2447680   3.260   3.848   4.357  0.2806  0.2027 -0.8659
  149MOL    C2547681   3.254   3.814   4.225  0.3231  0.3040 -0.4477
  149MOL    C2647682   3.082   3.930   3.919  0.3783  0.5803  0.9602
  149MOL    H2747683   3.207   3.772   3.991 -2.7168 -1.0796  1.6797
  149MOL    H2847684   3.146   4.114   4.109  0.7117  0.3082 -0.2025
  149MOL    H2947685   3.164   4.177   4.337  1.9676 -0.3558  2.2580
  149MOL    H3047686   3.286   3.777   4.435 -3.1689  0.5864  0.7674
  149MOL    H3147687   3.282   3.712   4.206  1.5342  0.4718  0.3028
  149MOL    H3247688   3.004   3.939   3.995  0.5500  0.7743  1.1161
  149MOL    H3347689   3.101   4.033   3.889  1.1686 -0.0550 -0.7721
  149MOL    C3447690   3.048   3.856   3.790  0.5041  0.4665 -0.4677
  149MOL    C3547691   3.040   3.701   3.814 -0.8492 -0.7401 -0.5952
  149MOL    C3647692   3.084   3.612   3.712  0.0588 -0.0609 -0.2980
  149MOL    C3747693   3.075   3.475   3.736 -0.0167  0.7750 -0.3948
  149MOL    C3847694   3.011   3.427   3.844  0.8214  1.0781 -0.2047
  149MOL   Cl3947695   2.992   3.254   3.868  0.1374  0.1773  0.0600
  149MOL    C4047696   2.968   3.510   3.945 -0.1765  0.1490  0.2005
  149MOL    C4147697   2.980   3.648   3.931  0.4050  0.0264  0.7417
  149MOL    C4247698   2.920   3.914   3.723 -0.4620 -0.3581 -0.4032
  149MOL    H4347699   3.128   3.873   3.718  0.1500  0.1547 -0.9460
  149MOL    H4447700   3.129   3.660   3.626  2.9979 -0.2426  1.0615
  149MOL    H4547701   3.109   3.406   3.660 -0.8507  1.0593 -1.0323
  149MOL    H4647702   2.910   3.469   4.026 -1.4296 -0.6509 -1.0705
  149MOL    H4747703   2.933   3.714   4.003 -1.4445 -1.5468  1.0126
  149MOL    H4847704   2.886   3.827   3.667  0.9085 -0.8049 -0.5580
  149MOL    H4947705   2.849   3.940   3.803 -1.2164  0.9374 -1.4802
  149MOL    C5047706   2.928   4.022   3.624 -0.6430 -0.8571 -0.0041
  149MOL    C5147707   2.863   3.974   3.493 -0.8194 -0.5110  0.7339
  149MOL    C5247708   2.933   3.881   3.412  0.0233 -0.0205 -1.1878
  149MOL    C5347709   2.860   3.832   3.298 -0.8633 -0.2731  0.8469
  149MOL    C5447710   2.725   3.871   3.271  0.2384  0.5575 -0.3915
  149MOL   Cl5547711   2.637   3.780   3.147 -0.0821  0.0204 -0.1331
  149MOL    C5647712   2.666   3.969   3.352  0.3113 -0.2549 -0.2742
  149MOL    C5747713   2.731   4.017   3.462 -0.4408 -0.4995 -0.1680
  149MOL    C5847714   2.884   4.156   3.676 -0.1369  0.1680 -0.4127
  149MOL    H5947715   3.034   4.036   3.600 -0.7717  0.6834  0.2828
  149MOL    H6047716   3.029   3.843   3.445 -1.2381 -1.6216  0.7151
  149MOL    H6147717   2.898   3.753   3.236 -0.2547 -0.0855  0.9762
  149MOL    H6247718   2.563   3.992   3.329  0.7073  2.3062  0.3242
  149MOL    H6347719   2.669   4.078   3.527 -2.8380 -5.6685  2.6624
  149MOL    H6447720   2.777   4.147   3.697  0.0399  2.6473  1.8376
  149MOL    H6547721   2.936   4.178   3.770 -0.3163  0.0469 -0.2854
  149MOL    C6647722   2.914   4.269   3.575 -0.8895  0.9460 -0.3389
  149MOL    C6747723   2.793   4.354   3.548  0.7337  0.2286  0.0782
  149MOL    C6847724   2.725   4.418   3.656 -0.0049  0.4003 -0.7153
  149MOL    C6947725   2.608   4.485   3.635 -0.1137 -0.3628 -0.3294
  149MOL    C7047726   2.560   4.511   3.504 -0.3146 -0.3648 -0.5933
  149MOL   Cl7147727   2.419   4.592   3.470  0.2488 -0.1259  0.0007
  149MOL    C7247728   2.624   4.449   3.396 -0.0255  0.4992 -0.8340
  149MOL    C7347729   2.740   4.376   3.414 -0.5745  0.5090 -0.0934
  149MOL    C7447730   3.035   4.345   3.626  0.8285 -0.2082 -0.0322
  149MOL    H7547731   2.932   4.225   3.477 -1.8346  1.1708 -0.6212
  149MOL    H7647732   2.751   4.400   3.759 -0.8442 -0.2834 -0.6154
  149MOL    H7747733   2.567   4.534   3.722 -1.7438  0.6544 -1.6523
  149MOL    H7847734   2.586   4.457   3.295 -2.1599  0.4304 -0.0569
  149MOL    H7947735   2.788   4.324   3.333  0.8175 -1.0076  1.6504
  149MOL    H8047736   3.011   4.391   3.722 -1.5962  2.6078 -1.8899
  149MOL    H8147737   3.114   4.274   3.651  2.4444  1.4120 -0.4672
  149MOL    C8247738   3.075   4.470   3.535 -1.1476 -0.2502 -0.4709
  149MOL    C8347739   3.190   4.550   3.591 -0.1850  0.4057 -0.4834
  149MOL    C8447740   3.184   4.684   3.621 -0.0845  0.4928  0.5708
  149MOL    C8547741   3.295   4.759   3.661  0.6689 -0.6541 -0.0233
  149MOL    C8647742   3.416   4.684   3.700 -0.8522 -0.2373 -0.6750
  149MOL   Cl8747743   3.551   4.771   3.755  0.4833  0.2626  0.2366
  149MOL    C8847744   3.422   4.546   3.673  0.3254  0.2367 -0.3463
  149MOL    C8947745   3.310   4.480   3.619 -0.4898  1.0602  0.0486
  149MOL    C9047746   3.108   4.416   3.393  0.2610 -0.2526 -0.2969
  149MOL    H9147747   2.991   4.538   3.545 -0.7468  0.3416 -1.0580
  149MOL    H9247748   3.092   4.735   3.597  0.0606  0.3163 -0.3930
  149MOL    H9347749   3.294   4.865   3.681 -1.5558 -0.5703 -0.5429
  149MOL    H9447750   3.511   4.488   3.688  1.1134  1.6725  0.6672
  149MOL    H9547751   3.322   4.374   3.601 -1.0641  0.4255  3.1608
  149MOL    H9647752   3.189   4.344   3.405  0.2020 -0.4332 -0.9647
  149MOL    H9747753   3.029   4.351   3.354 -1.8683  1.7555  0.5678
  149MOL    C9847754   3.140   4.523   3.283  0.0218  0.6091 -0.1546
  149MOL    C9947755   3.218   4.458   3.167  0.1567 -0.0043  0.5970
  149MOL   C10047756   3.359   4.484   3.161  0.0975  0.2851 -0.8258
  149MOL   C10147757   3.442   4.405   3.079 -0.3467  0.7343 -0.2725
  149MOL   C10247758   3.384   4.302   3.003 -0.7311  0.2124 -0.3855
  149MOL  Cl10347759   3.496   4.201   2.910 -0.1556  0.2149  0.7542
  149MOL   C10447760   3.244   4.289   3.005  0.8291 -0.6555 -0.0470
  149MOL   C10547761   3.163   4.359   3.086 -0.1584  0.2688  0.2269
  149MOL   C10647762   3.012   4.603   3.248 -0.1169 -0.3663 -0.0091
  149MOL   H10747763   3.205   4.598   3.327  1.2201  0.1220 -1.0675
  149MOL   H10847764   3.413   4.552   3.225 -1.4511 -0.4510  1.3077
  149MOL   H10947765   3.548   4.421   3.085  0.1702 -2.5638  0.2870
  149MOL   H11047766   3.211   4.207   2.942 -0.0959 -1.1614  1.0789
  149MOL   H11147767   3.059   4.331   3.092 -0.6772  2.0923  0.1780
  149MOL   H11247768   2.931   4.533   3.223  0.4140 -0.3808 -1.8033
  149MOL   H11347769   2.969   4.659   3.330  0.6435 -0.0921  0.2070
  149MOL   C11447770   3.032   4.693   3.129 -0.0760 -0.6212  0.6507
  149MOL   C11547771   2.975   4.640   3.002  0.0043 -0.5923  0.3758
  149MOL   C11647772   2.836   4.623   2.994 -0.0178 -0.1252 -0.2966
  149MOL   C11747773   2.773   4.568   2.880 -0.0943 -0.7596  0.2793
  149MOL   C11847774   2.855   4.525   2.773  0.2150 -0.4639  0.8393
  149MOL  Cl11947775   2.781   4.457   2.635  0.1183  0.1250 -0.1877
  149MOL   C12047776   2.994   4.553   2.777 -0.4657 -0.7211  0.0972
  149MOL   C12147777   3.052   4.612   2.889 -0.3251  0.0574  0.1624
  149MOL   C12247778   2.979   4.836   3.154  0.0484 -0.2665 -0.0293
  149MOL   H12347779   3.140   4.691   3.110 -0.0681 -0.2240  0.6538
  149MOL   H12447780   2.786   4.647   3.087  2.3327 -3.5471  1.9912
  149MOL   H12547781   2.665   4.561   2.880 -0.2550  1.4541  1.1918
  149MOL   H12647782   3.054   4.529   2.690 -2.1305  1.1661 -1.6216
  149MOL   H12747783   3.160   4.618   2.884 -0.3388  0.2698  0.1005
  149MOL   H12847784   2.955   4.883   3.059  3.4149 -0.5956 -1.1112
  149MOL   H12947785   2.884   4.839   3.208  1.2323 -1.1846  2.1442
  149MOL   C13047786   3.075   4.932   3.232  0.0659  0.0726 -0.0171
  149MOL   C13147787   3.202   4.951   3.149  0.2450  0.1541 -0.4814
  149MOL   C13247788   3.207   5.041   3.036 -0.1827  0.3067 -0.2375
  149MOL   C13347789   3.318   5.042   2.945  0.3438 -0.2949  0.5206
  149MOL   C13447790   3.436   4.971   2.986  0.0781 -0.4637  0.4141
  149MOL  Cl13547791   3.581   4.981   2.891  0.1616 -0.0962 -0.1144
  149MOL   C13647792   3.440   4.894   3.102 -0.2216 -0.7637  0.3868
  149MOL   C13747793   3.319   4.883   3.181 -0.0312  0.2723  0.2904
  149MOL   C13847794   3.015   5.077   3.264  0.7318 -0.4690 -1.0983
  149MOL   H13947795   3.107   4.889   3.327  0.4951  1.3741  0.4481
  149MOL   H14047796   3.119   5.090   2.998 -1.1469 -2.8873 -2.3492
  149MOL   H14147797   3.320   5.101   2.854 -0.4087 -1.3976 -0.2284
  149MOL   H14247798   3.536   4.853   3.128  0.0566  0.8255  1.9482
  149MOL   H14347799   3.329   4.823   3.270 -0.1038  0.4407  0.4132
  149MOL   H14447800   3.099   5.144   3.283  0.1786 -0.1027  0.1378
  149MOL   H14547801   2.972   5.122   3.175  0.7205 -3.3067 -2.5844
  149MOL   C14647802   2.912   5.089   3.386  0.0168  0.8612  0.1367
  149MOL   C14747803   2.992   5.091   3.513  0.0128 -0.0183  0.2088
  149MOL   C14847804   2.983   4.985   3.605  0.0103 -0.3917  0.4941
  149MOL   C14947805   3.057   4.985   3.725 -0.0780 -0.2585 -0.1494
  149MOL   C15047806   3.157   5.080   3.743  0.4441 -0.4025  0.0828
  149MOL  Cl15147807   3.265   5.066   3.880 -0.1759  0.3278 -0.0880
  149MOL   C15247808   3.171   5.188   3.655  0.4476  0.0880  0.0130
  149MOL   C15347809   3.084   5.193   3.544 -0.4163 -0.4724  0.0375
  149MOL   C15447810   2.813   5.214   3.381  0.1792  0.0129  0.5970
  149MOL   H15547811   2.845   5.003   3.389  1.4313 -0.2189  1.9874
  149MOL   H15647812   2.900   4.916   3.602  0.3679 -0.7715 -2.1056
  149MOL   H15747813   3.029   4.913   3.800 -2.4527 -1.2647 -1.9600
  149MOL   H15847814   3.253   5.257   3.664  0.7621 -0.3665  0.7425
  149MOL   H15947815   3.110   5.274   3.478  0.3893 -0.2913  0.5692
  149MOL   H16047816   2.764   5.202   3.477 -0.8210 -0.9840 -0.0233
  149MOL   H16147817   2.866   5.309   3.384 -0.3150  0.3067  0.1556
  149MOL   C16247818   2.699   5.235   3.271 -0.2434 -0.5892  0.1505
  149MOL   C16347819   2.605   5.123   3.240 -0.8291  0.6557 -0.1999
  149MOL   C16447820   2.557   5.098   3.108  0.3867 -0.2826 -0.6836
  149MOL   C16547821   2.482   4.976   3.084 -0.3420 -0.1214 -0.4027
  149MOL   C16647822   2.441   4.887   3.187 -0.2976 -0.0642 -0.1983
  149MOL  Cl16747823   2.363   4.741   3.146 -0.0826 -0.2030 -0.0563
  149MOL   C16847824   2.476   4.930   3.320 -1.1503  0.1447  0.0526
  149MOL   C16947825   2.554   5.047   3.347 -0.5015  0.0454 -0.4139
  149MOL   C17047826   2.619   5.371   3.279 -0.1484 -0.8788  0.0699
  149MOL   H17147827   2.757   5.244   3.179  0.7548 -0.0315  0.8264
  149MOL   H17247828   2.587   5.162   3.027  4.5258  1.2521  1.8767
  149MOL   H17347829   2.453   4.950   2.984  1.4800 -1.7523 -0.5426
  149MOL   H17447830   2.425   4.881   3.401  0.2134  0.6870  1.2550
  149MOL   H17547831   2.580   5.076   3.448 -1.0245 -0.3106 -0.1729
  149MOL   H17647832   2.691   5.452   3.285  1.4530 -2.2134 -0.5567
  149MOL   H17747833   2.581   5.384   3.178 -0.8532 -0.7400  0.3521
  149MOL   C17847834   2.505   5.389   3.384 -0.1645  0.7179  0.3185
  149MOL   C17947835   2.559   5.368   3.522 -0.2649 -0.6790 -0.8112
  149MOL   C18047836   2.656   5.458   3.571 -0.4771  0.4947  0.3039
  149MOL   C18147837   2.713   5.437   3.701 -0.2240 -0.2960 -0.2468
  149MOL   C18247838   2.665   5.331   3.782 -0.0690 -0.1061 -0.0574
  149MOL  Cl18347839   2.736   5.308   3.941 -0.0586  0.0505  0.2188
  149MOL   C18447840   2.558   5.252   3.737 -0.3258  0.5531  0.2791
  149MOL   C18547841   2.505   5.273   3.609 -0.0649 -0.1952  0.3374
  149MOL   C18647842   2.446   5.530   3.371  0.3609 -0.6312 -0.1686
  149MOL   H18747843   2.419   5.323   3.390  0.3948 -0.0536 -0.1733
  149MOL   H18847844   2.697   5.540   3.515  1.0960  0.2026  1.0024
  149MOL   H18947845   2.785   5.501   3.750  0.2021 -0.0432 -1.1910
  149MOL   H19047846   2.512   5.184   3.808 -0.0561 -0.7211 -0.7545
  149MOL   H19147847   2.423   5.209   3.584 -0.1915 -0.0623  0.4106
  149MOL   H19247848   2.373   5.544   3.451  2.2581  1.2809  1.3078
  149MOL   H19347849   2.526   5.604   3.378 -0.9372  0.9593 -1.7375
  149MOL   C19447850   2.366   5.552   3.233  0.6197  0.9107 -0.1170
  149MOL   C19547851   2.273   5.436   3.197  0.2516 -0.3936  0.2061
  149MOL   C19647852   2.155   5.404   3.273 -0.1628  0.4549  0.7579
  149MOL   C19747853   2.071   5.293   3.250 -0.0707  0.1525 -0.0793
  149MOL   C19847854   2.100   5.215   3.132 -0.4926  0.0875 -0.1878
  149MOL  Cl19947855   1.983   5.094   3.085 -0.0826 -0.4043 -0.5267
  149MOL   C20047856   2.215   5.242   3.047  0.3826  0.3964  0.1729
  149MOL   C20147857   2.300   5.356   3.082  0.2238 -0.1331 -0.0506
  149MOL   C20247858   2.294   5.685   3.227 -0.4968 -0.5192  0.4347
  149MOL   H20347859   2.439   5.543   3.153  0.3189  1.2875 -0.4345
  149MOL   H20447860   2.117   5.463   3.355 -1.8122  0.1602  0.2194
  149MOL   H20547861   1.982   5.276   3.308 -1.2609  0.4089 -1.7760
  149MOL   H20647862   2.239   5.188   2.957  0.5183 -1.7897  1.5006
  149MOL   H20747863   2.385   5.368   3.016 -0.5044  4.3705 -0.3695
  149MOL   H20847864   2.217   5.663   3.154 -0.3966  1.1221 -0.1676
  149MOL   H20947865   2.245   5.699   3.323  0.8121  3.1849  0.6401
  149MOL   C21047866   2.388   5.798   3.187 -0.3928 -0.3770  0.6425
  149MOL   C21147867   2.457   5.774   3.050  0.6316 -0.2296  0.1996
  149MOL   C21247868   2.591   5.814   3.033 -0.5357 -0.5437 -0.2983
  149MOL   C21347869   2.652   5.810   2.907 -0.2128 -0.1297 -0.0746
  149MOL   C21447870   2.578   5.772   2.795 -0.7495  0.2672 -0.8311
  149MOL  Cl21547871   2.657   5.747   2.639 -0.0661  0.0225 -0.5225
  149MOL   C21647872   2.449   5.720   2.812 -0.3639 -0.3116 -0.2122
  149MOL   C21747873   2.391   5.731   2.938  0.0635  0.0630 -0.0086
  149MOL   C21847874   2.343   5.939   3.215  0.4381 -0.2898 -0.0628
  149MOL   H21947875   2.469   5.784   3.258  0.3694  0.4834 -0.0653
  149MOL   H22047876   2.644   5.851   3.119 -0.9440  0.6049 -0.5322
  149MOL   H22147877   2.750   5.851   2.886  1.1369 -3.2550 -0.1802
  149MOL   H22247878   2.394   5.690   2.724 -3.5167  1.7866  0.9321
  149MOL   H22347879   2.292   5.688   2.943  0.2802 -0.6784 -1.5044
  149MOL   H22447880   2.301   5.938   3.316 -0.9706 -1.3885 -0.6345
  149MOL   H22547881   2.428   6.007   3.209  0.0667  0.1630 -0.3000
  149MOL   C22647882   2.244   6.003   3.113  0.1670  0.9877  0.5742
  149MOL   C22747883   2.141   6.087   3.188  0.5197  0.0124 -0.6285
  149MOL   C22847884   2.003   6.072   3.159 -0.6310  0.4576 -0.1678
  149MOL   C22947885   1.911   6.159   3.211  0.4646 -0.2063 -0.1804
  149MOL   C23047886   1.949   6.253   3.307  0.4392  0.4966  0.0599
  149MOL  Cl23147887   1.822   6.340   3.389 -0.0601 -0.1443 -0.0754
  149MOL   C23247888   2.089   6.271   3.335  0.6619  1.3245 -0.9157
  149MOL   C23347889   2.187   6.186   3.276  0.2889  1.0260  0.9906
  149MOL   C23447890   2.309   6.087   3.000  0.4998  0.5438 -0.2279
  149MOL   H23547891   2.190   5.913   3.083  0.3225  0.9716  0.3433
  149MOL   H23647892   1.982   5.995   3.085  1.1323  0.2800 -0.5103
  149MOL   H23747893   1.806   6.157   3.187 -0.2049 -2.5273  2.6755
  149MOL   H23847894   2.120   6.349   3.404  3.1707 -0.7037  0.3224
  149MOL   H23947895   2.293   6.206   3.285  0.3434  1.0578  0.2873
  149MOL   H24047896   2.331   6.184   3.043 -0.3284  0.7229 -0.1939
  149MOL   H24147897   2.404   6.045   2.965  0.0016 -0.9222  0.1165
  149MOL   C24247898   2.217   6.116   2.879  0.4201 -0.2496  0.2949
  149MOL   C24347899   2.255   6.252   2.814  0.0127 -0.7674  0.9745
  149MOL   C24447900   2.166   6.344   2.753  0.6145 -0.6643  0.1096
  149MOL   C24547901   2.208   6.475   2.718 -0.6009 -0.7226  0.0994
  149MOL   C24647902   2.340   6.516   2.727  0.1532  0.4237  0.2469
  149MOL  Cl24747903   2.399   6.670   2.666  0.2126 -0.2554  0.1446
  149MOL   C24847904   2.434   6.423   2.774 -0.1542 -0.4642 -0.0362
  149MOL   C24947905   2.392   6.290   2.807  0.5100 -0.8499 -0.0516
  149MOL   C25047906   2.212   5.994   2.784 -0.6635 -0.2541  0.7724
  149MOL   H25147907   2.114   6.139   2.909 -0.6625 -0.9642 -2.6824
  149MOL   H25247908   2.062   6.320   2.739  0.4642 -0.7578  1.3135
  149MOL   H25347909   2.138   6.547   2.679 -3.0180 -2.4257  1.1139
  149MOL   H25447910   2.541   6.436   2.781 -0.2134  2.8725 -3.7479
  149MOL   H25547911   2.466   6.225   2.851  2.4369  0.1426 -1.8018
  149MOL   H25647912   2.315   5.963   2.766 -0.3892 -0.0058  1.8369
  149MOL   H25747913   2.156   5.910   2.826 -2.2154 -0.6126 -1.9043
  149MOL   C25847914   2.152   6.009   2.643  0.3014 -0.1485 -0.4823
  149MOL   C25947915   2.204   5.896   2.558 -0.3997 -0.2632 -0.1857
  149MOL   C26047916   2.154   5.763   2.570  0.3065 -0.2426 -0.4779
  149MOL   C26147917   2.211   5.666   2.489 -0.1653  0.2225 -0.1445
  149MOL   C26247918   2.310   5.695   2.398  0.0083  0.2203 -0.8742
  149MOL  Cl26347919   2.376   5.569   2.307 -0.1471  0.0777 -0.0239
  149MOL   C26447920   2.368   5.821   2.386  0.0510  0.9057 -0.5970
  149MOL   C26547921   2.310   5.922   2.466 -0.2950  0.0273 -0.1905
  149MOL   C26647922   1.999   6.002   2.647  0.4215  0.4400 -0.5113
  149MOL   H26747923   2.188   6.103   2.601  0.0997  0.9166  1.7073
  149MOL   H26847924   2.082   5.733   2.645 -1.4034  0.4658 -1.8211
  149MOL   H26947925   2.187   5.562   2.501 -0.4122  0.0073 -2.2159
  149MOL   H27047926   2.455   5.845   2.327  1.0018 -0.2852  0.2953
  149MOL   H27147927   2.349   6.023   2.458 -1.5630  0.6554  1.2671
  149MOL   H27247928   1.946   5.910   2.675 -2.8207  2.2915 -0.2899
  149MOL   H27347929   1.969   6.077   2.720  1.1860  1.4834 -1.2690
  149MOL   C27447930   1.918   6.037   2.517 -0.0627 -0.1072 -0.2091
  149MOL   C27547931   1.769   6.041   2.549 -0.3693 -0.5338  0.1412
  149MOL   C27647932   1.717   6.155   2.606  1.4058  0.5052 -0.5032
  149MOL   C27747933   1.578   6.155   2.636  0.1547  0.8375 -0.3374
  149MOL   C27847934   1.496   6.043   2.618  0.1286 -0.3698 -0.1218
  149MOL  Cl27947935   1.328   6.047   2.664 -0.2556 -0.3207 -0.3127
  149MOL   C28047936   1.551   5.923   2.575  0.4313 -0.4416  0.0628
  149MOL   C28147937   1.689   5.926   2.535  0.0292  0.0075 -0.1354
  149MOL   C28247938   1.973   6.169   2.464 -0.4622 -0.6535  0.4951
  149MOL   H28347939   1.933   5.956   2.446 -3.9916  0.3332 -1.6916
  149MOL   H28447940   1.769   6.246   2.632  1.2977  0.8258 -1.4040
  149MOL   H28547941   1.529   6.239   2.683  0.2307  0.7154 -0.0459
  149MOL   H28647942   1.494   5.832   2.564 -1.9172  0.6105  2.8449
  149MOL   H28747943   1.738   5.836   2.502 -2.7491 -2.4370  2.0607
  149MOL   H28847944   1.989   6.229   2.554 -0.9389 -0.9613  0.7874
  149MOL   H28947945   2.077   6.162   2.431 -0.3278  0.1151  0.7555
  149MOL   C29047946   1.882   6.250   2.358 -0.1712  0.1743 -0.2384
  149MOL   C29147947   1.946   6.386   2.326 -0.1542 -0.9554 -0.9931
  149MOL   C29247948   2.058   6.387   2.241 -0.3370  0.3114  0.0099
  149MOL   C29347949   2.130   6.501   2.211  0.4233  0.5296 -0.0004
  149MOL   C29447950   2.087   6.630   2.261  0.1644 -0.0944  0.3287
  149MOL  Cl29547951   2.153   6.777   2.198 -0.1735 -0.0304 -0.2559
  149MOL   C29647952   1.967   6.628   2.337 -0.3568  0.3543 -0.2073
  149MOL   C29747953   1.901   6.511   2.369  0.2405  0.8214 -0.1186
  149MOL   C29847954   1.862   6.164   2.237 -0.1932 -0.5848  0.5840
  149MOL   H29947955   1.784   6.271   2.401 -0.8340 -0.8060 -1.2273
  149MOL   H30047956   2.084   6.297   2.188 -0.6730 -0.6723  1.4884
  149MOL   H30147957   2.211   6.498   2.139 -0.1879 -1.3158 -0.6424
  149MOL   H30247958   1.918   6.719   2.366 -1.3824  0.3156 -1.7595
  149MOL   H30347959   1.818   6.523   2.437  0.3845  0.3523  0.1426
  149MOL   H30447960   1.957   6.126   2.199  0.3994 -1.2919  2.6847
  149MOL   H30547961   1.806   6.073   2.259 -0.6132 -0.2511  0.9061
  149MOL   C30647962   1.780   6.234   2.125  0.1563 -0.0497  0.1310
  149MOL   C30747963   1.779   6.163   1.989 -0.1618  0.1089 -0.8902
  149MOL   C30847964   1.837   6.036   1.969 -0.2317  0.1275  0.6875
  149MOL   C30947965   1.819   5.962   1.853 -0.8643 -0.0195  0.8493
  149MOL   C31047966   1.750   6.016   1.747  0.5340 -0.0791 -0.1994
  149MOL  Cl31147967   1.702   5.920   1.607 -0.2936 -0.0818  0.2330
  149MOL   C31247968   1.692   6.142   1.761  0.2024  0.3949  0.7169
  149MOL   C31347969   1.704   6.215   1.882  0.5818  0.3330  0.7191
  149MOL   C31447970   1.630   6.245   2.174  0.1402 -0.4555 -0.4143
  149MOL   H31547971   1.815   6.337   2.113  1.3528 -0.4722 -0.0685
  149MOL   H31647972   1.889   5.986   2.050  1.9464  3.9682  1.7786
  149MOL   H31747973   1.864   5.864   1.843  0.5832  0.7949 -0.7722
  149MOL   H31847974   1.625   6.188   1.690 -0.3367  0.2250  1.1119
  149MOL   H31947975   1.641   6.302   1.887  0.0456  0.0813 -1.2808
  149MOL   H32047976   1.576   6.307   2.101 -1.7180  0.0041  1.3004
  149MOL   H32147977   1.576   6.151   2.179  0.0614 -0.3694  0.4359
  149MOL   H32247978   1.626   6.306   2.264 -0.8038  0.2580 -0.9167
  150MOL     C147979   7.480   0.568   5.335  0.1902 -0.4883 -0.2227
  150MOL     C247980   7.330   0.554   5.329 -0.0408  0.4079 -0.0648
  150MOL     C347981   7.268   0.594   5.209  0.1867  0.1088 -0.3017
  150MOL     C447982   7.133   0.588   5.196  0.1729 -0.0830  0.2154
  150MOL     C547983   7.055   0.555   5.304 -0.2320  0.1293 -0.2977
  150MOL    Cl647984   6.884   0.561   5.277 -0.5081 -0.3487 -0.0973
  150MOL     C747985   7.107   0.531   5.432  0.4955 -1.2532  0.1278
  150MOL     C847986   7.250   0.527   5.444 -0.5005 -0.1759 -0.6177
  150MOL     C947987   7.546   0.464   5.426  0.2921  0.4675  0.1688
  150MOL    H1047988   7.498   0.663   5.385 -0.3959 -0.2384 -0.4995
  150MOL    H1147989   7.320   0.635   5.123 -0.1899  1.4306  0.0959
  150MOL    H1247990   7.087   0.622   5.104 -2.0351 -0.6923  1.0600
  150MOL    H1347991   7.045   0.535   5.521 -2.2895 -1.2089 -1.7776
  150MOL    H1447992   7.298   0.521   5.541  0.0002  0.1972 -0.8418
  150MOL    H1547993   7.495   0.461   5.522  0.8674 -1.9518  0.4306
  150MOL    H1647994   7.526   0.361   5.395 -1.0995  0.9707 -0.6282
  150MOL    H1747995   7.525   0.568   5.236 -1.5946 -1.0544 -1.0463
  150MOL    C1847996   7.703   0.457   5.428  0.7062  0.3591 -0.0997
  150MOL    C1947997   7.751   0.583   5.496  0.0078 -0.0103  0.1856
  150MOL    C2047998   7.832   0.670   5.428  0.1773  0.2114 -0.4334
  150MOL    C2147999   7.865   0.792   5.488 -0.5136 -0.1579 -0.0895
  150MOL    C2248000   7.818   0.833   5.616  0.3339  0.2216 -0.0141
  150MOL   Cl2348001   7.852   0.988   5.688  0.2428 -0.0761 -0.0028
  150MOL    C2448002   7.747   0.733   5.690  0.2766  0.5164  0.4402
  150MOL    C2548003   7.707   0.615   5.627 -0.3358  0.0976 -0.5511
  150MOL    C2648004   7.780   0.336   5.494  0.1559  0.4460 -1.0859
  150MOL    H2748005   7.738   0.468   5.325 -0.3999  3.3969 -0.2030
  150MOL    H2848006   7.869   0.647   5.329  0.8154 -2.2156  0.3521
  150MOL    H2948007   7.927   0.857   5.428 -1.3992  0.0226 -0.8263
  150MOL    H3048008   7.718   0.760   5.791  1.5225 -1.9484  1.4937
  150MOL    H3148009   7.656   0.540   5.685 -0.5463  1.1806  0.6718
  150MOL    H3248010   7.885   0.358   5.513  0.4756 -3.0918  1.9020
  150MOL    H3348011   7.731   0.320   5.591 -0.9020  0.7980 -1.5601
  150MOL    C3448012   7.777   0.205   5.410  0.0127  0.5840 -0.6718
  150MOL    C3548013   7.919   0.175   5.367  0.2674 -0.0437  0.4560
  150MOL    C3648014   8.017   0.112   5.447 -0.1255  0.1656  0.4173
  150MOL    C3748015   8.145   0.086   5.394 -0.1667 -0.4671  0.1708
  150MOL    C3848016   8.175   0.124   5.263  0.6679  0.8424  0.5159
  150MOL   Cl3948017   8.321   0.073   5.185 -0.5667  0.0174 -0.3432
  150MOL    C4048018   8.075   0.178   5.181  0.1590  1.1720  0.2977
  150MOL    C4148019   7.950   0.210   5.232 -0.1964 -0.2038 -0.4031
  150MOL    C4248020   7.728   0.086   5.500  1.3337  0.5617  0.4055
  150MOL    H4348021   7.710   0.207   5.324 -0.4745  3.0327 -0.2607
  150MOL    H4448022   7.988   0.082   5.547 -1.0321 -0.2960  0.0221
  150MOL    H4548023   8.218   0.032   5.454  0.7916  1.9691  1.2560
  150MOL    H4648024   8.094   0.204   5.078  0.5471 -2.5683 -0.6616
  150MOL    H4748025   7.875   0.259   5.171 -0.7678 -0.0783  0.3874
  150MOL    H4848026   7.760   8.436   5.453  1.1823  0.3803  0.6663
  150MOL    H4948027   7.766   0.091   5.602  0.2283 -1.3811  0.9447
  150MOL    C5048028   7.576   0.089   5.525 -0.7848 -0.5676 -1.0075
  150MOL    C5148029   7.514   0.065   5.391  0.1213  0.1374  0.1950
  150MOL    C5248030   7.538   8.394   5.310 -0.0115  0.1454  0.4083
  150MOL    C5348031   7.464   8.369   5.188 -0.1513  0.1572  0.0717
  150MOL    C5448032   7.371   0.025   5.143 -0.4025  0.4170 -0.2895
  150MOL   Cl5548033   7.300   0.001   4.994 -0.0058 -0.2591 -0.2459
  150MOL    C5648034   7.339   0.137   5.231 -0.0687 -0.0213 -0.4813
  150MOL    C5748035   7.407   0.150   5.353 -0.6029  0.0316 -0.1380
  150MOL    C5848036   7.523   8.433   5.624  0.1178 -0.2361  0.0349
  150MOL    H5948037   7.546   0.189   5.556  1.2236  0.3817 -2.0251
  150MOL    H6048038   7.618   8.328   5.341 -1.4896 -1.3977  1.0295
  150MOL    H6148039   7.482   8.285   5.123  0.5626  1.9410 -2.0907
  150MOL    H6248040   7.263   0.207   5.199 -0.5149 -0.6281 -0.7569
  150MOL    H6348041   7.368   0.221   5.424  1.7328  0.3888  0.8454
  150MOL    H6448042   7.418   8.412   5.604 -0.2449  0.4410  1.2080
  150MOL    H6548043   7.583   8.341   5.623 -0.9901 -0.9931  1.8426
  150MOL    C6648044   7.517   0.042   5.772  0.8968 -0.4607  0.3442
  150MOL    C6748045   7.432   0.172   5.792 -0.1698 -0.3424  0.8982
  150MOL    C6848046   7.295   0.165   5.777  0.7930  0.6201 -0.1819
  150MOL    C6948047   7.215   0.279   5.795 -0.1664 -0.4429 -0.1255
  150MOL    C7048048   7.277   0.405   5.817  0.6886 -0.8681 -0.2234
  150MOL   Cl7148049   7.187   0.548   5.815  0.1356 -0.0359  0.2853
  150MOL    C7248050   7.418   0.409   5.844 -0.3965 -0.2408  0.3007
  150MOL    C7348051   7.495   0.292   5.831  0.2502 -0.1596  0.2768
  150MOL    C7448052   7.486   8.370   5.867 -0.3664 -0.1534  0.4359
  150MOL    H7548053   7.620   0.074   5.792  1.2864 -2.5229  1.7961
  150MOL    H7648054   7.244   0.076   5.743 -1.6526  0.6178  3.2005
  150MOL    H7748055   7.110   0.263   5.779 -0.0049  1.9475 -4.4394
  150MOL    H7848056   7.471   0.502   5.858 -2.1259  0.9962 -1.1935
  150MOL    H7948057   7.601   0.296   5.848  0.4873 -1.0121 -0.9101
  150MOL    H8048058   7.395   8.323   5.830  1.1419 -4.1329  1.6437
  150MOL    H8148059   7.565   8.297   5.855  1.8561  2.2291  0.0492
  150MOL    C8248060   7.446   8.398   6.012 -0.2293  0.2398 -0.3036
  150MOL    C8348061   7.402   8.277   6.093 -0.1300  0.5164 -0.3357
  150MOL    C8448062   7.432   8.144   6.054  0.0100 -0.0809 -0.2117
  150MOL    C8548063   7.380   8.031   6.131 -0.2206  0.1372 -0.1739
  150MOL    C8648064   7.307   8.059   6.248 -0.4391  0.0396 -0.3716
  150MOL   Cl8748065   7.252   7.933   6.341 -0.4348  0.3100 -0.0750
  150MOL    C8848066   7.273   8.193   6.283 -0.3252  0.7971  0.6698
  150MOL    C8948067   7.323   8.301   6.209  0.4096  0.2018  1.1473
  150MOL    C9048068   7.542   0.046   6.095  0.6351  0.3725 -0.6520
  150MOL    H9148069   7.358   0.018   6.011  1.1300  2.2853  2.2149
  150MOL    H9248070   7.494   8.124   5.968  1.4015  0.0065  0.7542
  150MOL    H9348071   7.396   7.926   6.108  1.3917 -0.0001  1.4536
  150MOL    H9448072   7.226   8.209   6.379 -0.6364  0.6296  0.5460
  150MOL    H9548073   7.305   8.404   6.239 -3.8254 -0.2186  0.4319
  150MOL    H9648074   7.584   0.122   6.029 -1.9873  0.9055 -1.7616
  150MOL    H9748075   7.473   0.100   6.159 -0.3388 -0.7314 -0.7557
  150MOL    C9848076   7.652   8.425   6.182  0.2572  0.4118 -0.0479
  150MOL    C9948077   7.732   8.324   6.107 -0.4205  0.2821  0.6378
  150MOL   C10048078   7.812   8.366   6.001  0.3284  0.1485 -0.3965
  150MOL   C10148079   7.906   8.274   5.950  0.1633  0.5604  0.4033
  150MOL   C10248080   7.904   8.145   6.000  0.3949  0.1286  0.3736
  150MOL  Cl10348081   8.018   8.034   5.938 -0.2263  0.2626  0.0257
  150MOL   C10448082   7.813   8.098   6.093 -0.2241  0.6102  0.4488
  150MOL   C10548083   7.732   8.193   6.146 -0.3463 -0.1945  0.1817
  150MOL   C10648084   7.744   0.097   6.242 -0.2655 -0.8649 -0.7958
  150MOL   H10748085   7.593   8.377   6.260 -0.4247 -0.7129 -1.2179
  150MOL   H10848086   7.822   0.028   5.981  0.1102  0.1117 -0.7031
  150MOL   H10948087   7.983   8.313   5.885  0.6013 -1.1807 -0.1423
  150MOL   H11048088   7.805   8.000   6.137 -0.6938  0.9207  1.0563
  150MOL   H11148089   7.668   8.150   6.221  0.4636 -0.5799  0.6592
  150MOL   H11248090   7.826   0.038   6.284 -0.7175  0.2035  1.6849
  150MOL   H11348091   7.787   0.155   6.160  1.5152  1.8791  1.9372
  150MOL   C11448092   7.679   0.193   6.352  0.4859  0.3649 -0.7997
  150MOL   C11548093   7.620   0.110   6.467  0.5852  0.1070  0.2780
  150MOL   C11648094   7.487   0.131   6.510  0.1430 -0.2222 -0.2763
  150MOL   C11748095   7.434   0.048   6.611 -0.4407 -0.5824 -0.6566
  150MOL   C11848096   7.517   8.407   6.679  0.9563 -0.1015  0.7480
  150MOL  Cl11948097   7.451   8.325   6.820 -0.4069 -0.2838 -0.1103
  150MOL   C12048098   7.653   8.405   6.653  0.2383  0.2717 -0.4007
  150MOL   C12148099   7.703   0.032   6.543  0.3752 -0.0244  0.1689
  150MOL   C12248100   7.771   0.305   6.402  0.0687  0.5051  0.2804
  150MOL   H12348101   7.593   0.228   6.295 -1.4126 -3.6556 -0.6078
  150MOL   H12448102   7.425   0.198   6.452 -0.2557 -0.0281  0.3650
  150MOL   H12548103   7.328   0.054   6.630 -0.4360 -1.3227 -0.3916
  150MOL   H12648104   7.724   8.338   6.699 -2.7736 -1.5963  1.6674
  150MOL   H12748105   7.805   0.016   6.512 -0.2778  0.0475 -2.1632
  150MOL   H12848106   7.741   0.328   6.505  1.1768 -0.8542  0.9184
  150MOL   H12948107   7.873   0.269   6.392 -0.8362 -1.4532 -2.6774
  150MOL   C13048108   7.748   0.432   6.312  0.5121  0.6913  0.7260
  150MOL   C13148109   7.603   0.484   6.314  0.4188 -0.1813  0.2491
  150MOL   C13248110   7.531   0.480   6.435  0.1660  0.0290  0.0288
  150MOL   C13348111   7.393   0.516   6.436  0.1522  0.3518 -0.4738
  150MOL   C13448112   7.331   0.558   6.316 -0.4599  0.5493  0.3328
  150MOL  Cl13548113   7.163   0.592   6.328 -0.0429  0.1915 -0.2722
  150MOL   C13648114   7.404   0.570   6.199  0.2430 -0.2864 -0.1383
  150MOL   C13748115   7.539   0.530   6.195 -0.1808  0.1727  0.0627
  150MOL   C13848116   7.852   0.544   6.338  0.3710  0.1668 -0.6129
  150MOL   H13948117   7.758   0.400   6.208  1.1950  0.1714  0.9496
  150MOL   H14048118   7.575   0.455   6.531  0.1703  0.3916  0.1236
  150MOL   H14148119   7.346   0.504   6.532  0.9949 -1.6291 -0.2895
  150MOL   H14248120   7.353   0.598   6.108 -0.1260 -2.0685 -0.4905
  150MOL   H14348121   7.599   0.531   6.105  1.9164 -0.0997  1.4279
  150MOL   H14448122   7.834   0.640   6.288 -0.1325  0.4041  0.0175
  150MOL   H14548123   7.841   0.553   6.446 -3.5415  0.0108 -0.9009
  150MOL   C14648124   7.999   0.496   6.309 -1.4290 -0.1196  0.2156
  150MOL   C14748125   8.009   0.433   6.168 -0.1781  0.4060 -0.5478
  150MOL   C14848126   8.003   0.514   6.053  0.7328 -0.1094  0.5062
  150MOL   C14948127   7.998   0.465   5.924 -0.1992 -0.2647  0.2918
  150MOL   C15048128   8.018   0.327   5.902  0.1720  0.0478 -0.8925
  150MOL  Cl15148129   8.021   0.257   5.748 -0.0717 -0.2329  0.0318
  150MOL   C15248130   8.039   0.242   6.010 -0.0582  0.2989 -0.1314
  150MOL   C15348131   8.039   0.295   6.147  0.5540  0.0714  0.0875
  150MOL   C15448132   8.097   0.615   6.335 -0.4631  0.3562 -0.5198
  150MOL   H15548133   8.025   0.427   6.389  2.5507  0.7508 -0.2270
  150MOL   H15648134   7.989   0.620   6.067  1.1801  0.1630 -0.9292
  150MOL   H15748135   8.003   0.526   5.835  0.8944  0.3495  0.7719
  150MOL   H15848136   8.061   0.136   6.000  1.1227  0.5116  0.2046
  150MOL   H15948137   8.033   0.236   6.236 -0.1165 -0.0685 -0.0475
  150MOL   H16048138   8.076   0.704   6.275 -1.6072  0.4715  0.0442
  150MOL   H16148139   8.087   0.666   6.431 -2.8881 -0.6033 -0.2387
  150MOL   C16248140   8.247   0.574   6.328 -0.1409  0.5514 -0.5666
  150MOL   C16348141   8.333   0.696   6.287 -0.0909  0.3269 -0.6983
  150MOL   C16448142   8.394   0.700   6.164  0.1142  0.4313 -0.3777
  150MOL   C16548143   0.019   0.818   6.127  0.4442  0.0520  0.5172
  150MOL   C16648144   0.025   0.926   6.216 -0.4007  0.6329 -0.9037
  150MOL  Cl16748145   0.127   1.063   6.177 -0.0239  0.0941  0.3091
  150MOL   C16848146   8.404   0.916   6.341 -0.4801  0.1960  0.2176
  150MOL   C16948147   8.352   0.796   6.373  0.2441  0.5353  0.0188
  150MOL   C17048148   8.290   0.503   6.460  0.4488 -0.1907 -0.1819
  150MOL   H17148149   8.262   0.514   6.238 -1.5337  0.4550 -0.7494
  150MOL   H17248150   8.379   0.630   6.082  0.9534 -2.3433  1.7542
  150MOL   H17348151   0.057   0.826   6.026  2.6238 -0.7501  1.2466
  150MOL   H17448152   8.419   0.994   6.414 -1.9213  0.3718  0.3431
  150MOL   H17548153   8.317   0.784   6.474  0.8727  0.9593  0.2883
  150MOL   H17648154   8.347   0.576   6.518  1.5476 -0.0390 -1.4030
  150MOL   H17748155   8.207   0.492   6.529  0.5995  2.0708  0.4029
  150MOL   C17848156   8.377   0.383   6.445 -0.4287  0.2599  0.2236
  150MOL   C17948157   8.292   0.262   6.412 -0.1870 -0.4539 -0.5370
  150MOL   C18048158   8.213   0.204   6.513  0.2300 -0.0330  0.1241
  150MOL   C18148159   8.148   0.083   6.487  0.7745  0.4577 -0.0751
  150MOL   C18248160   8.148   0.025   6.355 -0.0924  0.2214 -0.5840
  150MOL  Cl18348161   8.055   8.332   6.316  0.3337 -0.5214  0.2938
  150MOL   C18448162   8.241   0.075   6.258 -0.6836 -0.2390  1.1399
  150MOL   C18548163   8.303   0.196   6.287  0.6151 -0.1579  0.7697
  150MOL   C18648164   0.060   0.408   6.365  0.6234 -0.3292  0.0051
  150MOL   H18748165   8.419   0.362   6.544  1.8699  0.6187 -0.6357
  150MOL   H18848166   8.204   0.239   6.615 -0.2083 -0.9806  0.4188
  150MOL   H18948167   8.089   0.043   6.568  1.8840  1.6641  1.3545
  150MOL   H19048168   8.235   0.030   6.161 -1.9248  2.9121 -0.3205
  150MOL   H19148169   8.368   0.233   6.209 -0.5940  1.3635  0.4775
  150MOL   H19248170   0.028   0.425   6.262  1.8769 -1.2334 -0.5469
  150MOL   H19348171   0.106   0.499   6.404 -2.7820  1.9496 -1.0625
  150MOL   C19448172   0.171   0.298   6.375 -0.8555 -0.5165 -0.2249
  150MOL   C19548173   0.254   0.288   6.245 -0.3302  0.5516 -0.1024
  150MOL   C19648174   0.289   0.160   6.202  0.6955 -0.0993 -0.3319
  150MOL   C19748175   0.360   0.152   6.080  0.6746 -0.3933  0.3476
  150MOL   C19848176   0.393   0.271   6.008 -0.1688  0.0409  0.1995
  150MOL  Cl19948177   0.485   0.263   5.863 -0.1037  0.1650 -0.5991
  150MOL   C20048178   0.355   0.398   6.051  0.2859  0.4737  0.4781
  150MOL   C20148179   0.280   0.408   6.176  0.8972  0.2370  0.8915
  150MOL   C20248180   0.278   0.326   6.486  0.7220  0.1193  0.1457
  150MOL   H20348181   0.130   0.198   6.390 -0.0308 -0.7888  0.2764
  150MOL   H20448182   0.270   0.064   6.247  1.7357 -1.7205 -3.2103
  150MOL   H20548183   0.397   0.064   6.030 -0.3912  0.1326 -1.3969
  150MOL   H20648184   0.371   0.486   5.991  1.9177 -0.2804 -0.2510
  150MOL   H20748185   0.247   0.505   6.212  1.7630  1.0488 -0.4776
  150MOL   H20848186   0.356   0.249   6.481 -1.7456 -2.4898  0.8782
  150MOL   H20948187   0.340   0.415   6.475  2.5375 -0.5889  3.8937
  150MOL   C21048188   0.223   0.318   6.631  0.1480 -0.9995  0.1421
  150MOL   C21148189   0.157   0.189   6.666  0.4085  0.0517 -0.0493
  150MOL   C21248190   0.049   0.187   6.759  0.1931 -0.8824  0.5004
  150MOL   C21348191   8.434   0.062   6.788  0.6348 -0.3074 -0.1663
  150MOL   C21448192   0.037   8.386   6.726 -0.3543  0.2065 -0.5462
  150MOL  Cl21548193   8.407   8.241   6.758  0.1515  0.0666  0.1731
  150MOL   C21648194   0.150   8.384   6.644  0.1092 -0.3555 -0.7217
  150MOL   C21748195   0.206   0.068   6.607  0.0320  0.1157 -0.0080
  150MOL   C21848196   0.328   0.343   6.745  0.1055  0.2146 -0.4494
  150MOL   H21948197   0.159   0.405   6.646  0.6295 -0.6998  0.4927
  150MOL   H22048198   0.016   0.281   6.802  1.0871  0.2528 -1.2417
  150MOL   H22148199   8.356   0.047   6.861  2.1290 -2.4054  1.0690
  150MOL   H22248200   0.182   8.287   6.610 -1.2476 -0.9915 -0.2381
  150MOL   H22348201   0.282   0.069   6.531  0.4158 -0.7898  0.3608
  150MOL   H22448202   0.272   0.346   6.839 -0.2354  0.2891 -0.6547
  150MOL   H22548203   0.407   0.268   6.752  0.1988  0.4540  1.3902
  150MOL   C22648204   0.391   0.487   6.749 -0.5250  0.2217  0.4794
  150MOL   C22748205   0.287   0.597   6.772 -0.1548 -0.0252 -0.0508
  150MOL   C22848206   0.226   0.628   6.897  0.2726 -0.3264  0.2728
  150MOL   C22948207   0.147   0.738   6.928 -1.1198 -0.3970 -0.2615
  150MOL   C23048208   0.120   0.824   6.823 -0.2754  0.3170 -0.6167
  150MOL  Cl23148209   0.025   0.965   6.844  0.0399 -0.0607 -0.0736
  150MOL   C23248210   0.167   0.792   6.690 -0.5155  0.2109  0.6616
  150MOL   C23348211   0.250   0.682   6.667 -0.2225 -0.8052 -0.0056
  150MOL   C23448212   0.516   0.493   6.843  0.3204  0.4631  0.3050
  150MOL   H23548213   0.440   0.490   6.651  0.1919 -1.5636  0.7702
  150MOL   H23648214   0.250   0.570   6.984  1.7947 -0.3925 -0.1701
  150MOL   H23748215   0.107   0.757   7.026  0.6746  0.9732  0.2316
  150MOL   H23848216   0.142   0.866   6.616  0.0466  1.5121  1.7417
  150MOL   H23948217   0.276   0.658   6.565  1.4854  1.9531 -0.2712
  150MOL   H24048218   0.491   0.469   6.946  1.0431  1.3082  0.6855
  150MOL   H24148219   0.573   0.403   6.821 -0.5440  0.2106 -0.9638
  150MOL   C24248220   0.599   0.623   6.828 -0.7750 -0.2292  0.6784
  150MOL   C24348221   0.559   0.726   6.929  0.2101  0.6019 -0.6594
  150MOL   C24448222   0.487   0.834   6.878  0.6162 -0.3399 -0.4887
  150MOL   C24548223   0.465   0.944   6.959  0.0934 -0.1422  0.7807
  150MOL   C24648224   0.512   0.946   7.090 -0.3722  0.4215 -0.1904
  150MOL  Cl24748225   0.471   1.075   7.201 -0.4815  0.3637 -0.0281
  150MOL   C24848226   0.583   0.838   7.147 -0.4982 -0.4082  0.0340
  150MOL   C24948227   0.607   0.725   7.059 -0.5040  0.2552  0.7431
  150MOL   C25048228   0.750   0.612   6.810 -0.0017 -0.0185  0.0781
  150MOL   H25148229   0.563   0.659   6.732 -0.3598 -2.9403 -0.5301
  150MOL   H25248230   0.458   0.841   6.775  1.9883  0.9752 -0.8119
  150MOL   H25348231   0.405   1.028   6.926 -3.1307 -2.3418  0.8591
  150MOL   H25448232   0.638   0.847   7.239  0.7544 -0.4618 -0.7064
  150MOL   H25548233   0.661   0.637   7.093 -1.8882 -0.9117 -0.0462
  150MOL   H25648234   0.784   0.589   6.911  1.4173 -0.8931 -0.5756
  150MOL   H25748235   0.768   0.525   6.746 -1.5644  0.1845 -0.6540
  150MOL   C25848236   0.823   0.742   6.767 -0.1790 -0.3411 -0.7225
  150MOL   C25948237   0.971   0.752   6.804  0.1808 -0.1188 -0.1853
  150MOL   C26048238   1.016   0.860   6.884  0.2859  0.0781 -0.5200
  150MOL   C26148239   1.151   0.876   6.923  0.1420  0.5660 -0.3515
  150MOL   C26248240   1.239   0.779   6.883 -0.2139  0.6251 -0.0722
  150MOL  Cl26348241   1.402   0.800   6.924 -0.1226 -0.3013  0.3583
  150MOL   C26448242   1.203   0.669   6.808 -0.3281 -0.2934 -0.1169
  150MOL   C26548243   1.069   0.654   6.770 -0.5122  0.1822 -0.0849
  150MOL   C26648244   0.795   0.776   6.626  0.1351 -0.1280 -0.1603
  150MOL   H26748245   0.772   0.818   6.826  0.5409  0.0878 -0.6411
  150MOL   H26848246   0.948   0.933   6.925  1.1604  3.0530 -4.0897
  150MOL   H26948247   1.181   0.954   6.990  0.6610 -0.0740  0.1733
  150MOL   H27048248   1.280   0.597   6.785 -1.4930 -1.5546 -0.1260
  150MOL   H27148249   1.036   0.569   6.712  1.0610  0.1777 -1.0089
  150MOL   H27248250   0.858   0.703   6.576 -1.7130 -1.1141 -1.1045
  150MOL   H27348251   0.691   0.766   6.596  0.0093  0.0892  0.1943
  150MOL   C27448252   0.834   0.919   6.592 -0.3680 -0.4222  0.1555
  150MOL   C27548253   0.864   0.938   6.444 -0.0113 -0.4070 -0.3276
  150MOL   C27648254   0.988   1.000   6.410  0.8955  0.2477  0.4081
  150MOL   C27748255   1.019   1.013   6.271  0.0635 -0.5902  0.4591
  150MOL   C27848256   0.927   0.975   6.176  1.2459  0.0458 -0.7678
  150MOL  Cl27948257   0.956   1.007   6.016 -0.5110  0.1522  0.1649
  150MOL   C28048258   0.803   0.913   6.215 -0.2400  0.0792  0.6918
  150MOL   C28148259   0.772   0.897   6.344  0.3879 -0.7134 -0.1875
  150MOL   C28248260   0.722   1.027   6.645  0.2417 -0.3922 -0.3831
  150MOL   H28348261   0.923   0.948   6.649 -1.9820  4.4126  0.4295
  150MOL   H28448262   1.049   1.040   6.489  0.1216  0.1658  1.0596
  150MOL   H28548263   1.104   1.067   6.232 -1.3280  2.1014  1.0323
  150MOL   H28648264   0.732   0.890   6.136  0.6941  1.5411 -0.6149
  150MOL   H28748265   0.678   0.850   6.371 -0.1044  0.4438  0.1249
  150MOL   H28848266   0.629   1.010   6.590 -0.0327  1.5026 -0.5375
  150MOL   H28948267   0.696   1.007   6.748  0.8203  0.0323 -0.1504
  150MOL   C29048268   0.760   1.180   6.626  0.5504 -0.3384 -0.4013
  150MOL   C29148269   0.633   1.266   6.663 -0.0488  0.4993 -0.3893
  150MOL   C29248270   0.567   1.246   6.786  0.1419  0.4915  0.0400
  150MOL   C29348271   0.459   1.324   6.821  0.2254 -0.3075  0.2659
  150MOL   C29448272   0.409   1.422   6.733  0.2215  0.2638  0.1850
  150MOL  Cl29548273   0.290   1.533   6.785  0.0441  0.0287 -0.0609
  150MOL   C29648274   0.464   1.437   6.603 -0.7524  0.1932  0.5693
  150MOL   C29748275   0.578   1.358   6.570 -0.4616  0.6246  0.3108
  150MOL   C29848276   0.881   1.237   6.708  0.5772 -0.4040  0.3425
  150MOL   H29948277   0.787   1.203   6.523 -0.4995 -0.3181 -0.6761
  150MOL   H30048278   0.614   1.181   6.857 -0.1123  0.6603  0.3626
  150MOL   H30148279   0.409   1.314   6.916  0.0558  0.8999  0.3112
  150MOL   H30248280   0.425   1.506   6.531 -0.3592 -0.0597  0.1069
  150MOL   H30348281   0.629   1.368   6.476  0.4757 -1.2393  0.5926
  150MOL   H30448282   0.857   1.243   6.814  1.3662 -1.2671  0.5778
  150MOL   H30548283   0.955   1.158   6.701  0.2587 -0.4939 -2.1877
  150MOL   C30648284   0.935   1.372   6.657  0.4392  0.2315  0.0683
  150MOL   C30748285   1.017   1.441   6.764 -0.1472  0.2641 -0.5352
  150MOL   C30848286   1.000   1.583   6.780 -0.1961 -0.5777 -0.3472
  150MOL   C30948287   1.089   1.648   6.864  0.1642 -0.4224  0.0839
  150MOL   C31048288   1.176   1.579   6.955 -0.4078  0.0017  0.2130
  150MOL  Cl31148289   1.259   1.666   7.072 -0.3792 -0.0617 -0.1562
  150MOL   C31248290   1.194   1.442   6.938  0.2830  0.1015  1.0569
  150MOL   C31348291   1.116   1.375   6.842 -0.6190 -0.2230 -0.5596
  150MOL   C31448292   1.013   1.377   6.525  0.5610 -0.7270  0.3481
  150MOL   H31548293   0.850   1.437   6.638  1.4253  2.6669  3.4594
  150MOL   H31648294   0.930   1.627   6.710  0.1353  1.6627  0.6895
  150MOL   H31748295   1.081   1.755   6.866  1.4601 -0.3190 -0.1520
  150MOL   H31848296   1.266   1.391   7.000  0.3957 -1.5600 -0.3874
  150MOL   H31948297   1.140   1.272   6.820 -2.4409 -0.6654 -0.5058
  150MOL   H32048298   0.958   1.319   6.451 -1.0642  1.0999  0.0837
  150MOL   H32148299   1.029   1.475   6.480 -2.4219 -0.8285 -1.0566
  150MOL   H32248300   1.110   1.328   6.534  0.7221 -0.8245 -1.7067
  151MOL     C148301   1.955   1.801   3.561  0.5424 -0.7575 -0.0266
  151MOL     C248302   1.855   1.822   3.681  0.2653  0.0682  0.4937
  151MOL     C348303   1.765   1.921   3.660  0.7084 -0.1935 -0.1722
  151MOL     C448304   1.670   1.952   3.763 -0.0648 -0.2559  0.2393
  151MOL     C548305   1.671   1.872   3.881 -0.4598  0.1304  0.0493
  151MOL    Cl648306   1.569   1.924   4.005  0.0666  0.0451  0.0182
  151MOL     C748307   1.769   1.774   3.904  0.7451  0.0942 -0.2296
  151MOL     C848308   1.863   1.747   3.803  0.2242 -0.4507 -0.0399
  151MOL     C948309   1.887   1.715   3.458  0.0926  0.8072  0.0631
  151MOL    H1048310   2.036   1.739   3.599  0.9830 -0.8000 -0.9971
  151MOL    H1148311   1.766   1.992   3.578 -1.3628 -0.0439 -0.1030
  151MOL    H1248312   1.605   2.036   3.744 -1.9432 -1.6014  0.5909
  151MOL    H1348313   1.780   1.723   3.998  1.1307 -0.7044 -0.6934
  151MOL    H1448314   1.936   1.668   3.810  1.0013  0.5006  3.3446
  151MOL    H1548315   1.849   1.630   3.514 -0.5527  0.2122 -1.2676
  151MOL    H1648316   1.807   1.776   3.416 -1.1415 -2.5905 -2.7461
  151MOL    H1748317   1.996   1.887   3.508 -1.5663  0.4949  0.3025
  151MOL    C1848318   1.976   1.655   3.348  0.5934  0.2033  0.3948
  151MOL    C1948319   2.093   1.576   3.402 -0.2675 -0.0573 -0.1237
  151MOL    C2048320   2.227   1.621   3.382 -0.2858  0.6968  0.1384
  151MOL    C2148321   2.335   1.554   3.443  0.3568  0.2909  0.3467
  151MOL    C2248322   2.311   1.438   3.521  0.3150  0.7068 -0.2924
  151MOL   Cl2348323   2.443   1.367   3.609 -0.1400  0.0907 -0.0434
  151MOL    C2448324   2.182   1.380   3.526  0.1724  0.1537 -0.0622
  151MOL    C2548325   2.071   1.462   3.480 -0.2729 -0.3759  0.6567
  151MOL    C2648326   1.899   1.573   3.240 -0.0542 -0.1740 -0.8948
  151MOL    H2748327   2.018   1.734   3.285  1.3334 -0.4299  0.0829
  151MOL    H2848328   2.245   1.702   3.313  1.0248 -1.5197 -2.2300
  151MOL    H2948329   2.435   1.592   3.430  0.7347 -0.1132  1.9475
  151MOL    H3048330   2.155   1.298   3.591 -0.0525  1.2630  1.2679
  151MOL    H3148331   1.969   1.429   3.494 -0.5723  0.4103  0.3846
  151MOL    H3248332   1.969   1.530   3.169 -0.0749 -1.9387  0.1334
  151MOL    H3348333   1.841   1.497   3.292  1.0079 -0.7026 -0.4771
  151MOL    C3448334   1.789   1.648   3.164  0.5826  0.6562  0.0660
  151MOL    C3548335   1.843   1.733   3.043  0.1865  0.3446 -0.4274
  151MOL    C3648336   1.908   1.664   2.941 -0.4634  0.1581 -0.3646
  151MOL    C3748337   1.971   1.728   2.833  0.1234 -0.5877  0.1751
  151MOL    C3848338   1.954   1.870   2.817 -0.5521  0.3339 -0.1000
  151MOL   Cl3948339   2.014   1.951   2.680 -0.4705 -0.3735 -0.1480
  151MOL    C4048340   1.877   1.936   2.917  0.3235  1.0701 -0.2285
  151MOL    C4148341   1.819   1.869   3.028 -0.9117 -0.3788 -0.6255
  151MOL    C4248342   1.660   1.572   3.112 -0.1756 -0.0612 -0.6654
  151MOL    H4348343   1.761   1.733   3.227  1.0776 -0.9351  2.5075
  151MOL    H4448344   1.920   1.557   2.945  0.8353  0.3244  0.4273
  151MOL    H4548345   2.022   1.682   2.750 -0.5717  0.6157 -0.9471
  151MOL    H4648346   1.859   2.043   2.912 -1.3884  1.0329  3.3942
  151MOL    H4748347   1.757   1.917   3.103 -1.5321 -0.4579 -1.0841
  151MOL    H4848348   1.626   1.614   3.017  3.3442  0.4970 -1.7729
  151MOL    H4948349   1.695   1.471   3.091  0.7572  0.0305  0.3947
  151MOL    C5048350   1.549   1.548   3.218  0.0822 -0.3753  0.1052
  151MOL    C5148351   1.516   1.673   3.295 -0.5125 -0.4232 -0.3599
  151MOL    C5248352   1.551   1.677   3.428 -0.4883 -0.4471 -0.1160
  151MOL    C5348353   1.506   1.781   3.515  0.1727 -0.0574 -0.0076
  151MOL    C5448354   1.451   1.895   3.458 -0.7793 -0.5853 -0.3555
  151MOL   Cl5548355   1.401   2.029   3.554  0.1682 -0.0689 -0.3926
  151MOL    C5648356   1.440   1.901   3.319 -1.2867  0.0041 -0.7033
  151MOL    C5748357   1.466   1.791   3.234 -0.5053 -0.3235  0.5145
  151MOL    C5848358   1.426   1.482   3.159  0.3951 -0.1914 -0.6205
  151MOL    H5948359   1.579   1.466   3.284  3.0622 -0.2279 -1.0008
  151MOL    H6048360   1.606   1.594   3.469  2.0687  1.3252  0.0976
  151MOL    H6148361   1.537   1.783   3.618  1.6427  2.3223 -0.4416
  151MOL    H6248362   1.400   1.985   3.265 -0.3917  1.0353  0.2356
  151MOL    H6348363   1.443   1.786   3.128 -1.7365 -0.5824  0.7820
  151MOL    H6448364   1.371   1.562   3.109 -1.4901  0.4587  2.3497
  151MOL    H6548365   1.460   1.403   3.093  1.2282 -2.0023  1.8805
  151MOL    C6648366   1.327   1.428   3.270  0.0867  0.1218 -0.7813
  151MOL    C6748367   1.188   1.489   3.242 -0.0143  0.4852  0.3916
  151MOL    C6848368   1.093   1.440   3.149  0.0412  0.8319 -0.0274
  151MOL    C6948369   0.966   1.496   3.146 -0.5706  0.4142  0.2633
  151MOL    C7048370   0.933   1.604   3.217  0.3892  0.1054  0.1309
  151MOL   Cl7148371   0.778   1.677   3.204 -0.2748 -0.0597  0.0777
  151MOL    C7248372   1.029   1.665   3.298  0.0897  0.0537 -0.1088
  151MOL    C7348373   1.156   1.606   3.318  0.2525  0.3511 -0.6425
  151MOL    C7448374   1.319   1.272   3.253  0.1919 -0.4596  0.1755
  151MOL    H7548375   1.363   1.457   3.369 -0.0456  0.2711 -0.7750
  151MOL    H7648376   1.113   1.366   3.074  0.6656  1.6604 -0.6932
  151MOL    H7748377   0.895   1.453   3.076  0.3410 -0.3951 -0.1659
  151MOL    H7848378   1.011   1.750   3.362  2.1234  0.1329  0.3984
  151MOL    H7948379   1.231   1.641   3.386  1.0599 -0.1590 -1.2651
  151MOL    H8048380   1.281   1.252   3.153 -0.4984  0.0126  0.3384
  151MOL    H8148381   1.418   1.226   3.252 -0.6920 -2.4065 -2.2336
  151MOL    C8248382   1.240   1.196   3.355 -0.4819 -0.5524  0.3406
  151MOL    C8348383   1.182   1.063   3.309 -0.0679  0.4830  0.8052
  151MOL    C8448384   1.275   0.962   3.267 -0.0709 -0.1707 -0.0011
  151MOL    C8548385   1.229   0.832   3.243 -0.3429  0.1815 -0.8493
  151MOL    C8648386   1.088   0.801   3.267 -0.4778 -0.6422 -0.9949
  151MOL   Cl8748387   1.015   0.644   3.261 -0.0583 -0.1584  0.0695
  151MOL    C8848388   0.997   0.903   3.308  0.4240  0.4303  0.7499
  151MOL    C8948389   1.046   1.038   3.332  0.0635  0.8350 -0.1023
  151MOL    C9048390   1.328   1.183   3.481  0.2745  0.3525 -0.2668
  151MOL    H9148391   1.154   1.259   3.378 -0.0799 -0.5317  1.8410
  151MOL    H9248392   1.380   0.982   3.255 -0.0570 -0.2146  0.0472
  151MOL    H9348393   1.284   0.742   3.218  1.0803  0.5794  0.7681
  151MOL    H9448394   0.893   0.878   3.318  0.6043 -0.4396  0.4941
  151MOL    H9548395   0.976   1.116   3.358 -1.5281 -0.7315  0.3797
  151MOL    H9648396   1.418   1.128   3.453 -0.0409  0.8375 -2.3525
  151MOL    H9748397   1.355   1.283   3.514 -0.5880 -0.3427  2.6331
  151MOL    C9848398   1.270   1.109   3.603  0.0526  0.6833 -0.0147
  151MOL    C9948399   1.380   1.067   3.696 -0.0753  0.1099 -0.6073
  151MOL   C10048400   1.454   1.156   3.772 -0.4354 -0.7084  0.2218
  151MOL   C10148401   1.573   1.104   3.833  0.4975 -0.0808  0.4173
  151MOL   C10248402   1.606   0.969   3.833  0.2384 -0.4299 -0.3909
  151MOL  Cl10348403   1.750   0.908   3.913  0.4421 -0.0108 -0.0504
  151MOL   C10448404   1.522   0.880   3.761  0.2291  1.2289  1.1066
  151MOL   C10548405   1.412   0.929   3.690 -0.4770  0.1019  0.2479
  151MOL   C10648406   1.170   1.189   3.684 -0.7464 -0.2452  0.1419
  151MOL   H10748407   1.226   1.019   3.561  0.3018  1.0542 -1.0939
  151MOL   H10848408   1.443   1.264   3.769 -0.4519 -0.7081  0.3023
  151MOL   H10948409   1.641   1.163   3.893  2.1929 -1.8046  0.2437
  151MOL   H11048410   1.560   0.779   3.756  1.4453  1.5586  3.1171
  151MOL   H11148411   1.362   0.859   3.625  0.3268  1.2000 -1.6213
  151MOL   H11248412   1.218   1.276   3.728 -0.1982 -1.1652  1.3676
  151MOL   H11348413   1.091   1.227   3.618 -0.4757 -0.3505 -0.2433
  151MOL   C11448414   1.095   1.120   3.806 -0.9424 -0.3651  0.1515
  151MOL   C11548415   1.041   1.229   3.894  0.5370 -0.6674  0.6776
  151MOL   C11648416   0.931   1.304   3.848 -0.1429  0.2385 -0.3741
  151MOL   C11748417   0.891   1.418   3.931 -0.6959 -0.0871 -0.3459
  151MOL   C11848418   0.930   1.428   4.065  0.3380  0.0843  0.3964
  151MOL  Cl11948419   0.873   1.557   4.165 -0.0548 -0.1971  0.1907
  151MOL   C12048420   1.022   1.337   4.114  0.0153  0.3193 -0.3226
  151MOL   C12148421   1.083   1.244   4.028  0.4585  0.1879 -1.4994
  151MOL   C12248422   0.983   1.020   3.761  0.2345  0.8390  0.0730
  151MOL   H12348423   1.174   1.079   3.869 -0.5869  1.6985  1.0778
  151MOL   H12448424   0.905   1.291   3.744  0.2274 -0.2668 -0.4025
  151MOL   H12548425   0.824   1.489   3.885  0.9947  0.9794 -1.1858
  151MOL   H12648426   1.056   1.355   4.214  0.7332 -1.5581 -0.2297
  151MOL   H12748427   1.158   1.176   4.067  0.8094  1.3202 -0.1610
  151MOL   H12848428   0.900   1.022   3.831 -0.4690 -2.0587 -0.6013
  151MOL   H12948429   0.943   1.052   3.665  1.4128  1.4149 -0.2346
  151MOL   C13048430   1.030   0.871   3.777  0.4539 -0.5230 -0.0913
  151MOL   C13148431   1.051   0.838   3.927  0.3520  0.1077 -0.6278
  151MOL   C13248432   1.179   0.795   3.975 -0.0377  0.2298 -0.5820
  151MOL   C13348433   1.201   0.761   4.110  0.5541  0.8010 -0.1425
  151MOL   C13448434   1.093   0.777   4.203 -0.2484 -0.3575 -0.3262
  151MOL  Cl13548435   1.136   0.763   4.369  0.4124  0.1540  0.4893
  151MOL   C13648436   0.966   0.817   4.165  0.5646  0.0258  0.9754
  151MOL   C13748437   0.946   0.844   4.026 -0.1732  0.2774 -0.3266
  151MOL   C13848438   0.928   0.774   3.723  0.1714  0.1293  0.0414
  151MOL   H13948439   1.127   0.852   3.731 -0.3142 -4.0323 -0.4258
  151MOL   H14048440   1.266   0.788   3.911  0.3073  1.0505 -0.2086
  151MOL   H14148441   1.301   0.733   4.140  0.1551  1.7484  2.1921
  151MOL   H14248442   0.884   0.813   4.236  0.2565 -1.4739  0.5498
  151MOL   H14348443   0.853   0.881   3.986 -0.7113 -1.4577 -0.7021
  151MOL   H14448444   0.839   0.774   3.786 -0.4609  0.3233 -0.8495
  151MOL   H14548445   0.906   0.801   3.620  1.7755  1.0610 -0.0658
  151MOL   C14648446   0.975   0.626   3.720  0.7195 -0.8500 -0.3568
  151MOL   C14748447   0.861   0.543   3.663 -0.3026 -1.0650 -0.5603
  151MOL   C14848448   0.802   0.442   3.736  1.1989  0.6194 -0.0132
  151MOL   C14948449   0.703   0.357   3.685 -0.1123 -0.3060  0.7040
  151MOL   C15048450   0.660   0.370   3.549 -0.1003  0.4661 -0.2285
  151MOL  Cl15148451   0.557   0.250   3.473 -0.4399  0.1458  0.3454
  151MOL   C15248452   0.709   0.478   3.476  0.1236 -0.2757 -0.0212
  151MOL   C15348453   0.807   0.564   3.531  0.3731 -0.1743 -0.1844
  151MOL   C15448454   1.107   0.614   3.647  0.0647  0.2660 -0.1602
  151MOL   H15548455   0.993   0.586   3.820  3.4712  0.4720 -0.2643
  151MOL   H15648456   0.823   0.417   3.838  0.0189  2.2919  0.6675
  151MOL   H15748457   0.660   0.278   3.744 -1.1927 -0.4647 -0.2850
  151MOL   H15848458   0.668   0.491   3.377 -1.2128 -0.3605  0.5036
  151MOL   H15948459   0.838   0.651   3.474 -0.7930  0.6708  0.4279
  151MOL   H16048460   1.092   0.673   3.557 -1.5694  0.7122  0.3885
  151MOL   H16148461   1.187   0.657   3.707 -1.6555  0.1318  2.3172
  151MOL   C16248462   1.152   0.468   3.601 -0.0299 -0.2549  0.1292
  151MOL   C16348463   1.260   0.492   3.496 -0.2869  0.4093 -0.3632
  151MOL   C16448464   1.254   0.434   3.367  0.1172 -0.2046  0.2216
  151MOL   C16548465   1.358   0.460   3.271 -0.0371 -0.2842  0.4267
  151MOL   C16648466   1.472   0.536   3.307 -0.3867  0.5848  0.4422
  151MOL  Cl16748467   1.600   0.560   3.197 -0.2048  0.0579  0.1126
  151MOL   C16848468   1.483   0.583   3.436  0.0735 -0.6365 -0.3281
  151MOL   C16948469   1.381   0.558   3.532 -0.0632  0.0333 -0.0612
  151MOL   C17048470   1.205   0.381   3.718  0.1743 -0.3338 -0.2490
  151MOL   H17148471   1.063   0.424   3.557  0.0911 -0.2007 -0.1680
  151MOL   H17248472   1.169   0.376   3.335 -0.2812  0.1537  0.6141
  151MOL   H17348473   1.352   0.422   3.170 -1.5064 -1.0444  0.7866
  151MOL   H17448474   1.568   0.636   3.477  0.0415 -1.1202  0.3790
  151MOL   H17548475   1.382   0.593   3.634 -0.0016 -0.0193 -0.0437
  151MOL   H17648476   1.291   0.436   3.756 -1.4103  2.7431 -0.9525
  151MOL   H17748477   1.135   0.384   3.801 -2.2622 -0.6153 -2.1997
  151MOL   C17848478   1.216   0.237   3.671  1.1915  0.2821  0.2432
  151MOL   C17948479   1.323   0.160   3.742 -0.1860 -0.2397 -0.0662
  151MOL   C18048480   1.446   0.124   3.676  0.6997 -0.0911 -0.1866
  151MOL   C18148481   1.554   0.078   3.755  0.4517 -0.1681 -0.4370
  151MOL   C18248482   1.528   0.032   3.888  0.1179 -0.7193  0.5215
  151MOL  Cl18348483   1.646   8.386   3.977  0.0119  0.0934 -0.1783
  151MOL   C18448484   1.403   0.052   3.951 -0.3207  0.0797 -0.6266
  151MOL   C18548485   1.306   0.124   3.877  0.3181 -0.5599 -0.0078
  151MOL   C18648486   1.077   0.158   3.672 -0.1595 -0.7358  0.3221
  151MOL   H18748487   1.251   0.235   3.568  3.2449  1.1551  0.8960
  151MOL   H18848488   1.458   0.133   3.570  0.6588  0.8926 -0.1124
  151MOL   H18948489   1.654   0.063   3.717  0.8847 -1.6047  1.2053
  151MOL   H19048490   1.388   0.029   4.056  3.3952  1.6106  0.3224
  151MOL   H19148491   1.216   0.155   3.928 -0.1281 -0.0253 -1.1109
  151MOL   H19248492   1.036   0.163   3.773 -1.1419  3.6502 -0.1705
  151MOL   H19348493   1.012   0.222   3.612 -1.4624 -2.3241 -0.0234
  151MOL   C19448494   1.080   0.011   3.621 -0.0621  0.1155 -0.1064
  151MOL   C19548495   0.952   8.384   3.626 -0.2482  0.0549 -0.2946
  151MOL   C19648496   0.939   8.261   3.697 -0.0687 -0.1531  0.6330
  151MOL   C19748497   0.822   8.186   3.692  0.1290 -0.2324  0.4031
  151MOL   C19848498   0.706   8.240   3.625 -0.2997  0.2414  0.8464
  151MOL  Cl19948499   0.558   8.158   3.617 -0.5763  0.5945 -0.2170
  151MOL   C20048500   0.712   8.367   3.575 -0.3141  0.7281  0.4057
  151MOL   C20148501   0.835   0.003   3.569 -0.1333 -0.0272  0.6179
  151MOL   C20248502   1.164   8.434   3.493  0.1885 -0.3494 -0.2676
  151MOL   H20348503   1.139   8.395   3.692  1.0311 -1.0143 -1.9347
  151MOL   H20448504   1.028   8.210   3.731  0.7587  0.4064 -0.6219
  151MOL   H20548505   0.829   8.085   3.730 -0.9614 -0.2767  0.4767
  151MOL   H20648506   0.619   8.402   3.531 -0.3425 -0.0957 -0.2006
  151MOL   H20748507   0.828   0.104   3.533 -3.0027 -0.1200  0.7909
  151MOL   H20848508   1.096   0.033   3.419  1.2107  0.7059 -0.6203
  151MOL   H20948509   1.252   0.054   3.495 -0.0546  0.2257 -4.0670
  151MOL   C21048510   1.205   8.292   3.429  0.0398 -0.1056  0.0985
  151MOL   C21148511   1.336   8.242   3.494  0.3789 -0.5989  1.5213
  151MOL   C21248512   1.456   8.270   3.433  0.5849 -0.3408 -0.0789
  151MOL   C21348513   1.573   8.230   3.494 -0.0619 -0.2832  0.6628
  151MOL   C21448514   1.572   8.168   3.619 -0.3052 -0.4647 -0.3063
  151MOL  Cl21548515   1.715   8.109   3.693 -0.0508 -0.4421  0.0798
  151MOL   C21648516   1.448   8.148   3.687 -0.7910 -0.4594 -0.2438
  151MOL   C21748517   1.330   8.183   3.621  0.8275  0.1115 -0.6932
  151MOL   C21848518   1.090   8.186   3.420  0.1203 -0.5581  0.1208
  151MOL   H21948519   1.229   8.322   3.327  0.9119 -1.4115 -0.0984
  151MOL   H22048520   1.456   8.320   3.337  0.0136  2.0149  1.1165
  151MOL   H22148521   1.672   8.231   3.450 -0.4965  0.9927 -0.3209
  151MOL   H22248522   1.445   8.092   3.779 -1.2479 -1.9489 -1.1575
  151MOL   H22348523   1.234   8.168   3.669  0.8788  1.0841 -0.2834
  151MOL   H22448524   1.076   8.158   3.524 -4.0724 -0.3072 -0.2827
  151MOL   H22548525   1.001   8.231   3.376 -0.1309 -0.2933  0.8809
  151MOL   C22648526   1.122   8.063   3.337  0.7138  0.1885  0.8119
  151MOL   C22748527   1.031   7.949   3.381  0.6504  0.3264 -0.3087
  151MOL   C22848528   0.891   7.956   3.396 -0.0974 -0.3543 -0.1255
  151MOL   C22948529   0.817   7.846   3.440 -0.3806 -0.3863  0.1844
  151MOL   C23048530   0.878   7.730   3.461  0.5407  0.0940  0.1789
  151MOL  Cl23148531   0.787   7.601   3.528 -0.2132  0.5131 -0.3799
  151MOL   C23248532   1.013   7.716   3.428  0.1975  0.0198 -0.5064
  151MOL   C23348533   1.092   7.826   3.398 -0.7343 -1.0415 -0.3920
  151MOL   C23448534   1.115   8.072   3.182  0.2883 -1.1326  0.5295
  151MOL   H23548535   1.221   8.037   3.372  0.8258 -0.5668 -0.0521
  151MOL   H23648536   0.835   8.045   3.372 -0.7424 -0.5887  0.4882
  151MOL   H23748537   0.710   7.850   3.458 -0.9158 -0.5417 -2.6827
  151MOL   H23848538   1.070   7.624   3.430  0.4885  0.2139  0.3803
  151MOL   H23948539   1.197   7.811   3.376  0.0904  1.8799  1.3403
  151MOL   H24048540   1.061   7.986   3.143  0.1024 -1.1726  0.8728
  151MOL   H24148541   1.043   8.153   3.171  0.1437 -1.5067 -1.4732
  151MOL   C24248542   1.242   8.118   3.115  0.4071 -0.6117 -0.0932
  151MOL   C24348543   1.342   7.998   3.090 -0.4477 -1.2547  0.2261
  151MOL   C24448544   1.466   8.007   3.153 -0.2393  0.0359  0.0863
  151MOL   C24548545   1.556   7.901   3.135 -0.0600 -0.3870 -0.8475
  151MOL   C24648546   1.530   7.789   3.053  0.4839  0.5405 -0.2282
  151MOL  Cl24748547   1.643   7.661   3.040  0.4098  0.0429  0.2908
  151MOL   C24848548   1.401   7.779   2.990 -0.6742  0.1895  0.2323
  151MOL   C24948549   1.311   7.891   3.008 -0.3062  0.8482  1.1147
  151MOL   C25048550   1.214   8.182   2.977 -0.5992 -0.0188  0.6913
  151MOL   H25148551   1.292   8.189   3.181 -1.1429  1.1255 -0.7320
  151MOL   H25248552   1.502   8.083   3.220 -2.2536  0.8888  0.2435
  151MOL   H25348553   1.653   7.910   3.182 -0.8732 -0.1005  0.8062
  151MOL   H25448554   1.391   7.693   2.926 -0.3384  2.0152 -2.3637
  151MOL   H25548555   1.218   7.890   2.952 -0.1682 -1.2810  0.8794
  151MOL   H25648556   1.300   8.172   2.912 -0.7357 -0.0399  0.5140
  151MOL   H25748557   1.130   8.138   2.923 -1.8882  0.6684  2.0812
  151MOL   C25848558   1.203   8.340   2.987  0.0120 -0.6836  0.9773
  151MOL   C25948559   1.328   8.407   3.050 -0.3511  0.3991  0.5635
  151MOL   C26048560   1.311   0.080   3.124 -0.3130 -0.0428 -0.2963
  151MOL   C26148561   1.422   0.123   3.201  0.3547 -0.3928 -0.5361
  151MOL   C26248562   1.548   0.072   3.184  0.8672 -0.4776  0.4566
  151MOL  Cl26348563   1.680   0.135   3.273 -0.0367  0.1737 -0.1018
  151MOL   C26448564   1.567   8.412   3.091  0.0867 -0.2447  1.0732
  151MOL   C26548565   1.456   8.352   3.030 -0.2805 -0.8181 -0.3292
  151MOL   C26648566   1.157   8.407   2.855 -0.3127 -0.0410 -0.2170
  151MOL   H26748567   1.122   8.357   3.057  1.3201 -1.1584  2.6300
  151MOL   H26848568   1.210   0.118   3.133 -0.1475 -0.0988  2.0863
  151MOL   H26948569   1.401   0.210   3.262  0.5809  0.6948 -1.9917
  151MOL   H27048570   1.662   8.361   3.081 -0.0810 -0.3988  0.1993
  151MOL   H27148571   1.472   8.271   2.961 -1.3441 -0.9212 -0.4569
  151MOL   H27248572   1.132   0.065   2.888 -0.5366 -0.2988  0.4205
  151MOL   H27348573   1.239   8.403   2.784  0.3020 -2.9876  0.5871
  151MOL   C27448574   1.027   8.355   2.788 -0.6293  0.1340 -0.3580
  151MOL   C27548575   0.915   8.322   2.891  0.0635 -0.4862 -0.0619
  151MOL   C27648576   0.864   8.425   2.978  0.0255 -0.1658 -0.4501
  151MOL   C27748577   0.758   8.390   3.073 -0.3242 -0.7580 -0.4714
  151MOL   C27848578   0.712   8.260   3.082  0.1717 -0.0233 -0.3626
  151MOL  Cl27948579   0.592   8.219   3.206 -0.1542 -0.1838  0.4379
  151MOL   C28048580   0.764   8.159   2.998  0.1267  0.3429 -0.1205
  151MOL   C28148581   0.864   8.187   2.905 -0.9086 -0.1632  0.1476
  151MOL   C28248582   1.000   0.004   2.671 -0.4119  0.2128 -0.1081
  151MOL   H28348583   1.056   8.255   2.755 -2.1839 -1.0885  1.8277
  151MOL   H28448584   0.883   0.084   2.947 -0.3410 -0.1827 -0.7200
  151MOL   H28548585   0.714   0.020   3.140 -0.8194 -1.2583 -0.2454
  151MOL   H28648586   0.729   8.058   3.014  1.5610 -0.1855 -0.2342
  151MOL   H28748587   0.871   8.105   2.834  2.0455  1.2616 -1.2838
  151MOL   H28848588   0.962   0.105   2.684 -2.5149 -0.6418  0.4552
  151MOL   H28948589   1.091   0.018   2.612 -0.5827 -3.1805 -1.2593
  151MOL   C29048590   0.891   8.385   2.581  0.1419  0.3579  0.5536
  151MOL   C29148591   0.776   0.040   2.539 -0.2876  0.4807  0.4413
  151MOL   C29248592   0.795   0.144   2.439  0.4155  0.4796 -0.7909
  151MOL   C29348593   0.688   0.238   2.425 -0.5380  0.2914 -0.1753
  151MOL   C29448594   0.568   0.232   2.500  0.1051  0.8911  0.5003
  151MOL  Cl29548595   0.439   0.343   2.470 -0.2167  0.4017  0.0012
  151MOL   C29648596   0.553   0.122   2.586 -0.0589  0.4593  0.4972
  151MOL   C29748597   0.660   0.039   2.615  0.3300  0.0092 -0.6300
  151MOL   C29848598   0.948   8.319   2.460 -0.1217  0.5160 -0.3457
  151MOL   H29948599   0.843   8.306   2.638  1.6631 -0.8498  0.2260
  151MOL   H30048600   0.891   0.166   2.396  0.5574  0.2125 -0.6134
  151MOL   H30148601   0.702   0.319   2.354  1.5513 -0.5887 -0.8006
  151MOL   H30248602   0.458   0.105   2.635  0.9734 -1.5047  1.8799
  151MOL   H30348603   0.647   8.413   2.697 -1.4743  0.3079 -0.6547
  151MOL   H30448604   0.996   8.398   2.402 -0.0071 -0.0650 -1.0524
  151MOL   H30548605   1.029   8.250   2.483 -0.7056  0.6673  2.3494
  151MOL   C30648606   0.848   8.250   2.361  0.9842 -0.1003  0.4370
  151MOL   C30748607   0.902   8.238   2.219  0.0971 -0.2296  0.1975
  151MOL   C30848608   1.027   8.175   2.205 -0.1532  0.2049  0.8953
  151MOL   C30948609   1.088   8.159   2.079 -0.7888 -0.0652  0.3814
  151MOL   C31048610   1.024   8.196   1.961 -0.7970  0.0991 -0.1752
  151MOL  Cl31148611   1.125   8.195   1.822  0.4954  0.2708 -0.0186
  151MOL   C31248612   0.898   8.265   1.970 -0.0270  0.1590 -0.1424
  151MOL   C31348613   0.841   8.287   2.096 -0.9788 -0.5988 -0.0542
  151MOL   C31448614   0.818   8.106   2.407  0.1284 -0.3181  0.4800
  151MOL   H31548615   0.754   8.305   2.365  0.6628 -0.7999  4.2556
  151MOL   H31648616   1.075   8.141   2.296  0.1948 -0.7418  0.3736
  151MOL   H31748617   1.185   8.112   2.071 -1.2581 -0.9613 -0.1129
  151MOL   H31848618   0.842   8.317   1.894 -0.4560  1.3006  0.9352
  151MOL   H31948619   0.742   8.330   2.095 -0.0442  1.6379 -0.9165
  151MOL   H32048620   0.917   8.063   2.422  0.3207  0.5508  1.7808
  151MOL   H32148621   0.767   8.108   2.503 -1.3989 -2.5964 -0.2523
  151MOL   H32248622   0.762   8.047   2.335 -0.5587  0.2255  0.5724
  152MOL     C148623   4.075   3.506   4.447  0.5579 -0.3348  0.3142
  152MOL     C248624   4.176   3.624   4.424 -0.3078  0.3365  0.3937
  152MOL     C348625   4.278   3.607   4.331  0.3438  0.0976 -0.2506
  152MOL     C448626   4.357   3.724   4.301 -0.4802 -0.3601  0.1219
  152MOL     C548627   4.351   3.841   4.382 -0.1770  0.4729 -0.1424
  152MOL    Cl648628   4.454   3.980   4.369 -0.5934 -0.6842 -0.0594
  152MOL     C748629   4.251   3.844   4.479 -0.7119  0.4675 -0.0952
  152MOL     C848630   4.156   3.743   4.491  0.9496  0.3219  0.3140
  152MOL     C948631   4.112   3.411   4.565  0.6674  1.3335  0.4681
  152MOL    H1048632   4.073   3.452   4.353  1.3487  0.3266 -0.0887
  152MOL    H1148633   4.294   3.521   4.267  0.0488 -2.0291  2.4294
  152MOL    H1248634   4.436   3.708   4.229 -0.6877  1.0540 -0.4255
  152MOL    H1348635   4.246   3.941   4.525  0.4354  1.6486 -2.3455
  152MOL    H1448636   4.074   3.759   4.560  0.2147 -0.1908 -0.4294
  152MOL    H1548637   4.074   3.469   4.649  1.1067  0.6545  1.1322
  152MOL    H1648638   4.042   3.328   4.562  0.3265  1.6348 -0.0645
  152MOL    H1748639   3.973   3.546   4.457  1.1654  1.7525 -1.4782
  152MOL    C1848640   4.258   3.374   4.590 -0.4243 -0.2482  0.5364
  152MOL    C1948641   4.272   3.315   4.732 -0.1617  0.3455  0.8153
  152MOL    C2048642   4.219   3.191   4.759 -0.0875  0.1322  0.0800
  152MOL    C2148643   4.216   3.147   4.896 -0.5744  0.3181  0.3497
  152MOL    C2248644   4.266   3.222   5.009 -0.5463 -0.0340  0.2150
  152MOL   Cl2348645   4.251   3.156   5.169 -0.6299  0.2588 -0.1142
  152MOL    C2448646   4.313   3.357   4.973 -0.6768 -0.2923 -0.8033
  152MOL    C2548647   4.324   3.394   4.838 -0.0673  0.4941  0.4654
  152MOL    C2648648   4.309   3.290   4.474 -0.3938  0.4017 -0.0544
  152MOL    H2748649   4.313   3.469   4.587  0.6808 -0.9033 -0.2042
  152MOL    H2848650   4.180   3.130   4.679 -0.0754 -4.1667  3.1924
  152MOL    H2948651   4.167   3.053   4.918 -1.6186  0.0833 -2.7687
  152MOL    H3048652   4.349   3.420   5.054  0.4143  0.9066 -2.2018
  152MOL    H3148653   4.354   3.495   4.811 -1.0423  0.1637 -1.9468
  152MOL    H3248654   4.252   3.198   4.481  0.5025 -0.0402  1.8292
  152MOL    H3348655   4.297   3.341   4.378  3.8543  1.1823 -0.2671
  152MOL    C3448656   4.463   3.266   4.469  0.0155 -0.5330 -0.3267
  152MOL    C3548657   4.488   3.156   4.367  0.6101 -0.4663  0.2117
  152MOL    C3648658   4.475   3.177   4.230 -0.6006  1.0133 -0.4628
  152MOL    C3748659   4.485   3.066   4.140 -0.5807  0.1612 -0.0336
  152MOL    C3848660   4.537   2.947   4.183 -0.0723 -0.1373 -0.5048
  152MOL   Cl3948661   4.581   2.812   4.080 -0.3377  0.1168 -0.4663
  152MOL    C4048662   4.564   2.923   4.322 -0.7188 -0.4152  0.4018
  152MOL    C4148663   4.529   3.025   4.413  0.0625  0.3446 -0.4230
  152MOL    C4248664   4.545   3.396   4.442 -0.0814  0.1921 -0.0386
  152MOL    H4348665   4.502   3.219   4.559 -0.7816 -0.5744 -0.0044
  152MOL    H4448666   4.445   3.275   4.195 -1.3265 -0.0093 -2.7454
  152MOL    H4548667   4.478   3.082   4.033 -1.9623 -0.2753 -0.0213
  152MOL    H4648668   4.589   2.826   4.362  1.1375  0.5458  1.6489
  152MOL    H4748669   4.544   3.010   4.519 -1.8375 -1.0447 -0.3328
  152MOL    H4848670   4.512   3.427   4.343 -2.6459  0.5500  0.9073
  152MOL    H4948671   4.512   3.479   4.504 -0.0546 -0.8753  1.4173
  152MOL    C5048672   4.694   3.382   4.433  0.3466  0.5762 -0.1511
  152MOL    C5148673   4.752   3.513   4.388 -0.6744 -0.0299 -0.2448
  152MOL    C5248674   4.741   3.628   4.474 -0.1300 -0.2592  0.1721
  152MOL    C5348675   4.798   3.748   4.428  0.2318 -0.2671  0.4062
  152MOL    C5448676   4.856   3.757   4.298 -0.3728  0.2586  0.2423
  152MOL   Cl5548677   4.909   3.912   4.243 -0.1347  0.3730  0.1357
  152MOL    C5648678   4.860   3.650   4.212  0.9775  0.1877 -0.6130
  152MOL    C5748679   4.815   3.526   4.265 -0.0442 -0.5038  0.6641
  152MOL    C5848680   4.750   3.318   4.563 -0.2235 -0.8094  0.0786
  152MOL    H5948681   4.712   3.305   4.358 -2.1883 -0.8528  0.6565
  152MOL    H6048682   4.696   3.626   4.572  0.4006 -2.6378  0.4066
  152MOL    H6148683   4.794   3.844   4.479 -0.2775  1.2171 -2.3551
  152MOL    H6248684   4.887   3.656   4.107  0.5179 -1.3823 -0.8326
  152MOL    H6348685   4.822   3.446   4.191  1.8144 -0.9649  1.3148
  152MOL    H6448686   4.706   3.370   4.648 -1.4166 -1.1102 -0.3373
  152MOL    H6548687   4.735   3.211   4.580 -1.0829 -0.4939  1.3543
  152MOL    C6648688   4.904   3.335   4.588 -0.2228 -0.1067 -0.2522
  152MOL    C6748689   4.947   3.273   4.724 -0.1361 -0.0501  0.4106
  152MOL    C6848690   4.965   3.367   4.827 -0.3334 -0.4480 -0.9922
  152MOL    C6948691   4.995   3.324   4.957  0.2328 -0.2625  0.5064
  152MOL    C7048692   5.030   3.187   4.981  0.0893  0.2309  0.5843
  152MOL   Cl7148693   5.073   3.137   5.139 -0.0561  0.1923  0.3803
  152MOL    C7248694   4.994   3.095   4.881  0.7950  0.9021 -0.1609
  152MOL    C7348695   4.953   3.136   4.752 -0.2231  0.3938  0.1226
  152MOL    C7448696   4.990   3.275   4.470 -0.5773 -0.3954  0.2050
  152MOL    H7548697   4.931   3.441   4.592 -0.9949  0.1168 -0.9334
  152MOL    H7648698   4.933   3.470   4.819  0.7026  0.0569  0.9709
  152MOL    H7748699   5.015   3.397   5.034  1.0775 -0.2202  0.2566
  152MOL    H7848700   5.002   2.992   4.912 -0.5362  1.0569  0.7431
  152MOL    H7948701   4.934   3.069   4.669 -0.6846  1.0214 -0.2818
  152MOL    H8048702   4.966   3.172   4.445 -0.5684 -0.7649  1.6770
  152MOL    H8148703   4.944   3.331   4.388 -0.7616  0.7561  1.0814
  152MOL    C8248704   5.143   3.293   4.466 -0.7290 -0.1397  0.0203
  152MOL    C8348705   5.181   3.310   4.320  0.2643 -0.9979  0.1664
  152MOL    C8448706   5.232   3.195   4.255  0.9127 -0.0912  0.4370
  152MOL    C8548707   5.261   3.201   4.111 -0.6271  0.2668 -0.1243
  152MOL    C8648708   5.239   3.327   4.046 -0.3846 -0.0775  0.2026
  152MOL   Cl8748709   5.267   3.334   3.876  0.0797  0.4758  0.1646
  152MOL    C8848710   5.183   3.436   4.113  0.2676  0.5263 -0.5063
  152MOL    C8948711   5.154   3.432   4.249  0.1326  0.7294 -0.7141
  152MOL    C9048712   5.199   3.403   4.553 -0.2398  0.1512  0.2163
  152MOL    H9148713   5.193   3.206   4.509  1.1994  1.6640  1.4885
  152MOL    H9248714   5.248   3.104   4.311 -1.7590 -1.5413 -1.0529
  152MOL    H9348715   5.298   3.119   4.053  0.4182 -0.8500  2.0464
  152MOL    H9448716   5.159   3.522   4.052 -1.9334 -0.9374 -1.7841
  152MOL    H9548717   5.106   3.510   4.305 -0.1526 -1.5375  2.3238
  152MOL    H9648718   5.159   3.501   4.526  0.5753 -0.6898 -4.4201
  152MOL    H9748719   5.178   3.382   4.658 -0.5930  3.3081  0.8280
  152MOL    C9848720   5.350   3.426   4.539 -0.0617  0.5872 -0.1121
  152MOL    C9948721   5.381   3.525   4.649  0.3307  0.0885 -0.6997
  152MOL   C10048722   5.378   3.486   4.783 -0.0956  0.5624 -0.1605
  152MOL   C10148723   5.394   3.582   4.885  0.4587  0.1678 -0.1803
  152MOL   C10248724   5.398   3.721   4.854  0.1384  0.0500  0.7556
  152MOL  Cl10348725   5.413   3.849   4.968 -0.3966  0.1996  0.1478
  152MOL   C10448726   5.398   3.760   4.718 -0.2833 -0.3121 -0.3535
  152MOL   C10548727   5.395   3.661   4.623  0.2673 -0.5764  0.0303
  152MOL   C10648728   5.446   3.306   4.544 -0.4419  0.5789 -0.3103
  152MOL   H10748729   5.378   3.470   4.444 -3.2879  0.6737 -1.0817
  152MOL   H10848730   5.364   3.381   4.806 -0.9922  0.6495 -0.2751
  152MOL   H10948731   5.407   3.557   4.990 -0.3317 -0.6873 -0.2825
  152MOL   H11048732   5.413   3.860   4.679  1.9779 -0.6707 -0.4566
  152MOL   H11148733   5.403   3.689   4.519  0.7446 -2.2384 -0.3921
  152MOL   H11248734   5.399   3.238   4.616  1.7224 -1.2950 -0.6195
  152MOL   H11348735   5.435   3.255   4.448 -0.8055 -1.0990  0.5868
  152MOL   C11448736   5.597   3.302   4.599  0.5981 -0.3564  0.4877
  152MOL   C11548737   5.675   3.167   4.585  0.3203 -0.0718  0.2068
  152MOL   C11648738   5.775   3.117   4.678  0.5903  0.3048 -0.0861
  152MOL   C11748739   5.827   2.991   4.661 -0.2106  0.0049 -0.1466
  152MOL   C11848740   5.788   2.910   4.554  0.1465 -0.3326 -0.3200
  152MOL  Cl11948741   5.844   2.745   4.552  0.1438 -0.8274 -0.0009
  152MOL   C12048742   5.695   2.955   4.467 -0.0360  0.4512 -0.2980
  152MOL   C12148743   5.645   3.084   4.476  0.2065 -0.3429  0.0746
  152MOL   C12248744   5.689   3.420   4.548  0.2082 -0.5574 -0.4341
  152MOL   H12348745   5.585   3.325   4.705  0.2014 -0.4403  0.4588
  152MOL   H12448746   5.793   3.168   4.771 -1.2387 -3.0988  2.2521
  152MOL   H12548747   5.895   2.945   4.732 -0.9741 -0.7970  0.0844
  152MOL   H12648748   5.660   2.901   4.381 -0.8384 -1.7749  1.3539
  152MOL   H12748749   5.578   3.120   4.399  1.0297 -1.2265 -1.0715
  152MOL   H12848750   5.620   3.498   4.517  0.5567 -0.8761 -2.0974
  152MOL   H12948751   5.732   3.446   4.644 -1.7906  0.2701  0.2488
  152MOL   C13048752   5.813   3.391   4.449  0.7660 -0.6909 -0.7906
  152MOL   C13148753   5.780   3.372   4.308  0.7523  0.3383 -0.2624
  152MOL   C13248754   5.667   3.434   4.249 -0.2787 -1.0517  0.2082
  152MOL   C13348755   5.626   3.410   4.123 -0.8280  0.7849  0.5401
  152MOL   C13448756   5.700   3.327   4.042  0.0868  0.1363  0.2664
  152MOL  Cl13548757   5.641   3.267   3.886  0.1789  0.0782 -0.5876
  152MOL   C13648758   5.826   3.274   4.084  0.4604 -0.3710  0.0201
  152MOL   C13748759   5.855   3.288   4.221 -0.3679 -0.7272  0.6404
  152MOL   C13848760   5.933   3.493   4.461 -0.2242 -0.5977 -0.3319
  152MOL   H13948761   5.850   3.295   4.485 -0.8954 -0.5306  1.4821
  152MOL   H14048762   5.610   3.508   4.303 -1.0528 -1.0065 -0.6595
  152MOL   H14148763   5.545   3.462   4.075 -1.2404 -0.2615  0.1001
  152MOL   H14248764   5.885   3.206   4.024 -0.3589 -1.2896  0.2531
  152MOL   H14348765   5.934   3.222   4.255  0.5296  0.5921  1.1534
  152MOL   H14448766   5.967   3.486   4.564 -0.1268  1.9490 -0.1555
  152MOL   H14548767   6.022   3.445   4.421  0.0474 -1.7859  1.6261
  152MOL   C14648768   5.923   3.639   4.404 -0.6569 -0.9440  0.3404
  152MOL   C14748769   5.879   3.737   4.508 -0.1040  0.1733  0.8410
  152MOL   C14848770   5.755   3.806   4.491  0.0986 -0.5769 -0.0728
  152MOL   C14948771   5.716   3.900   4.582  0.4556 -0.6285  0.0493
  152MOL   C15048772   5.790   3.924   4.697 -0.5444 -0.1840 -0.1157
  152MOL  Cl15148773   5.729   4.023   4.823 -0.2734  0.3759 -0.1336
  152MOL   C15248774   5.913   3.852   4.715  0.4573 -0.2782 -0.3809
  152MOL   C15348775   5.955   3.760   4.621 -0.2743  0.7105 -0.1269
  152MOL   C15448776   6.065   3.689   4.353  0.3033  0.1415  0.0109
  152MOL   H15548777   5.848   3.638   4.325 -2.0411  1.9151  1.5486
  152MOL   H15648778   5.695   3.789   4.403  0.2936 -0.8010 -0.1615
  152MOL   H15748779   5.626   3.958   4.568  0.7010 -0.2561  0.0129
  152MOL   H15848780   5.975   3.868   4.802  2.2824  1.2464 -1.9148
  152MOL   H15948781   6.054   3.723   4.639 -0.2634  0.1872 -1.1893
  152MOL   H16048782   6.149   3.668   4.420 -0.5127  2.2342  1.7323
  152MOL   H16148783   6.077   3.610   4.279  0.8963 -1.3631  1.6712
  152MOL   C16248784   6.087   3.838   4.289 -0.9691 -0.4929  0.8515
  152MOL   C16348785   6.094   3.949   4.396  0.6915  0.7286 -0.2744
  152MOL   C16448786   5.985   4.040   4.404 -0.1729  1.0674 -0.0034
  152MOL   C16548787   6.005   4.155   4.498 -0.1600 -0.1612  0.5607
  152MOL   C16648788   6.122   4.165   4.571 -0.8518 -0.7601 -0.2818
  152MOL  Cl16748789   6.145   4.302   4.671  0.2140  0.0012 -0.3779
  152MOL   C16848790   6.225   4.069   4.568  0.1735 -0.2458 -0.9408
  152MOL   C16948791   6.204   3.955   4.486 -1.0402 -0.3895 -0.5351
  152MOL   C17048792   6.205   3.845   4.194 -0.6380 -0.4603 -0.0012
  152MOL   H17148793   5.997   3.871   4.236  0.7443 -1.4199 -2.7672
  152MOL   H17248794   5.900   4.027   4.339 -0.7243 -1.7475  1.2181
  152MOL   H17348795   5.923   4.222   4.516  0.8580  0.9606  1.0495
  152MOL   H17448796   6.312   4.074   4.633 -0.8135  2.5169  0.2465
  152MOL   H17548797   6.283   3.881   4.490 -1.2915 -0.5970  0.6881
  152MOL   H17648798   6.213   3.948   4.157  1.6980 -0.7097 -0.2681
  152MOL   H17748799   6.297   3.828   4.250 -0.4235  0.1079 -0.1706
  152MOL   C17848800   6.199   3.761   4.066 -0.5455  0.0586 -0.2867
  152MOL   C17948801   6.101   3.822   3.968  0.4940 -1.0973 -0.1513
  152MOL   C18048802   6.136   3.936   3.890 -0.0587 -0.5687 -0.7253
  152MOL   C18148803   6.041   3.988   3.792  0.3004  0.0223 -0.4351
  152MOL   C18248804   5.916   3.925   3.770 -0.3714  0.7241  0.9156
  152MOL  Cl18348805   5.798   3.986   3.660  0.2828  0.0856  0.3135
  152MOL   C18448806   5.886   3.813   3.848  0.2551  0.0446  0.2047
  152MOL   C18548807   5.976   3.762   3.950  0.0012 -0.4330 -0.0714
  152MOL   C18648808   6.340   3.749   4.001 -0.6214 -0.2043 -0.1794
  152MOL   H18748809   6.167   3.658   4.083 -1.9671  0.6756  0.7874
  152MOL   H18848810   6.234   3.976   3.911 -0.4660  0.3847 -0.6088
  152MOL   H18948811   6.065   4.077   3.736  1.4479  0.9279  1.4322
  152MOL   H19048812   5.791   3.764   3.838  0.6166 -0.5531 -0.4222
  152MOL   H19148813   5.951   3.673   4.006 -0.5842  0.4736  1.1182
  152MOL   H19248814   6.316   3.728   3.898  1.5189 -0.4847 -0.6477
  152MOL   H19348815   6.373   3.852   4.018  0.4717 -0.9031  2.1995
  152MOL   C19448816   6.441   3.642   4.058 -0.4173 -0.2047 -0.7593
  152MOL   C19548817   6.377   3.505   4.060 -0.3315 -0.1653 -0.1497
  152MOL   C19648818   6.370   3.429   3.941  0.2069 -0.2641  0.0402
  152MOL   C19748819   6.310   3.302   3.942  0.3447 -1.0779 -0.0221
  152MOL   C19848820   6.241   3.257   4.053 -0.3226  0.6063 -0.0087
  152MOL  Cl19948821   6.157   3.107   4.043 -0.2453  0.0117 -0.1401
  152MOL   C20048822   6.232   3.337   4.170  0.3675 -0.8113  0.4115
  152MOL   C20148823   6.311   3.457   4.179  0.4176 -0.0054 -0.0688
  152MOL   C20248824   6.572   3.654   3.981 -0.4012  0.0778  0.4772
  152MOL   H20348825   6.460   3.670   4.162 -0.7995 -0.0707 -0.7261
  152MOL   H20448826   6.416   3.468   3.851 -1.7624  2.7805  0.2572
  152MOL   H20548827   6.324   3.245   3.851 -1.9452 -1.1769 -0.3311
  152MOL   H20648828   6.174   3.303   4.254  0.6372 -1.2640  0.4162
  152MOL   H20748829   6.303   3.514   4.270  2.0175  0.0944  0.0346
  152MOL   H20848830   6.635   3.575   4.022  0.0026 -0.6008 -1.4177
  152MOL   H20948831   6.548   3.633   3.877  2.7861 -1.5999  0.0307
  152MOL   C21048832   6.654   3.795   3.999 -0.0413 -0.9914 -0.0996
  152MOL   C21148833   6.681   3.824   4.147 -0.7352 -0.1429  0.2345
  152MOL   C21248834   6.756   3.732   4.219  0.2318  0.1086  0.5856
  152MOL   C21348835   6.782   3.764   4.353  0.2044  0.6842  0.1911
  152MOL   C21448836   6.729   3.880   4.415  0.0796  0.3455 -0.9080
  152MOL  Cl21548837   6.748   3.902   4.586 -0.3362  0.5768  0.2732
  152MOL   C21648838   6.641   3.962   4.347  0.8843  0.3791 -0.1217
  152MOL   C21748839   6.626   3.938   4.211  0.2043  0.4238  0.4519
  152MOL   C21848840   6.784   3.810   3.914 -0.3798  0.6467 -0.1412
  152MOL   H21948841   6.592   3.878   3.962  2.0360  0.3202 -0.7666
  152MOL   H22048842   6.790   3.645   4.165  1.6561  0.2187  1.2881
  152MOL   H22148843   6.824   3.690   4.420 -0.1216  0.4868  0.1796
  152MOL   H22248844   6.591   4.044   4.396  0.6489  0.2462 -0.1377
  152MOL   H22348845   6.566   4.003   4.148  1.3316  0.2103 -0.8681
  152MOL   H22448846   6.824   3.907   3.942  1.1508  0.7848 -2.6411
  152MOL   H22548847   6.856   3.737   3.952 -1.9038 -1.0415 -0.4196
  152MOL   C22648848   6.761   3.791   3.765 -0.3172  0.1194  0.2139
  152MOL   C22748849   6.671   3.908   3.716 -0.1388  0.6891  0.3085
  152MOL   C22848850   6.546   3.878   3.659 -0.8023 -0.3776  0.3106
  152MOL   C22948851   6.469   3.987   3.617 -0.1000  0.2729 -0.1561
  152MOL   C23048852   6.510   4.121   3.614 -0.3156 -0.6727  0.5930
  152MOL  Cl23148853   6.420   4.248   3.547 -0.0430  0.3114 -0.5686
  152MOL   C23248854   6.639   4.151   3.674  0.6001  1.0261  1.2145
  152MOL   C23348855   6.715   4.043   3.723 -0.6871  0.1355  1.2478
  152MOL   C23448856   6.886   3.788   3.675  0.2519 -0.0237 -0.1593
  152MOL   H23548857   6.706   3.701   3.739  1.5029 -0.3441 -2.1145
  152MOL   H23648858   6.505   3.779   3.649  0.2389 -0.7181 -0.6905
  152MOL   H23748859   6.371   3.962   3.580 -0.0538 -0.5482  0.2825
  152MOL   H23848860   6.678   4.251   3.685  1.1279  0.9428  0.2284
  152MOL   H23948861   6.806   4.062   3.778 -0.4433  2.7067  0.0310
  152MOL   H24048862   6.858   3.798   3.570 -0.7647  0.0183  0.1114
  152MOL   H24148863   6.941   3.881   3.690  3.2128 -1.6052 -0.7590
  152MOL   C24248864   6.984   3.667   3.706  0.1618 -0.6480  0.0152
  152MOL   C24348865   6.921   3.542   3.760 -0.0245 -0.1016 -0.3782
  152MOL   C24448866   6.954   3.491   3.888 -0.1678  0.2098  0.6591
  152MOL   C24548867   6.887   3.372   3.926  0.6180  0.0087 -0.0945
  152MOL   C24648868   6.786   3.308   3.845  0.9760 -0.1378  0.8546
  152MOL  Cl24748869   6.685   3.183   3.903  0.4601  0.2541 -0.2734
  152MOL   C24848870   6.761   3.363   3.719  0.3067  0.4560  0.1292
  152MOL   C24948871   6.837   3.470   3.674  0.8256  0.0361  0.4402
  152MOL   C25048872   7.074   3.635   3.587 -0.5830 -0.2327 -0.3226
  152MOL   H25148873   7.052   3.706   3.782  0.0745  0.6108 -0.5482
  152MOL   H25248874   7.023   3.537   3.957  1.1605  0.2121 -0.6290
  152MOL   H25348875   6.905   3.339   4.027  0.6882  1.5071  0.3976
  152MOL   H25448876   6.698   3.322   3.641  2.6363  0.0043 -1.5633
  152MOL   H25548877   6.817   3.507   3.575  2.1876 -0.2092  0.0765
  152MOL   H25648878   7.020   3.563   3.526  1.4116 -0.3916 -1.9540
  152MOL   H25748879   7.084   3.723   3.523 -0.9935  0.0567  0.0104
  152MOL   C25848880   7.212   3.581   3.632 -0.0198  0.4362  0.3891
  152MOL   C25948881   7.252   3.471   3.533  0.1386 -0.1217  0.8134
  152MOL   C26048882   7.306   3.502   3.407  0.4462  0.7739 -0.3524
  152MOL   C26148883   7.324   3.396   3.312 -0.0053 -0.2364  0.4473
  152MOL   C26248884   7.293   3.262   3.348  0.5983 -0.1526 -0.0067
  152MOL  Cl26348885   7.308   3.133   3.232  0.4974 -0.2061  0.4876
  152MOL   C26448886   7.248   3.229   3.477  0.3477 -0.7181  0.0587
  152MOL   C26548887   7.225   3.335   3.569 -0.2554  0.0031 -0.1995
  152MOL   C26648888   7.321   3.698   3.642  0.0475 -0.0595 -0.0177
  152MOL   H26748889   7.200   3.533   3.729 -0.4659  1.8874  1.0474
  152MOL   H26848890   7.348   3.593   3.366  2.5327  0.8090  1.7707
  152MOL   H26948891   7.366   3.413   3.214  0.9744 -1.1238  0.6916
  152MOL   H27048892   7.242   3.126   3.507  1.0826 -0.6838  0.3330
  152MOL   H27148893   7.185   3.314   3.667  1.0515 -1.2094  0.0907
  152MOL   H27248894   7.294   3.758   3.556 -1.6961  0.1499  0.6579
  152MOL   H27348895   7.292   3.761   3.726 -0.9603  1.1495 -1.2619
  152MOL   C27448896   7.469   3.662   3.680  0.3138  0.2444  0.3387
  152MOL   C27548897   7.569   3.764   3.624  0.1878 -0.1758  0.4466
  152MOL   C27648898   7.696   3.779   3.687 -0.2132  0.5718 -0.5272
  152MOL   C27748899   7.800   3.844   3.616 -0.0577  0.2867 -0.7236
  152MOL   C27848900   7.779   3.903   3.490  0.1158  0.5952 -0.1235
  152MOL  Cl27948901   7.902   3.999   3.417 -0.1772  0.5012  0.2474
  152MOL   C28048902   7.649   3.902   3.436  0.7214 -0.0897 -0.5802
  152MOL   C28148903   7.551   3.826   3.500  0.9117 -0.3880 -0.7349
  152MOL   C28248904   7.472   3.617   3.837 -0.0907  0.8729  1.4308
  152MOL   H28348905   7.492   3.570   3.625 -0.7810 -1.6335  2.9372
  152MOL   H28448906   7.717   3.737   3.784 -1.2462  1.6790  0.1972
  152MOL   H28548907   7.898   3.861   3.658  0.4800  2.6263 -2.8243
  152MOL   H28648908   7.629   3.952   3.342  0.9346 -0.7366 -0.9724
  152MOL   H28748909   7.464   3.813   3.438  0.4703  0.6408 -0.3407
  152MOL   H28848910   7.391   3.550   3.864  1.0989 -0.2144  2.4038
  152MOL   H28948911   7.564   3.558   3.833 -0.3092  0.4975  1.9226
  152MOL   C29048912   7.483   3.736   3.936 -0.0308 -0.5246 -0.5800
  152MOL   C29148913   7.353   3.813   3.980  0.3038 -0.1959  0.4063
  152MOL   C29248914   7.352   3.955   3.999  0.1183 -0.4800 -0.3360
  152MOL   C29348915   7.234   4.015   4.055  0.1398 -0.5844 -0.1936
  152MOL   C29448916   7.126   3.937   4.098 -0.1135  0.2326 -0.0005
  152MOL  Cl29548917   6.990   4.009   4.171  0.3374 -0.3080  0.3809
  152MOL   C29648918   7.130   3.797   4.080  0.1744 -0.5270  0.4536
  152MOL   C29748919   7.238   3.739   4.013  0.2134  0.8278 -0.7246
  152MOL   C29848920   7.564   3.688   4.056 -0.1281  0.8270  0.0679
  152MOL   H29948921   7.540   3.820   3.897 -2.0928  0.5964 -1.2653
  152MOL   H30048922   7.443   4.013   3.988  0.3298  0.0732  3.6468
  152MOL   H30148923   7.231   4.122   4.073 -0.6122 -0.5181 -0.7054
  152MOL   H30248924   7.047   3.744   4.124 -0.5170  0.2353  0.0835
  152MOL   H30348925   7.239   3.633   3.991 -1.1641  0.1147  2.3832
  152MOL   H30448926   7.506   3.613   4.109  0.9544 -1.5482 -1.9868
  152MOL   H30548927   7.652   3.639   4.014 -0.4934  0.8408 -0.7199
  152MOL   C30648928   7.618   3.787   4.161 -0.2401  0.7579  0.3272
  152MOL   C30748929   7.658   3.709   4.279 -0.4385 -0.9110 -0.5131
  152MOL   C30848930   7.600   3.741   4.400  0.6293 -0.0832 -0.1221
  152MOL   C30948931   7.644   3.681   4.514  0.1447 -0.0397 -0.3469
  152MOL   C31048932   7.737   3.573   4.515  0.0930 -0.3871 -1.0508
  152MOL  Cl31148933   7.775   3.492   4.665  0.3986 -0.2753  0.4239
  152MOL   C31248934   7.798   3.543   4.393 -0.3561 -0.4121  0.1987
  152MOL   C31348935   7.760   3.612   4.278 -0.0158 -0.7347 -0.0039
  152MOL   C31448936   7.732   3.874   4.108 -0.4732 -0.2788  0.5983
  152MOL   H31548937   7.543   3.863   4.187  1.5061  2.4870  0.4169
  152MOL   H31648938   7.530   3.822   4.415  0.7426 -0.3470  2.0020
  152MOL   H31748939   7.594   3.711   4.605 -2.7460 -1.1078 -1.5540
  152MOL   H31848940   7.872   3.465   4.388  1.9667  1.6344  1.7282
  152MOL   H31948941   7.808   3.580   4.186  0.9277  0.2152  0.1485
  152MOL   H32048942   7.706   3.929   4.017  1.5878 -0.4843 -0.1540
  152MOL   H32148943   7.768   3.936   4.191  2.2329 -0.2846 -0.5002
  152MOL   H32248944   7.816   3.812   4.076  0.1029  0.3469  0.8707
  153MOL     C148945   1.127   4.380   0.655  0.2372 -0.4003 -0.8323
  153MOL     C248946   1.152   4.230   0.657 -0.1499 -0.5711  0.6286
  153MOL     C348947   1.047   4.155   0.599 -0.1738  1.0628 -0.6923
  153MOL     C448948   1.065   4.016   0.592  0.3607  0.4123  0.3118
  153MOL     C548949   1.182   3.957   0.646 -0.3251  0.3066  0.1109
  153MOL    Cl648950   1.220   3.786   0.618 -0.0823  0.7904  0.1246
  153MOL     C748951   1.283   4.032   0.707 -0.4726 -0.4237 -0.1334
  153MOL     C848952   1.273   4.172   0.706  0.2771 -0.0568 -0.5532
  153MOL     C948953   1.202   4.454   0.543 -0.1149  0.2913 -0.3367
  153MOL    H1048954   1.160   4.433   0.745  0.1664 -0.3686 -0.8251
  153MOL    H1148955   0.956   4.202   0.563 -0.6537  0.2110 -0.6023
  153MOL    H1248956   0.995   3.954   0.538  0.5371  0.4770  0.0060
  153MOL    H1348957   1.365   3.981   0.754 -0.7377 -1.9622 -1.2974
  153MOL    H1448958   1.344   4.234   0.759 -0.0281 -0.4398  0.3193
  153MOL    H1548959   1.181   4.559   0.562  2.3619  0.1278  4.0406
  153MOL    H1648960   1.310   4.444   0.556  0.1894  1.3193 -1.9276
  153MOL    H1748961   1.020   4.398   0.661  0.4181  0.5012 -0.1620
  153MOL    C1848962   1.156   4.420   0.404 -0.3218 -0.0559  0.0923
  153MOL    C1948963   1.040   4.505   0.366  0.1459 -0.4675 -0.2403
  153MOL    C2048964   0.910   4.448   0.367  0.0725  0.0936  0.5553
  153MOL    C2148965   0.794   4.517   0.328  0.5704 -0.3027  0.1852
  153MOL    C2248966   0.804   4.653   0.289 -0.5499  0.6674 -0.0512
  153MOL   Cl2348967   0.663   4.731   0.233  0.0884 -0.2630  0.4349
  153MOL    C2448968   0.933   4.713   0.285  0.2875  0.3588 -0.6587
  153MOL    C2548969   1.047   4.639   0.328  0.1523 -0.6138  0.4272
  153MOL    C2648970   1.281   4.441   0.305  0.2447  0.2104  0.1890
  153MOL    H2748971   1.143   4.312   0.402  0.2451 -0.1930  2.3563
  153MOL    H2848972   0.908   4.349   0.409 -0.0125 -0.1608 -0.0432
  153MOL    H2948973   0.696   4.474   0.338 -0.3489  1.1676 -2.1311
  153MOL    H3048974   0.942   4.818   0.258 -4.2710  1.3785  1.4030
  153MOL    H3148975   1.140   4.693   0.329 -0.6564  0.8508 -0.6804
  153MOL    H3248976   1.236   4.452   0.206  2.3375  1.9752 -0.5904
  153MOL    H3348977   1.337   4.534   0.313  1.4388 -0.4127 -0.7195
  153MOL    C3448978   1.382   4.327   0.295  0.5325  0.0803 -0.3249
  153MOL    C3548979   1.318   4.202   0.242  0.5225 -0.2198  0.4729
  153MOL    C3648980   1.289   4.194   0.102 -0.1767 -0.0309  0.1099
  153MOL    C3748981   1.209   4.087   0.056  0.3430 -0.3465 -0.5471
  153MOL    C3848982   1.171   3.980   0.144 -0.0030 -0.3675  0.9879
  153MOL   Cl3948983   1.075   3.849   0.085  0.0180  0.3750 -0.0960
  153MOL    C4048984   1.219   3.980   0.275 -0.3486  0.1133 -0.6779
  153MOL    C4148985   1.285   4.094   0.328  0.0419 -0.1349 -0.2480
  153MOL    C4248986   1.508   4.358   0.218 -0.3754  0.8024  0.4284
  153MOL    H4348987   1.413   4.296   0.395  0.4297 -1.0511 -0.6295
  153MOL    H4448988   1.314   4.275   0.036 -1.0004  0.8770  0.8982
  153MOL    H4548989   1.170   4.099   8.399  0.5170 -0.4232 -0.6242
  153MOL    H4648990   1.191   3.891   0.331  0.6410  0.7052  0.8040
  153MOL    H4748991   1.302   4.104   0.434  0.0512  0.6398 -0.3181
  153MOL    H4848992   1.543   4.256   0.202 -1.6501  0.4480 -0.2187
  153MOL    H4948993   1.494   4.399   0.118 -1.2618 -3.5782 -1.3447
  153MOL    C5048994   1.606   4.445   0.306  0.1899 -0.1334  0.1636
  153MOL    C5148995   1.661   4.372   0.431  0.4130  0.2149 -0.0405
  153MOL    C5248996   1.725   4.246   0.411  0.8503  0.0496 -0.0335
  153MOL    C5348997   1.766   4.164   0.522  0.2819 -0.1308 -0.6111
  153MOL    C5448998   1.739   4.209   0.651 -0.4249 -0.1297  0.3983
  153MOL   Cl5548999   1.805   4.126   0.795  0.1329 -0.2488  0.0836
  153MOL    C5649000   1.668   4.332   0.671 -0.0212 -0.9078  0.1147
  153MOL    C5749001   1.627   4.413   0.561  0.5110 -0.1617 -0.7958
  153MOL    C5849002   1.719   4.502   0.218 -0.0117  0.1995 -0.9532
  153MOL    H5949003   1.554   4.532   0.345  0.6411  0.4183 -0.4418
  153MOL    H6049004   1.745   4.220   0.308 -2.3217  1.1053 -0.9492
  153MOL    H6149005   1.815   4.068   0.516 -2.7269 -1.7616 -0.2215
  153MOL    H6249006   1.657   4.360   0.775  1.9618 -1.6391  0.5649
  153MOL    H6349007   1.563   4.499   0.576  0.0690 -0.6548  0.1464
  153MOL    H6449008   1.787   4.533   0.298  1.4998  0.1162 -2.1736
  153MOL    H6549009   1.756   4.419   0.157  0.1262 -1.1073  0.8488
  153MOL    C6649010   1.670   4.614   0.129 -0.0544 -0.5221 -0.0585
  153MOL    C6749011   1.647   4.743   0.212  0.0548  0.0673 -0.2219
  153MOL    C6849012   1.743   4.782   0.307 -0.5238  0.0674  0.8090
  153MOL    C6949013   1.718   4.907   0.371 -0.7868  0.5662 -0.3235
  153MOL    C7049014   1.600   4.985   0.354  0.4691  0.3457 -0.0626
  153MOL   Cl7149015   1.584   5.127   0.442  0.1014  0.2019  0.0334
  153MOL    C7249016   1.504   4.935   0.266  0.9688 -0.3243  0.2155
  153MOL    C7349017   1.525   4.811   0.197  0.1842 -0.0903 -0.9885
  153MOL    C7449018   1.776   4.650   0.025 -0.5227 -0.1689  0.5162
  153MOL    H7549019   1.581   4.587   0.072  1.6202  0.4847 -3.3140
  153MOL    H7649020   1.839   4.734   0.324 -0.5680 -0.6771 -0.9203
  153MOL    H7749021   1.801   4.939   0.433 -1.5263  0.5238  0.6904
  153MOL    H7849022   1.409   4.984   0.252  1.1058  0.8754  3.1811
  153MOL    H7949023   1.444   4.774   0.136 -0.8216 -1.6680  1.2390
  153MOL    H8049024   1.738   4.745   8.431 -2.5292 -1.1971 -0.1606
  153MOL    H8149025   1.871   4.662   0.077 -0.2488 -3.4550  0.8889
  153MOL    C8249026   1.797   4.547   8.351  0.3468  0.0637 -0.5251
  153MOL    C8349027   1.824   4.619   8.218 -0.0464 -0.0022  0.5968
  153MOL    C8449028   1.765   4.571   8.097  0.4035  0.6370  0.0697
  153MOL    C8549029   1.805   4.633   7.976 -0.1362  0.1764  0.2564
  153MOL    C8649030   1.889   4.745   7.974  0.2457  0.7356  0.9525
  153MOL   Cl8749031   1.939   4.817   7.831  0.5328 -0.4929 -0.1405
  153MOL    C8849032   1.936   4.793   8.093  0.4322  0.2614  0.8371
  153MOL    C8949033   1.908   4.736   8.217 -0.5182 -0.0628 -0.3103
  153MOL    C9049034   1.910   4.441   8.370 -0.2435  0.2347 -0.2503
  153MOL    H9149035   1.701   4.497   8.335 -0.1871  0.7150  0.5951
  153MOL    H9249036   1.701   4.484   8.095  1.0586  0.1806 -1.2905
  153MOL    H9349037   1.775   4.583   7.885  1.4737 -0.1484 -0.1125
  153MOL    H9449038   1.993   4.884   8.085 -0.7971  0.9259 -0.4681
  153MOL    H9549039   1.956   4.773   8.307  1.1741  0.4648 -1.3981
  153MOL    H9649040   2.000   4.471   8.317  0.7340 -1.1533  0.6033
  153MOL    H9749041   1.944   4.436   0.031  0.7517 -3.3049 -0.6981
  153MOL    C9849042   1.887   4.296   8.322 -0.0601  0.8485  0.4517
  153MOL    C9949043   2.016   4.235   8.263  0.4814  0.0699  0.2024
  153MOL   C10049044   2.141   4.245   8.333  0.1451 -0.5534  0.1274
  153MOL   C10149045   2.256   4.178   8.291  0.0824 -0.6056  0.0987
  153MOL   C10249046   2.247   4.104   8.173  0.0108  0.0672 -0.3158
  153MOL  Cl10349047   2.376   4.013   8.116 -0.0668 -0.3873 -0.0872
  153MOL   C10449048   2.128   4.104   8.096 -0.3557 -0.4924 -0.4246
  153MOL   C10549049   2.014   4.170   8.141  0.0510 -0.2170 -0.2900
  153MOL   C10649050   1.824   4.208   8.439 -0.0516  0.1084 -0.9631
  153MOL   H10749051   1.815   4.296   8.241  0.4921  2.1954 -0.0515
  153MOL   H10849052   2.137   4.297   8.428 -2.4588 -2.3391  1.0614
  153MOL   H10949053   2.344   4.181   8.353 -0.3022 -1.1060  0.6854
  153MOL   H11049054   2.134   4.049   8.003  0.7044 -0.0371 -0.6348
  153MOL   H11149055   1.922   4.155   8.087  1.3061 -1.8657 -2.0185
  153MOL   H11249056   1.905   4.214   0.069 -1.5836 -3.5469  1.1926
  153MOL   H11349057   1.735   4.254   0.038 -0.3085 -0.8099 -0.4695
  153MOL   C11449058   1.808   4.053   8.412  0.5204  0.0024 -0.7533
  153MOL   C11549059   1.760   3.981   0.096 -0.0383 -0.0671 -0.3938
  153MOL   C11649060   1.618   3.983   0.137  0.3521 -0.0277  1.2516
  153MOL   C11749061   1.573   3.914   0.253 -0.0091  0.4541  0.4280
  153MOL   C11849062   1.671   3.852   0.332  0.4625  0.0692  0.3461
  153MOL  Cl11949063   1.631   3.756   0.467 -0.5107  0.4020 -0.1978
  153MOL   C12049064   1.808   3.858   0.299 -0.0179  0.0573  0.3495
  153MOL   C12149065   1.854   3.920   0.183 -0.3496 -0.0671 -0.2543
  153MOL   C12249066   1.713   4.013   8.287  0.0003  0.1917  0.1428
  153MOL   H12349067   1.909   4.022   8.385  0.3596 -1.8896  0.8023
  153MOL   H12449068   1.543   4.029   0.074  1.0537  1.1905  1.3048
  153MOL   H12549069   1.466   3.910   0.269 -0.3624  1.0681 -1.7232
  153MOL   H12649070   1.892   3.813   0.351 -0.6806 -2.5788 -0.7680
  153MOL   H12749071   1.961   3.917   0.169 -0.3089 -0.6629  0.1618
  153MOL   H12849072   1.613   4.050   8.307  0.7655  0.8525  2.9235
  153MOL   H12949073   1.738   4.085   8.208  1.5881 -1.3277 -0.7714
  153MOL   C13049074   1.702   3.860   8.256  0.4568  0.1096  0.6302
  153MOL   C13149075   1.563   3.825   8.204  0.0413  0.1371  0.4448
  153MOL   C13249076   1.543   3.809   8.065 -0.1617 -0.3479 -0.0075
  153MOL   C13349077   1.411   3.791   8.016  0.1992 -0.0174  0.4703
  153MOL   C13449078   1.305   3.789   8.102  0.4827 -0.0683 -0.5471
  153MOL  Cl13549079   1.158   3.726   8.034  0.0477 -0.1928 -0.0668
  153MOL   C13649080   1.324   3.813   8.243  0.8225 -0.0161  0.7837
  153MOL   C13749081   1.453   3.838   8.290 -0.0481  0.2730  0.4704
  153MOL   C13849082   1.831   3.813   8.190  0.0802 -0.0190  0.0690
  153MOL   H13949083   1.718   3.816   8.354  4.4063 -1.3903 -0.5727
  153MOL   H14049084   1.629   3.815   7.999  0.1481  1.2287  0.5326
  153MOL   H14149085   1.397   3.768   7.911 -1.6030  1.1742  0.4248
  153MOL   H14249086   1.240   3.816   8.311 -0.9854  1.6499 -1.4199
  153MOL   H14349087   1.463   3.843   8.398 -1.2736  1.5236  0.5425
  153MOL   H14449088   1.828   3.846   8.086  2.0059 -2.3313 -0.7698
  153MOL   H14549089   1.914   3.865   8.238  0.8985 -1.5907  0.4097
  153MOL   C14649090   1.855   3.659   8.208  0.1218  0.4820  0.2407
  153MOL   C14749091   1.813   3.581   8.082 -0.3988 -0.2669  0.5233
  153MOL   C14849092   1.688   3.510   8.083 -0.0300 -0.3105  0.1678
  153MOL   C14949093   1.637   3.455   7.963 -0.2329 -0.2948 -0.4032
  153MOL   C15049094   1.708   3.473   7.836  0.7234 -0.4650  0.8096
  153MOL  Cl15149095   1.645   3.424   7.685 -0.4522 -0.0791 -0.1521
  153MOL   C15249096   1.827   3.549   7.837  0.1805 -0.1679  0.3295
  153MOL   C15349097   1.882   3.595   7.960 -0.2674 -0.6301  0.1628
  153MOL   C15449098   2.006   3.639   8.251  0.1967 -0.0833  0.8744
  153MOL   H15549099   1.794   3.622   8.291  1.0834  1.0745  1.2350
  153MOL   H15649100   1.633   3.504   8.176  1.9359 -2.4848  1.2489
  153MOL   H15749101   1.546   3.397   7.964 -1.2971  1.3311 -1.2304
  153MOL   H15849102   1.883   3.576   7.749  0.3405 -0.5320  0.3175
  153MOL   H15949103   1.977   3.647   7.957 -0.4443 -0.3351 -0.4138
  153MOL   H16049104   2.080   3.682   8.184 -0.2800 -0.4032  0.1462
  153MOL   H16149105   2.026   3.697   8.342  0.0972  0.0333  0.8219
  153MOL   C16249106   2.055   3.505   8.298  0.3896  0.7473  0.0976
  153MOL   C16349107   1.966   3.460   8.416  0.7640  0.5681 -0.7005
  153MOL   C16449108   1.988   3.501   0.105  0.6731 -0.0594  0.0016
  153MOL   C16549109   1.910   3.452   0.210 -0.0862  0.2036  0.6428
  153MOL   C16649110   1.811   3.358   0.189  0.1918  0.3137 -0.7573
  153MOL  Cl16749111   1.716   3.289   0.317  0.1472  0.1933  0.0719
  153MOL   C16849112   1.790   3.303   0.064  0.3563 -0.0047  0.6806
  153MOL   C16949113   1.862   3.358   8.397 -0.0916 -0.1419  0.8782
  153MOL   C17049114   2.083   3.395   8.193  0.1730  0.0687  0.4191
  153MOL   H17149115   2.152   3.524   8.344 -0.8113  1.5160  2.4259
  153MOL   H17249116   2.063   3.577   0.121 -1.2621  2.0909 -0.7912
  153MOL   H17349117   1.914   3.500   0.307  1.3908 -1.4052  1.4058
  153MOL   H17449118   1.706   3.239   0.043 -0.6936  0.8508  2.2017
  153MOL   H17549119   1.846   3.316   8.299 -1.2224 -0.9500  1.3958
  153MOL   H17649120   1.988   3.374   8.144  0.6257 -0.3539 -0.2791
  153MOL   H17749121   2.146   3.441   8.118  0.5670 -0.3828  0.4739
  153MOL   C17849122   2.155   3.270   8.247  0.0911 -0.2678  0.1915
  153MOL   C17949123   2.167   3.150   8.145 -0.2026 -0.3240  1.1098
  153MOL   C18049124   2.157   3.170   8.005  0.0393  0.1912 -0.7333
  153MOL   C18149125   2.161   3.056   7.920  0.2261 -1.1693 -0.0990
  153MOL   C18249126   2.184   2.931   7.978 -0.6484  0.1777 -0.1719
  153MOL  Cl18349127   2.212   2.796   7.866 -0.2481  0.4625 -0.1478
  153MOL   C18449128   2.188   2.906   8.115 -0.3718  1.0418 -0.5103
  153MOL   C18549129   2.181   3.018   8.198 -0.3042  0.9544  0.2379
  153MOL   C18649130   2.302   3.304   8.299  0.5774  0.6867 -0.7950
  153MOL   H18749131   2.087   3.221   8.317  0.7866  0.6877  1.5504
  153MOL   H18849132   2.142   3.262   7.951  0.6270  0.0336 -1.1784
  153MOL   H18949133   2.137   3.063   7.814 -1.8306 -0.7320  0.3749
  153MOL   H19049134   2.175   2.805   8.149  1.6359  1.0215  0.2783
  153MOL   H19149135   2.161   2.995   8.301  0.6892  2.3471  0.7463
  153MOL   H19249136   2.371   3.230   8.259  1.3581  1.2964 -0.5663
  153MOL   H19349137   2.319   3.396   8.243  1.1375 -0.5206 -2.6463
  153MOL   C19449138   2.317   3.315   0.012  0.0043 -0.2110 -0.1638
  153MOL   C19549139   2.302   3.171   0.074  0.1409 -0.4387  0.2748
  153MOL   C19649140   2.411   3.082   0.078 -0.1096 -0.1987 -0.3240
  153MOL   C19749141   2.391   2.951   0.118 -0.5013  0.5831  0.5225
  153MOL   C19849142   2.262   2.902   0.152 -0.2024 -0.0660 -0.1901
  153MOL  Cl19949143   2.254   2.734   0.206 -0.3043  0.2874  0.0355
  153MOL   C20049144   2.153   2.994   0.153 -0.5479 -0.1660 -0.4921
  153MOL   C20149145   2.179   3.127   0.113  0.5028 -0.4791  0.3457
  153MOL   C20249146   2.445   3.391   0.052  0.1763  0.0245 -0.1965
  153MOL   H20349147   2.233   3.360   0.065  0.7920  0.5000  0.4990
  153MOL   H20449148   2.508   3.118   0.048 -0.6068  0.1733 -1.5600
  153MOL   H20549149   2.479   2.889   0.116 -0.1737  1.0766 -0.2606
  153MOL   H20649150   2.055   2.971   0.191 -1.1209  0.0049 -1.8490
  153MOL   H20749151   2.096   3.196   0.107  0.0851 -1.0396 -0.4257
  153MOL   H20849152   2.449   3.375   0.160 -3.8783 -1.8534 -0.1912
  153MOL   H20949153   2.533   3.340   0.013  0.0650 -0.4337  0.1460
  153MOL   C21049154   2.443   3.539   0.002  0.5599  1.1219 -0.0032
  153MOL   C21149155   2.374   3.635   0.100  0.0163  0.0733 -0.2001
  153MOL   C21249156   2.305   3.751   0.047 -0.2282 -0.2803 -0.3259
  153MOL   C21349157   2.244   3.849   0.129  0.0440  0.4376 -0.5128
  153MOL   C21449158   2.238   3.832   0.266 -0.0841  0.7870 -0.5018
  153MOL  Cl21549159   2.146   3.934   0.373 -0.0220 -0.2186 -0.0790
  153MOL   C21649160   2.306   3.721   0.320  0.8685 -0.3788 -0.1007
  153MOL   C21749161   2.373   3.628   0.238  0.2667  0.1622  0.4895
  153MOL   C21849162   2.577   3.603   8.391  0.0717 -0.3258  0.6354
  153MOL   H21949163   2.386   3.543   8.353  2.6523  0.6420 -1.3476
  153MOL   H22049164   2.305   3.775   8.385 -0.6934 -2.0810 -0.7472
  153MOL   H22149165   2.201   3.938   0.084 -0.4054 -0.8555 -2.6885
  153MOL   H22249166   2.303   3.704   0.427  0.0599 -1.5529 -0.2967
  153MOL   H22349167   2.419   3.545   0.291 -1.5035 -0.8262  0.5305
  153MOL   H22449168   2.559   3.711   8.385 -2.6550 -0.7154  0.9821
  153MOL   H22549169   2.654   3.582   0.021 -0.6277 -1.7289  0.9861
  153MOL   C22649170   2.623   3.544   8.251  0.0175 -0.4892  0.2023
  153MOL   C22749171   2.521   3.556   8.137  0.1791  0.1217 -0.0092
  153MOL   C22849172   2.511   3.452   8.043  0.6537  0.6679 -0.4420
  153MOL   C22949173   2.404   3.443   7.952 -0.4150 -0.1288 -0.9732
  153MOL   C23049174   2.318   3.551   7.939  0.2225  0.3524  0.1100
  153MOL  Cl23149175   2.187   3.551   7.821 -0.0269  0.2215  0.0170
  153MOL   C23249176   2.333   3.659   8.025  0.4060 -0.5399  0.2617
  153MOL   C23349177   2.437   3.663   8.116  0.9418  0.3915 -0.0435
  153MOL   C23449178   2.754   3.613   8.212  0.6244  0.6266  0.0534
  153MOL   H23549179   2.649   3.440   8.268  0.5329 -0.4010 -0.0471
  153MOL   H23649180   2.583   3.370   8.044 -1.2503 -1.0491 -1.0408
  153MOL   H23749181   2.407   3.369   7.874  0.2745 -0.6413 -0.4643
  153MOL   H23849182   2.272   3.749   8.027  0.1933 -0.6083 -1.8236
  153MOL   H23949183   2.447   3.748   8.182 -0.0760  1.1730 -0.8766
  153MOL   H24049184   2.773   3.609   8.105  2.5318  1.0927  0.3471
  153MOL   H24149185   2.738   3.718   8.238  2.2361  1.5782 -2.6127
  153MOL   C24249186   2.883   3.563   8.287  0.1597 -0.7122  0.1260
  153MOL   C24349187   2.952   3.434   8.237 -0.4611  0.0229 -0.2316
  153MOL   C24449188   2.993   3.420   8.104 -0.1434 -0.6414 -0.2000
  153MOL   C24549189   3.059   3.306   8.059  0.4120 -0.6740 -0.5336
  153MOL   C24649190   3.109   3.213   8.151  0.5141  1.8266 -0.0295
  153MOL  Cl24749191   3.218   3.081   8.103 -0.0951  0.1029 -0.1584
  153MOL   C24849192   3.072   3.225   8.290  0.0450 -0.1935  0.8206
  153MOL   C24949193   2.993   3.333   8.330  0.1651  0.2322  0.0552
  153MOL   C25049194   2.994   3.670   8.275 -0.2261 -0.2064 -0.0799
  153MOL   H25149195   2.865   3.540   8.392  0.6986  0.0046  0.3818
  153MOL   H25249196   2.955   3.494   8.035 -0.7728  1.1352  2.0125
  153MOL   H25349197   3.093   3.299   7.957  0.2986  0.7566 -0.6737
  153MOL   H25449198   3.112   3.156   8.362 -0.9236  0.5015  2.0322
  153MOL   H25549199   2.986   3.352   8.436 -3.3120  1.8930 -0.4049
  153MOL   H25649200   3.083   3.622   8.316 -0.7943  0.2987  1.8299
  153MOL   H25749201   3.024   3.689   8.173  0.5450  0.2412  0.2325
  153MOL   C25849202   2.979   3.801   8.360 -0.1598 -0.0049  0.0005
  153MOL   C25949203   2.991   3.760   0.062  1.0332 -0.0853  0.1198
  153MOL   C26049204   3.118   3.746   0.129 -0.9977  0.1605 -0.1437
  153MOL   C26149205   3.139   3.689   0.253 -0.0424 -0.2684  0.7082
  153MOL   C26249206   3.029   3.641   0.326  0.0924 -0.2757 -0.4332
  153MOL  Cl26349207   3.040   3.550   0.468 -0.1108 -0.1513  0.2984
  153MOL   C26449208   2.902   3.668   0.270  0.1540 -0.2579  0.1387
  153MOL   C26549209   2.885   3.724   0.144  0.6577  0.5577  0.3250
  153MOL   C26649210   3.074   3.928   8.326 -0.1859  0.2963  0.2852
  153MOL   H26749211   2.878   3.842   8.350  0.6505  1.9647 -0.4039
  153MOL   H26849212   3.207   3.763   0.070 -0.8303 -0.4342 -0.0644
  153MOL   H26949213   3.245   3.681   0.273 -0.1471  1.9113  2.3708
  153MOL   H27049214   2.810   3.646   0.323  0.3839 -0.7970  0.3111
  153MOL   H27149215   2.790   3.746   0.098  1.3066  2.5070 -0.1457
  153MOL   H27249216   3.175   3.906   8.362 -0.0795 -1.9274 -1.2652
  153MOL   H27349217   3.087   3.947   8.219 -0.1638  1.4758  0.4918
  153MOL   C27449218   3.027   4.063   8.386  0.0978  0.0026  0.1462
  153MOL   C27549219   3.147   4.131   0.020 -0.6114  0.2740  0.1467
  153MOL   C27649220   3.254   4.203   8.403  0.7124  0.6039  0.3621
  153MOL   C27749221   3.372   4.236   0.026 -0.0596 -0.4298  0.3255
  153MOL   C27849222   3.386   4.210   0.168 -0.1432 -0.1685 -0.1001
  153MOL  Cl27949223   3.522   4.260   0.261  0.3389 -0.0253  0.1175
  153MOL   C28049224   3.273   4.150   0.230 -0.4810  0.1390 -0.5716
  153MOL   C28149225   3.162   4.105   0.159 -0.4355  0.0011 -0.0431
  153MOL   C28249226   2.960   4.163   8.288 -0.2200 -0.1750  0.1352
  153MOL   H28349227   2.959   4.035   0.022 -0.4623 -0.1889 -0.4012
  153MOL   H28449228   3.250   4.228   8.298 -2.4979 -1.0015  0.0570
  153MOL   H28549229   3.454   4.261   8.404 -0.1804  0.3439  0.4669
  153MOL   H28649230   3.270   4.124   0.335  0.1911  1.4123 -0.2300
  153MOL   H28749231   3.086   4.049   0.212 -0.8598  0.2722 -0.3679
  153MOL   H28849232   2.981   4.249   8.352  0.4320 -1.6661  1.9991
  153MOL   H28949233   3.011   4.166   8.192  0.3882  0.7394  0.4866
  153MOL   C29049234   2.813   4.148   8.246 -0.2867 -0.1784 -0.0314
  153MOL   C29149235   2.727   4.151   8.369  0.5339 -0.0173  0.2512
  153MOL   C29249236   2.647   4.043   8.406  0.2751  0.1516 -0.4190
  153MOL   C29349237   2.560   4.044   0.076  0.2952 -0.3206 -0.0361
  153MOL   C29449238   2.544   4.166   0.144  0.0413  0.1128  0.3972
  153MOL  Cl29549239   2.427   4.195   0.264 -0.1458 -0.3623  0.0410
  153MOL   C29649240   2.625   4.272   0.116  0.2874  0.4106 -0.0770
  153MOL   C29749241   2.713   4.264   0.005  0.4611  0.0313 -0.2131
  153MOL   C29849242   2.759   4.239   8.140  0.4992  0.0363  0.1693
  153MOL   H29949243   2.806   4.043   8.216 -4.1410 -0.2472  0.7759
  153MOL   H30049244   2.645   3.961   8.336 -1.6944  1.1391 -1.5579
  153MOL   H30149245   2.502   3.958   0.108  0.9521 -0.3597  1.0550
  153MOL   H30249246   2.614   4.365   0.169  2.1783  1.0711 -0.7845
  153MOL   H30349247   2.771   4.351   8.419 -1.0920  1.0394 -0.4157
  153MOL   H30449248   2.650   4.236   8.145  0.4499 -0.3387 -1.0043
  153MOL   H30549249   2.792   4.341   8.162 -0.2075  0.9333 -2.7790
  153MOL   C30649250   2.796   4.209   7.996 -0.1739  0.2915  0.2660
  153MOL   C30749251   2.801   4.062   7.944 -0.1324  0.5849 -0.3096
  153MOL   C30849252   2.682   3.988   7.935  1.0117 -0.0928 -0.2415
  153MOL   C30949253   2.682   3.853   7.899  0.4206 -0.4237  0.0889
  153MOL   C31049254   2.802   3.791   7.867  0.3350  0.5952 -0.5808
  153MOL  Cl31149255   2.803   3.628   7.819 -0.1563 -0.3787 -0.0166
  153MOL   C31249256   2.926   3.854   7.885 -0.3170 -0.4367  0.1697
  153MOL   C31349257   2.924   3.990   7.924 -0.1411  0.5410 -0.2212
  153MOL   C31449258   2.723   4.281   7.887  0.0891  0.3735  0.8861
  153MOL   H31549259   2.899   4.241   7.985 -0.6563  1.7493 -0.1182
  153MOL   H31649260   2.590   4.036   7.964  1.9418  1.8195 -0.3589
  153MOL   H31749261   2.587   3.805   7.884 -0.0957  0.6033 -0.0052
  153MOL   H31849262   3.025   3.811   7.882  0.1723  0.5627  1.3655
  153MOL   H31949263   3.017   4.036   7.953  0.4730 -0.5073 -0.4801
  153MOL   H32049264   2.623   4.239   7.884  0.7434 -1.3167  2.0455
  153MOL   H32149265   2.722   4.385   7.921  2.6633  0.5895  0.3952
  153MOL   H32249266   2.755   4.279   7.783 -1.1611  1.3571  0.4721
  154MOL     C149267   0.439   1.690   7.945  0.8883  0.3279  0.5208
  154MOL     C249268   0.549   1.621   7.857 -0.5772  0.6212  0.1523
  154MOL     C349269   0.516   1.502   7.785  0.3854 -0.3953 -0.3601
  154MOL     C449270   0.611   1.427   7.714 -0.1356  0.0073  0.1251
  154MOL     C549271   0.742   1.477   7.707 -0.5958 -0.6923 -0.6945
  154MOL    Cl649272   0.868   1.399   7.622 -0.6781 -0.3893  0.0530
  154MOL     C749273   0.772   1.597   7.779 -0.5038  0.4052  0.1773
  154MOL     C849274   0.679   1.667   7.856 -0.0135 -0.0212 -0.0604
  154MOL     C949275   0.461   1.643   8.092  0.0288  0.1516  0.2353
  154MOL    H1049276   0.340   1.664   7.908  0.2989  0.6500  1.8508
  154MOL    H1149277   0.413   1.470   7.786  0.3508 -0.3723 -1.8041
  154MOL    H1249278   0.579   1.340   7.658  0.4698  0.7891 -1.4621
  154MOL    H1349279   0.875   1.628   7.778 -0.8392  1.6437  1.6336
  154MOL    H1449280   0.698   1.755   7.916  1.1903 -0.2648 -0.0590
  154MOL    H1549281   0.436   1.537   8.093 -0.4185  0.1948 -2.5544
  154MOL    H1649282   0.567   1.651   8.115  0.5808 -0.2538 -1.9850
  154MOL    H1749283   0.453   1.798   7.937  1.5132  0.2226  0.1476
  154MOL    C1849284   0.378   1.706   8.211 -0.3345  0.2266 -0.2717
  154MOL    C1949285   0.364   1.615   8.332 -0.4389  1.3353  0.5207
  154MOL    C2049286   0.235   1.564   8.355 -0.1191 -0.3787 -0.8376
  154MOL    C2149287   0.217   1.479   0.027 -0.1219  0.6040  0.6988
  154MOL    C2249288   0.326   1.443   0.108  0.2290  0.7802  0.9186
  154MOL   Cl2349289   0.309   1.326   0.238 -0.0995  0.1780 -0.1547
  154MOL    C2449290   0.457   1.483   0.074 -0.3002 -0.1994  0.4421
  154MOL    C2549291   0.473   1.574   8.411  0.1950  0.4966 -0.4883
  154MOL    C2649292   0.421   1.853   8.252 -0.1613 -0.0154 -0.2265
  154MOL    H2749293   0.276   1.712   8.175 -0.6740 -1.9312  0.2482
  154MOL    H2849294   0.146   1.577   8.295 -2.1066 -0.1748  2.0442
  154MOL    H2949295   0.122   1.437   0.055 -0.2475  0.2940 -0.1697
  154MOL    H3049296   0.531   1.457   0.148 -2.5284 -2.2193  1.9908
  154MOL    H3149297   0.572   1.610   8.386  0.2939  0.4818 -0.1134
  154MOL    H3249298   0.382   1.872   8.352  0.0229 -2.5949  0.3903
  154MOL    H3349299   0.529   1.861   8.265 -0.3059 -1.1123  1.8058
  154MOL    C3449300   0.370   1.972   8.180  0.3129 -0.3011  0.2765
  154MOL    C3549301   0.219   1.968   8.152 -0.4099  0.6309 -0.3833
  154MOL    C3649302   0.121   1.995   8.250 -0.4848  0.4607  0.4600
  154MOL    C3749303   8.428   2.002   8.214  0.5615  0.3222 -0.2403
  154MOL    C3849304   8.383   1.977   8.088  0.0251  0.1858 -0.6423
  154MOL   Cl3949305   8.219   1.996   8.039  0.0965 -0.1287  0.1396
  154MOL    C4049306   0.034   1.936   7.994 -0.3144 -0.5684  0.7196
  154MOL    C4149307   0.172   1.939   8.020  0.7989 -0.1907  0.7150
  154MOL    C4249308   0.422   2.112   8.236 -0.1848 -0.0564 -0.0965
  154MOL    H4349309   0.414   1.961   8.081 -1.2301 -3.6799 -0.0900
  154MOL    H4449310   0.150   2.009   8.354 -0.9414  1.8383  0.4169
  154MOL    H4549311   8.360   2.043   8.287 -1.5116  0.6455 -2.2881
  154MOL    H4649312   8.430   1.914   7.899  0.2035 -1.4235  0.6606
  154MOL    H4749313   0.228   1.907   7.934  1.4899 -1.9797  1.7913
  154MOL    H4849314   0.364   2.195   8.197  0.4766  0.3656 -0.1813
  154MOL    H4949315   0.399   2.108   8.342 -2.0830 -2.2760 -0.5413
  154MOL    C5049316   0.565   2.159   8.205 -0.2801  0.2904 -0.3911
  154MOL    C5149317   0.595   2.130   8.052 -0.1850  0.7005 -0.0314
  154MOL    C5249318   0.693   2.035   8.026 -0.4817 -0.1269 -0.4440
  154MOL    C5349319   0.727   2.006   7.893 -0.3636 -1.2204  0.4191
  154MOL    C5449320   0.661   2.067   7.786 -0.2797  0.2061 -0.1061
  154MOL   Cl5549321   0.713   2.036   7.626 -0.4373 -0.0698 -0.0568
  154MOL    C5649322   0.557   2.155   7.813 -0.2648 -0.1064 -0.2840
  154MOL    C5749323   0.524   2.188   7.949 -0.1190 -0.5139  0.8994
  154MOL    C5849324   0.585   2.306   8.243  0.5414 -1.0836  0.0761
  154MOL    H5949325   0.634   2.105   8.270 -0.6317 -0.4199 -0.6032
  154MOL    H6049326   0.738   1.977   8.106  0.8374  0.7989 -0.4999
  154MOL    H6149327   0.808   1.937   7.873 -0.1245 -0.9303  0.3742
  154MOL    H6249328   0.506   2.203   7.732  0.5248  0.9581 -0.1674
  154MOL    H6349329   0.437   2.250   7.964 -1.0273 -1.4753 -0.3517
  154MOL    H6449330   0.506   2.362   8.192  0.0887 -1.8807 -0.1058
  154MOL    H6549331   0.569   2.325   8.349 -0.2470  1.5038 -0.4562
  154MOL    C6649332   0.717   2.370   8.197 -0.9493 -0.1183 -0.2228
  154MOL    C6749333   0.685   2.498   8.112  0.0698  0.2722 -0.2759
  154MOL    C6849334   0.701   2.498   7.968  0.5040  1.2532  0.5280
  154MOL    C6949335   0.671   2.614   7.892 -0.0184  0.3299 -0.3416
  154MOL    C7049336   0.612   2.725   7.953  0.8033 -0.4999  0.2382
  154MOL   Cl7149337   0.556   2.855   7.859 -0.0444 -0.0766  0.4806
  154MOL    C7249338   0.606   2.730   8.092 -0.5870 -0.3329 -0.1907
  154MOL    C7349339   0.653   2.622   8.171  0.8740  0.2846  0.0037
  154MOL    C7449340   0.812   2.398   8.312  0.6659  0.3673  0.2827
  154MOL    H7549341   0.758   2.301   8.124 -2.1041 -1.4600  0.3625
  154MOL    H7649342   0.742   2.411   7.919 -1.9840  0.3477 -0.0268
  154MOL    H7749343   0.694   2.607   7.787  1.0181  1.2018 -0.1742
  154MOL    H7849344   0.568   2.815   8.146 -3.3104 -0.7927 -1.2973
  154MOL    H7949345   0.657   2.626   8.278  0.4690  0.0742  0.0281
  154MOL    H8049346   0.897   2.459   8.280  0.6566 -0.4516 -1.3604
  154MOL    H8149347   0.764   2.455   8.391  0.9651 -0.8468  1.3699
  154MOL    C8249348   0.872   2.269   8.378  0.0519  0.2608  0.4375
  154MOL    C8349349   0.925   2.155   8.295  0.1022 -0.6439 -0.1801
  154MOL    C8449350   0.993   2.177   8.173  0.0253  0.1465 -0.1188
  154MOL    C8549351   1.046   2.066   8.100 -0.2359 -0.0027 -0.2556
  154MOL    C8649352   1.019   1.931   8.140  0.2467  0.0742 -0.0182
  154MOL   Cl8749353   1.051   1.800   8.027  0.1489  0.3497  0.1545
  154MOL    C8849354   0.962   1.911   8.266  0.3487 -0.0895  0.2998
  154MOL    C8949355   0.921   2.020   8.344  0.5544  1.0132  0.0909
  154MOL    C9049356   0.956   2.288   0.058  0.2353  0.0917  0.8269
  154MOL    H9149357   0.781   2.224   8.419  0.1971  1.2733  1.9214
  154MOL    H9249358   1.007   2.274   8.127  0.0354  0.1367 -0.1369
  154MOL    H9349359   1.091   2.084   8.003 -1.1252  0.2294 -0.6263
  154MOL    H9449360   0.954   1.812   8.307 -1.5659  0.7805  2.1473
  154MOL    H9549361   0.884   2.006   0.002  2.2318  0.9351  0.7192
  154MOL    H9649362   0.902   2.344   0.134  0.1138 -0.2422  0.9848
  154MOL    H9749363   0.963   2.189   0.102  0.5704  0.2678  1.1757
  154MOL    C9849364   1.091   2.350   0.018 -0.8401 -0.4546  0.4831
  154MOL    C9949365   1.087   2.498   0.053 -0.7592 -0.5037 -0.2032
  154MOL   C10049366   1.061   2.541   0.185 -0.4982 -0.2282  0.1021
  154MOL   C10149367   1.063   2.682   0.215  1.1726 -0.2928 -0.9989
  154MOL   C10249368   1.087   2.776   0.111 -0.4908 -0.8687  0.0239
  154MOL  Cl10349369   1.096   2.940   0.149 -0.0288 -0.0047  0.2912
  154MOL   C10449370   1.103   2.735   8.421  0.0094  0.0415 -0.8775
  154MOL   C10549371   1.118   2.596   8.398  0.0992  0.6174 -0.0083
  154MOL   C10649372   1.210   2.274   0.094 -0.1370  0.0695  0.2138
  154MOL   H10749373   1.102   2.351   8.353  1.0996 -1.9239  0.6387
  154MOL   H10849374   1.056   2.455   0.251  0.8322 -2.2514 -2.3248
  154MOL   H10949375   1.049   2.700   0.320  2.2311 -5.1178  0.1178
  154MOL   H11049376   1.121   2.801   8.338 -3.3190  0.2747 -1.4425
  154MOL   H11149377   1.155   2.571   8.299 -0.9606 -0.4976 -0.1402
  154MOL   H11249378   1.187   2.275   0.200  2.2713 -0.1573  0.7578
  154MOL   H11349379   1.219   2.170   0.061 -0.6943  0.1671 -0.2609
  154MOL   C11449380   1.350   2.334   0.094 -0.2829 -0.3700 -0.1157
  154MOL   C11549381   1.433   2.247   0.185 -0.0363 -0.6271 -0.0019
  154MOL   C11649382   1.477   2.119   0.146  0.5725 -0.2762 -0.0613
  154MOL   C11749383   1.532   2.030   0.237 -0.4321  0.2603 -0.1494
  154MOL   C11849384   1.570   2.075   0.364 -0.5592  0.0430 -0.0897
  154MOL  Cl11949385   1.670   1.973   0.462  0.2981  0.0051  0.5610
  154MOL   C12049386   1.527   2.204   0.405 -0.1099  0.4108  0.5019
  154MOL   C12149387   1.465   2.294   0.310  0.6950  0.5905 -0.6233
  154MOL   C12249388   1.439   2.357   8.411 -0.9789 -0.5728 -0.5360
  154MOL   H12349389   1.346   2.432   0.142  0.2499 -1.1509  1.5603
  154MOL   H12449390   1.457   2.096   0.042 -2.1150  4.0425 -0.6704
  154MOL   H12549391   1.557   1.929   0.210 -2.4589 -0.8852  2.1167
  154MOL   H12649392   1.545   2.246   0.502  0.1135 -1.0453  1.0992
  154MOL   H12749393   1.434   2.392   0.340 -0.3775 -0.1573  0.7895
  154MOL   H12849394   1.536   2.312   8.432 -1.0818  0.1696  1.6131
  154MOL   H12949395   1.399   2.303   8.325  1.1571 -1.4145 -1.0543
  154MOL   C13049396   1.461   2.505   8.361  0.7923 -0.0610  1.2593
  154MOL   C13149397   1.545   2.609   0.003  0.1041 -0.5417  0.2980
  154MOL   C13249398   1.476   2.706   0.078  0.4779 -1.1936  0.5534
  154MOL   C13349399   1.546   2.786   0.171  0.2067 -1.0442  0.3186
  154MOL   C13449400   1.688   2.787   0.170 -0.1795 -0.9042  1.0433
  154MOL  Cl13549401   1.757   2.890   0.278  0.0182 -0.2134  0.1537
  154MOL   C13649402   1.761   2.698   0.090  0.8926  0.7075  0.6328
  154MOL   C13749403   1.689   2.606   0.009  0.5174  0.5048 -0.4354
  154MOL   C13849404   1.519   2.490   8.217  0.2549 -0.0734  0.2279
  154MOL   H13949405   1.356   2.535   8.366  1.0862  1.3476 -0.5405
  154MOL   H14049406   1.368   2.710   0.072  0.5631 -0.9657 -0.8857
  154MOL   H14149407   1.494   2.866   0.221  1.2566  0.5760 -1.1343
  154MOL   H14249408   1.868   2.704   0.103  1.1306  1.8904 -1.6746
  154MOL   H14349409   1.737   2.531   8.391 -0.2796  1.4298 -2.2338
  154MOL   H14449410   1.564   2.585   8.188 -1.7938  1.3531  1.5972
  154MOL   H14549411   1.611   2.432   8.222  0.5653  0.4503  0.6173
  154MOL   C14649412   1.423   2.461   8.099 -0.1230 -0.6823  0.0871
  154MOL   C14749413   1.302   2.560   8.089  0.6694 -0.3008  1.0299
  154MOL   C14849414   1.310   2.702   8.106 -0.1789  1.0094  0.5900
  154MOL   C14949415   1.203   2.781   8.075  0.1672  0.0964 -0.0136
  154MOL   C15049416   1.084   2.720   8.040  0.4289  0.5272 -0.2466
  154MOL  Cl15149417   0.958   2.822   7.983  0.1229 -0.0984 -0.0812
  154MOL   C15249418   1.065   2.582   8.032  0.2795  1.1277 -0.5139
  154MOL   C15349419   1.175   2.506   8.056 -0.4211  0.8600  0.0259
  154MOL   C15449420   1.492   2.464   7.963  0.1151  0.2818  0.2069
  154MOL   H15549421   1.401   2.355   8.116  0.6749 -0.5717  2.0538
  154MOL   H15649422   1.399   2.759   8.130 -0.0195  0.6295  0.9002
  154MOL   H15749423   1.217   2.888   8.081  1.1084  0.0014 -0.4067
  154MOL   H15849424   0.973   2.538   7.996  0.3323  0.0254  0.6406
  154MOL   H15949425   1.170   2.399   8.045 -0.8404  0.9814 -0.9778
  154MOL   H16049426   1.420   2.455   7.881  0.1872 -2.1148  0.3876
  154MOL   H16149427   1.532   2.563   7.941 -0.1919  0.2986 -0.3022
  154MOL   C16249428   1.603   2.361   7.945  0.0093  0.2790 -0.0672
  154MOL   C16349429   1.562   2.218   7.976  0.1077 -0.1309  0.4655
  154MOL   C16449430   1.487   2.141   7.881  0.1351 -0.1785  0.4637
  154MOL   C16549431   1.427   2.021   7.925 -0.5419  0.5080  0.4845
  154MOL   C16649432   1.440   1.978   8.055  0.0817  0.6525  0.7761
  154MOL  Cl16749433   1.383   1.825   8.097 -0.5576  0.2697  0.1714
  154MOL   C16849434   1.516   2.052   8.146 -0.3076  0.1441 -0.1356
  154MOL   C16949435   1.580   2.166   8.102  0.0074  0.1788  0.2900
  154MOL   C17049436   1.678   2.367   7.811  0.4823  0.2778 -0.2528
  154MOL   H17149437   1.676   2.370   8.026 -1.6522 -1.0121  1.6347
  154MOL   H17249438   1.457   2.176   7.784  0.4848  0.4134  0.5664
  154MOL   H17349439   1.386   1.964   7.844 -3.3839  0.8745  1.6157
  154MOL   H17449440   1.525   2.016   8.247  2.0275 -2.3531 -1.1614
  154MOL   H17549441   1.638   2.227   8.170  0.8480 -1.1402  0.7711
  154MOL   H17649442   1.749   2.285   7.800 -1.1471 -1.2557  0.4946
  154MOL   H17749443   1.602   2.364   7.733  0.5240  0.6863 -0.3090
  154MOL   C17849444   1.760   2.504   7.801 -0.2000  0.3582  0.4689
  154MOL   C17949445   1.874   2.530   7.908 -0.3237  0.1228  0.1645
  154MOL   C18049446   1.989   2.453   7.900 -0.9333  0.1898 -0.2221
  154MOL   C18149447   2.085   2.456   7.999 -0.0586 -0.6382  0.2911
  154MOL   C18249448   2.061   2.534   8.115 -0.0669  0.1506 -0.5190
  154MOL  Cl18349449   2.188   2.534   8.237 -0.1198 -0.1463  0.2933
  154MOL   C18449450   1.944   2.610   8.128 -0.0100  0.5966  0.2949
  154MOL   C18549451   1.855   2.612   8.020 -0.2179  0.2525  0.3294
  154MOL   C18649452   1.807   2.525   7.653 -0.2264  0.0293  0.0079
  154MOL   H18749453   1.685   2.581   7.819 -1.0576 -0.3877  0.1291
  154MOL   H18849454   1.995   2.386   7.815 -3.0004  0.6584 -0.7839
  154MOL   H18949455   2.176   2.398   7.989  0.6903  0.7307 -1.0272
  154MOL   H19049456   1.916   2.675   8.210 -0.4382 -0.2702  0.8497
  154MOL   H19149457   1.759   2.658   8.033 -1.1730 -1.7354  0.4372
  154MOL   H19249458   1.866   2.437   7.627 -1.9575 -0.9449 -0.7169
  154MOL   H19349459   1.722   2.524   7.585 -0.2263 -1.2346  0.0072
  154MOL   C19449460   1.884   2.658   7.617 -0.0201 -0.4018 -0.7531
  154MOL   C19549461   1.970   2.640   7.493  0.3806 -0.7365  0.0242
  154MOL   C19649462   2.108   2.634   7.497  0.8723  1.1512  0.3403
  154MOL   C19749463   2.188   2.625   7.381  0.1454  0.1933 -0.4720
  154MOL   C19849464   2.118   2.600   7.260  0.2111 -0.0048 -0.4747
  154MOL  Cl19949465   2.198   2.575   7.106 -0.0308 -0.0810 -0.0095
  154MOL   C20049466   1.979   2.602   7.255  0.5546  0.1122  0.1094
  154MOL   C20149467   1.901   2.613   7.376  0.3338 -0.5040 -0.1411
  154MOL   C20249468   1.777   2.777   7.607  0.0400  0.7313 -0.1877
  154MOL   H20349469   1.955   2.662   7.699 -2.4414  0.6510  1.3196
  154MOL   H20449470   2.154   2.639   7.594  0.0661 -0.4842  0.8068
  154MOL   H20549471   2.295   2.638   7.390 -0.2121  2.3369  1.0153
  154MOL   H20649472   1.924   2.591   7.162  1.9816 -1.4462 -0.5810
  154MOL   H20749473   1.794   2.602   7.373  0.2459 -0.2047  1.5878
  154MOL   H20849474   1.728   2.771   7.510  0.4988 -0.7833 -0.3398
  154MOL   H20949475   1.705   2.757   7.686  0.4199 -0.1285 -0.0521
  154MOL   C21049476   1.840   2.916   7.629  0.7784  0.1872  0.2163
  154MOL   C21149477   1.940   2.950   7.515 -0.1463  0.4490  0.3317
  154MOL   C21249478   1.896   2.963   7.385  0.4564 -0.0079  0.6886
  154MOL   C21349479   1.989   2.978   7.276  0.2051  0.0706 -0.6453
  154MOL   C21449480   2.124   2.975   7.304  0.5893  0.2438 -0.3702
  154MOL  Cl21549481   2.243   2.975   7.176 -0.0082  0.1990 -0.6120
  154MOL   C21649482   2.169   2.964   7.439  0.1183  0.0114  0.2150
  154MOL   C21749483   2.078   2.948   7.542 -0.0551 -0.3085  0.2451
  154MOL   C21849484   1.740   3.029   7.646  0.4021  0.2090  0.0495
  154MOL   H21949485   1.894   2.907   7.723 -1.9523  0.2711  1.8463
  154MOL   H22049486   1.792   2.952   7.362  0.6669  1.6039 -1.1227
  154MOL   H22149487   1.949   2.984   7.176 -0.0072  0.0922 -0.5593
  154MOL   H22249488   2.273   2.964   7.469  0.4693  1.3628 -0.9378
  154MOL   H22349489   2.108   2.939   7.646  0.3400  2.3027  0.3981
  154MOL   H22449490   1.790   3.124   7.667  0.1721  0.1333  0.9508
  154MOL   H22549491   1.675   3.028   7.559 -2.5812 -1.1045  2.2480
  154MOL   C22649492   1.636   3.006   7.768 -0.3588 -0.1287 -0.3158
  154MOL   C22749493   1.689   2.997   7.911  0.1707  0.6142  0.0627
  154MOL   C22849494   1.650   2.899   8.004  0.1765 -0.7492  0.4564
  154MOL   C22949495   1.692   2.907   8.142 -0.4793  0.0455 -0.1985
  154MOL   C23049496   1.781   3.011   8.173  0.6555 -0.3572  0.7333
  154MOL  Cl23149497   1.856   3.000   8.324 -0.1997  0.0583 -0.1220
  154MOL   C23249498   1.828   3.109   8.082  0.1811  0.1522  0.6452
  154MOL   C23349499   1.777   3.098   7.949 -0.2412 -0.5454  0.4987
  154MOL   C23449500   1.508   3.081   7.756 -0.4117  0.2249 -0.6097
  154MOL   H23549501   1.602   2.903   7.776 -0.7542  0.0830  0.9122
  154MOL   H23649502   1.590   2.816   7.971 -1.0485  0.0756  0.5765
  154MOL   H23749503   1.661   2.838   8.220 -0.8514 -1.0451 -1.2999
  154MOL   H23849504   1.904   3.179   8.113 -0.8714  1.2230  0.8220
  154MOL   H23949505   1.803   3.173   7.877 -1.1209 -0.8700 -0.1673
  154MOL   H24049506   1.453   3.075   7.850  0.5514  0.8121 -0.0016
  154MOL   H24149507   1.531   3.186   7.740 -0.4579 -0.0140 -2.3522
  154MOL   C24249508   1.405   3.047   7.644  0.2070 -0.2607 -0.4461
  154MOL   C24349509   1.381   2.903   7.630 -0.3726  0.1454  0.0718
  154MOL   C24449510   1.443   2.837   7.522 -0.1457 -0.1235  0.3000
  154MOL   C24549511   1.434   2.694   7.514 -0.2016 -0.3243 -0.2517
  154MOL   C24649512   1.361   2.624   7.617  0.0242 -0.6929 -0.1962
  154MOL  Cl24749513   1.345   2.457   7.601  0.4773  0.2442 -0.5049
  154MOL   C24849514   1.293   2.688   7.723  0.1793 -0.1031 -0.0570
  154MOL   C24949515   1.307   2.833   7.725 -0.3869 -0.0727  0.0229
  154MOL   C25049516   1.273   3.130   7.669 -0.3807  0.0600  0.6872
  154MOL   H25149517   1.447   3.081   7.549  0.4590  1.4980  0.2752
  154MOL   H25249518   1.504   2.889   7.450  3.0558 -2.1189  1.4555
  154MOL   H25349519   1.489   2.649   7.433 -0.0375 -1.5410  0.5314
  154MOL   H25449520   1.242   2.629   7.797  1.2512 -1.1342 -0.1262
  154MOL   H25549521   1.260   2.886   7.807  1.4461  0.8291  0.5046
  154MOL   H25649522   1.225   3.092   7.760  1.5870 -2.5256  0.7124
  154MOL   H25749523   1.308   3.231   7.689 -0.0193  0.5556 -2.2366
  154MOL   C25849524   1.165   3.140   7.551  0.0143  0.0573  0.0242
  154MOL   C25949525   1.024   3.175   7.602 -0.4706  0.2393 -0.0808
  154MOL   C26049526   0.968   3.304   7.581  0.1874  1.0256  0.5274
  154MOL   C26149527   0.840   3.331   7.631 -0.6553 -0.1946 -0.0936
  154MOL   C26249528   0.771   3.230   7.708 -0.1845 -0.7031  0.1971
  154MOL  Cl26349529   0.637   3.277   7.799 -0.1116  0.0321  0.3678
  154MOL   C26449530   0.823   3.102   7.729 -0.2639  0.0127 -0.2609
  154MOL   C26549531   0.946   3.076   7.670 -0.4260  0.5450  0.4154
  154MOL   C26649532   1.207   3.240   7.439 -0.1400 -0.3490  0.5410
  154MOL   H26749533   1.157   3.043   7.502 -0.8855  0.4524 -0.6076
  154MOL   H26849534   1.022   3.379   7.525 -1.6960  3.6654  2.1215
  154MOL   H26949535   0.797   3.429   7.619 -1.3753 -0.7668 -2.6226
  154MOL   H27049536   0.769   3.029   7.787  1.3254 -0.9834 -0.0212
  154MOL   H27149537   0.995   2.980   7.681  0.5641  0.9129 -0.6606
  154MOL   H27249538   1.212   3.341   7.480  0.7670 -0.4980  0.8104
  154MOL   H27349539   1.310   3.213   7.415 -0.8443 -1.6426 -1.1367
  154MOL   C27449540   1.128   3.238   7.304 -0.7424 -0.2723 -0.1276
  154MOL   C27549541   1.169   3.349   7.213 -0.1025 -0.3129  0.3275
  154MOL   C27649542   1.303   3.364   7.162 -0.7756 -0.0448 -0.2979
  154MOL   C27749543   1.335   3.468   7.075  0.1707 -0.3489  0.0149
  154MOL   C27849544   1.242   3.567   7.049  0.6263  0.0934  0.1012
  154MOL  Cl27949545   1.287   3.693   6.936  0.4115 -0.2977  0.0859
  154MOL   C28049546   1.107   3.565   7.102 -0.1672  0.9614  0.1866
  154MOL   C28149547   1.071   3.450   7.176 -0.4896 -0.5208 -0.2612
  154MOL   C28249548   1.141   3.108   7.224  0.6577  0.0531  0.4224
  154MOL   H28349549   1.023   3.252   7.329 -0.3581  2.1732  0.1963
  154MOL   H28449550   1.387   3.303   7.194 -1.1994 -1.2287 -1.4189
  154MOL   H28549551   1.433   3.482   7.032  0.4094  2.1395  1.2439
  154MOL   H28649552   1.029   3.630   7.066 -0.3806 -0.3469 -1.7842
  154MOL   H28749553   0.966   3.437   7.197 -0.9166 -0.4689 -2.2701
  154MOL   H28849554   1.189   3.119   7.127 -2.3587  2.3869 -0.8608
  154MOL   H28949555   1.204   3.039   7.281 -3.0642 -1.6736  2.6051
  154MOL   C29049556   1.015   3.014   7.219  0.5259  0.2563 -0.2910
  154MOL   C29149557   0.911   3.076   7.128 -0.2130  0.7414  0.1938
  154MOL   C29249558   0.927   3.094   6.983  0.0104 -0.1308  0.1016
  154MOL   C29349559   0.825   3.153   6.905 -0.4346 -0.6532 -0.3483
  154MOL   C29449560   0.711   3.209   6.966 -0.3306  1.2311  0.0588
  154MOL  Cl29549561   0.591   3.295   6.881 -0.2146  0.3863 -0.0440
  154MOL   C29649562   0.700   3.199   7.105  0.4660 -0.6651 -0.5129
  154MOL   C29749563   0.797   3.132   7.186  0.3903 -0.5914  0.6217
  154MOL   C29849564   1.037   2.865   7.175  0.4765 -0.3358 -0.2223
  154MOL   H29949565   0.980   3.004   7.321  0.0183 -0.7485 -0.5602
  154MOL   H30049566   1.018   3.058   6.936 -0.3299 -3.7025  2.0134
  154MOL   H30149567   0.846   3.159   6.799 -0.4715  0.2944 -0.3053
  154MOL   H30249568   0.618   3.244   7.161  3.0966  2.3725  1.0467
  154MOL   H30349569   0.769   3.101   7.286 -0.0147 -2.3871 -0.0266
  154MOL   H30449570   0.940   2.821   7.150  0.3595  1.2553 -2.7435
  154MOL   H30549571   1.079   2.873   7.075  2.1265  0.9758  0.5585
  154MOL   C30649572   1.142   2.781   7.260  0.5289  0.3604  0.1764
  154MOL   C30749573   1.073   2.674   7.338  0.7729 -0.4549 -0.4992
  154MOL   C30849574   1.031   2.701   7.469  0.4355  0.1310  0.5649
  154MOL   C30949575   0.966   2.602   7.550 -0.3711  0.3088 -0.3504
  154MOL   C31049576   0.953   2.473   7.494  0.4326  0.4194  0.2256
  154MOL  Cl31149577   0.884   2.342   7.588 -0.1576  0.2520 -0.2086
  154MOL   C31249578   0.990   2.439   7.364  0.2746  0.4718 -0.2091
  154MOL   C31349579   1.046   2.541   7.286 -0.2518  0.0122  0.1263
  154MOL   C31449580   1.262   2.730   7.178  0.3457 -0.2266  0.8500
  154MOL   H31549581   1.195   2.843   7.332  1.0210 -0.1077  0.2200
  154MOL   H31649582   1.055   2.797   7.513 -2.7838 -0.4104  3.6902
  154MOL   H31749583   0.931   2.622   7.650 -2.1792  0.3354 -0.9707
  154MOL   H31849584   0.981   2.340   7.322 -2.9756 -1.2581  4.2076
  154MOL   H31949585   1.072   2.511   7.185 -0.8714  0.9013 -0.3011
  154MOL   H32049586   1.325   2.813   7.146 -1.5365  1.2112  0.8215
  154MOL   H32149587   1.331   2.671   7.238 -0.3252  0.1022  1.9572
  154MOL   H32249588   1.228   2.664   7.099  1.1889  1.1081 -0.6705
  155MOL     C149589   7.073   7.595   0.706  0.3065 -0.2994  0.4595
  155MOL     C249590   7.040   7.728   0.774 -0.1556  0.2584  0.4500
  155MOL     C349591   6.912   7.782   0.759  0.2155  0.6348  0.5072
  155MOL     C449592   6.884   7.904   0.820 -0.1935  0.3056 -0.8774
  155MOL     C549593   6.985   7.985   0.879  0.3803  0.2460  0.0643
  155MOL    Cl649594   6.941   8.136   0.959 -0.1024  0.0330 -0.3955
  155MOL     C749595   7.116   7.934   0.882 -0.0450  0.6652 -0.2836
  155MOL     C849596   7.145   7.808   0.823  0.1284  0.1222 -0.2368
  155MOL     C949597   7.038   7.593   0.556  0.0472  0.5821 -0.2444
  155MOL    H1049598   7.020   7.510   0.750  2.0593 -1.0667  1.1358
  155MOL    H1149599   6.832   7.721   0.720 -0.9200  2.8560 -0.7631
  155MOL    H1249600   6.782   7.939   0.819 -0.4713 -0.4933 -1.4978
  155MOL    H1349601   7.196   8.000   0.913 -2.0951  3.6240 -1.0084
  155MOL    H1449602   7.246   7.770   0.818 -0.2738 -1.5234  2.8982
  155MOL    H1549603   7.078   7.499   0.518 -0.8081 -0.4861  1.4653
  155MOL    H1649604   6.932   7.596   0.531  0.2965 -1.4619 -1.7006
  155MOL    H1749605   7.176   7.569   0.728  0.2380 -0.2968  0.7970
  155MOL    C1849606   7.111   7.703   0.476 -0.1334  0.7097 -0.6027
  155MOL    C1949607   7.260   7.716   0.517  0.0463  0.7207  0.2378
  155MOL    C2049608   7.310   7.843   0.551 -0.3087 -0.9608  0.4453
  155MOL    C2149609   7.452   7.863   0.566  0.1172  0.4956 -0.5775
  155MOL    C2249610   7.542   7.752   0.552 -0.4149 -0.0257  0.3166
  155MOL   Cl2349611   7.712   7.777   0.559  0.4214  0.2402 -0.1549
  155MOL    C2449612   7.491   7.619   0.536 -0.3809 -0.1097  0.2213
  155MOL    C2549613   7.352   7.605   0.512 -0.4451 -0.0165 -0.9778
  155MOL    C2649614   7.085   7.691   0.330  0.7379  0.3336  0.7116
  155MOL    H2749615   7.072   7.798   0.513  0.8770  0.1753  1.9152
  155MOL    H2849616   7.235   7.919   0.558 -1.5461 -2.2027  0.9840
  155MOL    H2949617   7.484   7.964   0.584  0.1832  0.4544 -0.4641
  155MOL    H3049618   7.554   7.532   0.532  0.1758  0.3807 -2.0499
  155MOL    H3149619   7.317   7.508   0.479  1.0494 -0.4074 -1.4172
  155MOL    H3249620   7.139   7.776   0.287 -2.0935  0.5111 -2.7734
  155MOL    H3349621   7.136   7.602   0.295  1.2395  0.8025  0.2370
  155MOL    C3449622   6.943   7.702   0.269 -0.5651 -0.4619  0.4957
  155MOL    C3549623   6.860   7.815   0.329 -0.0552  0.1402  0.2102
  155MOL    C3649624   6.886   7.951   0.303  0.0763  0.1490 -0.3340
  155MOL    C3749625   6.805   8.056   0.345 -0.0091 -0.0380  0.0574
  155MOL    C3849626   6.692   8.029   0.416 -0.1820  0.0995  0.3857
  155MOL   Cl3949627   6.616   8.163   0.491 -0.1837 -0.2942 -0.1072
  155MOL    C4049628   6.660   7.896   0.448 -0.5581 -0.4800 -0.6448
  155MOL    C4149629   6.749   7.789   0.411  0.1169 -0.1593 -0.0770
  155MOL    C4249630   6.956   7.698   0.114  0.3139 -0.6000 -0.1852
  155MOL    H4349631   6.890   7.609   0.290  0.6181 -1.0162  1.1194
  155MOL    H4449632   6.957   7.984   0.229 -0.6112  3.0698  0.2581
  155MOL    H4549633   6.831   8.159   0.325 -1.6435  0.5304  0.7463
  155MOL    H4649634   6.571   7.873   0.504  0.3903  2.6057  2.2680
  155MOL    H4749635   6.729   7.685   0.431 -2.3487  0.3874  0.3973
  155MOL    H4849636   7.050   7.741   0.079 -0.9960  0.8044 -2.0393
  155MOL    H4949637   6.958   7.592   0.090  0.5933 -0.9787  1.3995
  155MOL    C5049638   6.848   7.774   0.022 -0.6935  0.3892  0.5393
  155MOL    C5149639   6.902   7.783   8.317  0.2556 -0.0854 -0.0549
  155MOL    C5249640   6.861   7.899   8.248 -0.7270  0.0695 -0.1897
  155MOL    C5349641   6.908   7.918   8.118  0.2092 -0.8718 -0.7538
  155MOL    C5449642   6.987   7.819   8.054 -0.0273  0.7395  0.4176
  155MOL   Cl5549643   7.034   7.850   7.889 -0.3240 -0.0662  0.3007
  155MOL    C5649644   7.013   7.695   8.119 -0.2140  0.2496  1.0011
  155MOL    C5749645   6.976   7.683   8.255 -0.0817 -0.6313  0.5317
  155MOL    C5849646   6.708   7.712   0.027  0.0875 -0.1704  0.4571
  155MOL    H5949647   6.843   7.876   0.060 -1.9484  0.5270  0.0522
  155MOL    H6049648   6.795   7.974   8.288  1.6265  2.2169 -0.1854
  155MOL    H6149649   6.894   8.008   8.059  0.1309  0.2982  0.9928
  155MOL    H6249650   7.068   7.619   8.065  0.8090  1.6819 -0.0068
  155MOL    H6349651   7.010   7.594   8.306 -1.6757 -1.5840 -0.0425
  155MOL    H6449652   6.705   7.616   8.417 -3.2890 -0.0311  0.2696
  155MOL    H6549653   6.676   7.684   0.127  0.1126  0.7200  0.7151
  155MOL    C6649654   6.587   7.791   8.415  0.3331 -0.4564 -0.0786
  155MOL    C6749655   6.501   7.706   8.321 -0.0666 -0.1298  0.2573
  155MOL    C6849656   6.553   7.670   8.191  0.4152 -0.2976  0.2800
  155MOL    C6949657   6.481   7.583   8.109 -0.7931  0.3747  0.4045
  155MOL    C7049658   6.354   7.538   8.140  0.0097 -0.3868  0.5111
  155MOL   Cl7149659   6.267   7.442   8.020 -0.2030 -0.3151  0.1689
  155MOL    C7249660   6.301   7.581   8.265  0.4543  1.3324 -0.0994
  155MOL    C7349661   6.375   7.654   8.363  0.3131 -0.0999 -0.4514
  155MOL    C7449662   6.515   7.884   0.077 -0.0800 -0.1885 -0.5460
  155MOL    H7549663   6.627   7.857   8.338  0.9838 -2.1498 -1.2284
  155MOL    H7649664   6.650   7.704   8.156 -1.1391  1.4919 -2.5361
  155MOL    H7749665   6.532   7.562   8.016  0.2563 -0.5372  1.1655
  155MOL    H7849666   6.203   7.548   8.295 -0.0373  2.2212 -0.7120
  155MOL    H7949667   6.340   7.678   0.019  1.2040 -0.3369 -0.0736
  155MOL    H8049668   6.474   7.819   0.155  0.5441  0.3983  0.2874
  155MOL    H8149669   6.596   7.938   0.126 -0.0169 -0.4210 -0.3923
  155MOL    C8249670   6.413   7.986   0.013 -0.4031 -0.0609  0.6947
  155MOL    C8349671   6.296   8.011   0.111 -0.8346  0.3743 -0.0554
  155MOL    C8449672   6.329   8.059   0.241 -0.1685 -0.7805 -0.1817
  155MOL    C8549673   6.231   8.085   0.332  0.5934  0.1229  0.3387
  155MOL    C8649674   6.095   8.047   0.306  0.4422  0.9776  0.4780
  155MOL   Cl8749675   5.980   8.052   0.435  0.2818 -0.0295  0.1621
  155MOL    C8849676   6.063   8.000   0.182 -0.8947  0.0393  0.7839
  155MOL    C8949677   6.161   7.983   0.080 -0.4410 -0.2459  0.4080
  155MOL    C9049678   6.492   8.109   8.415 -0.6326 -0.0845 -0.0375
  155MOL    H9149679   6.373   7.939   8.366 -0.0028 -0.6547  0.8227
  155MOL    H9249680   6.431   8.092   0.244  0.0737 -1.5558  0.2712
  155MOL    H9349681   6.257   8.131   0.426  0.5476 -0.7904  0.7970
  155MOL    H9449682   5.966   7.956   0.166  0.4163 -2.9711  0.6691
  155MOL    H9549683   6.135   7.945   8.425  0.9132  0.2391 -0.1487
  155MOL    H9649684   6.507   8.177   0.056  2.0027 -0.3058 -0.3099
  155MOL    H9749685   6.596   8.087   8.395  0.0986  1.9593  1.3219
  155MOL    C9849686   6.439   8.196   8.298 -0.4376  0.7336 -0.1600
  155MOL    C9949687   6.491   8.148   8.165  0.3085 -0.1219 -0.2474
  155MOL   C10049688   6.452   8.021   8.106 -0.2893 -0.0388 -0.2935
  155MOL   C10149689   6.509   7.976   7.986 -0.7411  0.4196  0.3556
  155MOL   C10249690   6.600   8.059   7.922  0.5661 -0.3125 -0.0567
  155MOL  Cl10349691   6.679   7.991   7.790 -0.1591 -0.0554 -0.1283
  155MOL   C10449692   6.642   8.180   7.978 -0.2519  0.9651 -0.1347
  155MOL   C10549693   6.577   8.229   8.087 -0.7207  0.1901  0.1031
  155MOL   C10649694   6.289   8.234   8.293 -0.4659  0.1420  0.2002
  155MOL   H10749695   6.496   8.287   8.316  0.2419  0.3599 -0.4201
  155MOL   H10849696   6.385   7.951   8.153 -0.6167 -0.1607 -0.9351
  155MOL   H10949697   6.475   7.878   7.956 -0.8344  0.4310  0.4211
  155MOL   H11049698   6.716   8.244   7.933  3.1175 -1.2210  2.0572
  155MOL   H11149699   6.619   8.323   8.121 -0.8596 -0.0619  0.9862
  155MOL   H11249700   6.252   8.217   8.191 -1.1862  2.0741  0.1257
  155MOL   H11349701   6.220   8.175   8.354 -0.1792 -1.4366 -0.9710
  155MOL   C11449702   6.264   8.384   8.329 -0.3572 -0.4936  0.0447
  155MOL   C11549703   6.126   8.425   8.282 -0.1004  0.6128 -0.0688
  155MOL   C11649704   6.108   0.001   8.143  0.5508  0.3803 -0.4815
  155MOL   C11749705   5.983   0.041   8.095 -0.5447 -0.5056  0.0260
  155MOL   C11849706   5.876   0.066   8.184  0.1416  0.5259  1.5001
  155MOL  Cl11949707   5.725   0.120   8.124  0.2498 -0.1849 -0.0125
  155MOL   C12049708   5.894   0.041   8.323 -0.2470  0.7942  0.8017
  155MOL   C12149709   6.014   8.441   8.370 -0.0925 -0.9593 -0.2772
  155MOL   C12249710   6.305   8.421   0.025  0.6206 -0.9010 -0.0669
  155MOL   H12349711   6.334   8.438   8.265 -0.7063  0.7004  0.6631
  155MOL   H12449712   6.178   8.425   8.063 -1.1462 -1.4550 -1.5733
  155MOL   H12549713   5.964   0.048   7.989  3.1461 -0.2316 -0.6739
  155MOL   H12649714   5.812   0.059   8.390 -1.6269 -4.3067  0.7305
  155MOL   H12749715   6.028   8.430   0.034 -1.8010 -0.1087  0.0460
  155MOL   H12849716   6.230   8.375   0.090 -1.1345 -0.4799 -1.7341
  155MOL   H12949717   6.410   8.403   0.047  1.6082  3.0390 -1.3025
  155MOL   C13049718   6.293   0.127   0.071  0.4067 -0.2184  0.2203
  155MOL   C13149719   6.327   0.144   0.220 -0.1599  0.0903  0.3714
  155MOL   C13249720   6.366   0.037   0.297  0.1123 -0.0188  0.6886
  155MOL   C13349721   6.393   0.053   0.436  0.1142 -0.1502  0.6579
  155MOL   C13449722   6.381   0.176   0.495 -0.4342  0.1502  0.3730
  155MOL  Cl13549723   6.439   0.205   0.650 -0.1276  0.2562 -0.1024
  155MOL   C13649724   6.341   0.285   0.414 -0.5056  0.3976 -0.1227
  155MOL   C13749725   6.310   0.269   0.280 -0.8963  0.1110  0.2928
  155MOL   C13849726   6.374   0.227   8.418  0.3001 -0.0800  0.0878
  155MOL   H13949727   6.190   0.155   0.050  0.8729  0.6274 -0.9367
  155MOL   H14049728   6.381   8.380   0.258  0.6227  0.3430 -0.0486
  155MOL   H14149729   6.427   8.415   0.499 -0.7031 -1.8566 -1.0145
  155MOL   H14249730   6.333   0.380   0.465  1.3624  1.4259 -1.6897
  155MOL   H14349731   6.277   0.358   0.229 -0.1229  1.0135  1.3214
  155MOL   H14449732   6.342   0.213   8.315 -0.9695  0.3566  0.4161
  155MOL   H14549733   6.327   0.322   8.442 -0.0584 -0.4223  0.7542
  155MOL   C14649734   6.524   0.248   8.431  0.0263 -0.1719  0.0580
  155MOL   C14749735   6.613   0.126   0.007 -0.7446 -0.6911  0.2228
  155MOL   C14849736   6.667   0.088   0.132 -0.1747  0.0568  0.0611
  155MOL   C14949737   6.749   8.417   0.136 -0.3012 -0.8023 -0.3611
  155MOL   C15049738   6.789   8.356   0.018  0.0188  0.1741  0.0093
  155MOL  Cl15149739   6.886   8.220   0.013 -0.1973  0.4256 -0.2590
  155MOL   C15249740   6.751   8.399   8.341 -0.0371  0.3440 -0.0524
  155MOL   C15349741   6.666   0.067   8.335  0.0004  0.5710  0.0003
  155MOL   C15449742   6.567   0.352   8.317 -0.4569  0.0768 -0.2995
  155MOL   H15549743   6.543   0.305   0.078 -1.6935 -0.9411  0.9334
  155MOL   H15649744   6.626   0.115   0.228 -0.0792 -1.4541  0.5529
  155MOL   H15749745   6.783   8.385   0.234 -0.5142  2.5367  0.8589
  155MOL   H15849746   6.785   8.348   8.252 -0.6977 -3.6532  1.8669
  155MOL   H15949747   6.645   0.102   8.235  0.5773 -0.8826 -0.6472
  155MOL   H16049748   6.601   0.300   8.227  0.0462 -0.3441  0.1286
  155MOL   H16149749   6.481   0.400   8.271  0.9151 -0.0217 -3.0763
  155MOL   C16249750   6.671   0.459   8.354 -0.6728  0.1573  0.3614
  155MOL   C16349751   6.765   0.496   8.243  0.4108 -0.5661 -1.5467
  155MOL   C16449752   6.907   0.517   8.265 -0.4659  0.5008 -0.3753
  155MOL   C16549753   6.984   0.572   8.162  0.2032  0.0689  0.5524
  155MOL   C16649754   6.926   0.600   8.039 -0.1813 -0.0442  0.5151
  155MOL  Cl16749755   7.018   0.691   7.919 -0.0142 -0.4746 -0.1196
  155MOL   C16849756   6.792   0.563   8.007 -0.0112 -0.3039 -0.1635
  155MOL   C16949757   6.717   0.516   8.110  0.4524  0.1626  0.1154
  155MOL   C17049758   6.606   0.583   8.417 -0.4270 -0.3310  0.2435
  155MOL   H17149759   6.739   0.417   8.427 -1.7530 -0.4921  0.9980
  155MOL   H17249760   6.953   0.494   8.360  2.7119 -1.4771 -2.3019
  155MOL   H17349761   7.089   0.592   8.170  0.0176  0.9451  0.8828
  155MOL   H17449762   6.757   0.576   7.906 -0.6811 -0.8350  0.0034
  155MOL   H17549763   6.614   0.499   8.081  0.9456 -1.3861 -0.7630
  155MOL   H17649764   6.671   0.671   8.414  0.1852 -0.7500  1.2744
  155MOL   H17749765   6.525   0.611   8.350  1.6154  1.0045 -1.7407
  155MOL   C17849766   6.557   0.572   0.120  0.1662  0.3246  0.0525
  155MOL   C17949767   6.674   0.543   0.213 -0.0397 -0.1522 -0.3267
  155MOL   C18049768   6.797   0.612   0.208  0.0025 -0.0598  0.6021
  155MOL   C18149769   6.901   0.597   0.301  0.3265 -0.4651  0.4645
  155MOL   C18249770   6.891   0.501   0.401  0.1740  0.0782 -0.2113
  155MOL  Cl18349771   7.014   0.486   0.521 -0.3534 -0.0359 -0.2023
  155MOL   C18449772   6.779   0.411   0.403  0.3435 -0.5581  0.7056
  155MOL   C18549773   6.670   0.435   0.309 -0.3426  0.3677 -0.6079
  155MOL   C18649774   6.479   0.695   0.168  0.2410 -0.5084  0.4913
  155MOL   H18749775   6.485   0.490   0.114  1.7721 -1.1503  0.4859
  155MOL   H18849776   6.804   0.697   0.141 -0.0323 -0.9326 -0.5276
  155MOL   H18949777   6.987   0.661   0.285 -0.6706  0.7038 -0.3020
  155MOL   H19049778   6.782   0.348   0.490 -1.3687  0.4566  1.5102
  155MOL   H19149779   6.580   0.375   0.314 -0.9647  1.4060  1.1730
  155MOL   H19249780   6.438   0.694   0.270 -1.2663  0.7346 -0.0869
  155MOL   H19349781   6.557   0.770   0.182 -0.4174 -0.0121  1.5502
  155MOL   C19449782   6.374   0.766   0.075 -0.2145  0.0094  0.3569
  155MOL   C19549783   6.270   0.666   0.023 -0.3495 -0.6181 -0.6362
  155MOL   C19649784   6.200   0.577   0.105  0.7394 -0.3171 -0.5929
  155MOL   C19749785   6.102   0.499   0.048 -0.2635  0.5368  0.0546
  155MOL   C19849786   6.094   0.482   8.355 -0.3895 -0.2452  0.9696
  155MOL  Cl19949787   5.977   0.374   8.284  0.1555  0.0844  0.1552
  155MOL   C20049788   6.172   0.553   8.268  0.4841 -0.0240 -0.1956
  155MOL   C20149789   6.263   0.652   8.320  0.2093  1.0905 -0.0156
  155MOL   C20249790   6.313   0.898   0.138  0.2986  0.2556  0.3868
  155MOL   H20349791   6.422   0.807   8.430 -0.6973 -1.8424 -0.7931
  155MOL   H20449792   6.207   0.585   0.212  1.3259  0.4823 -0.6902
  155MOL   H20549793   6.043   0.437   0.114 -0.9638 -0.0436 -1.0956
  155MOL   H20649794   6.165   0.530   8.163 -1.5936 -0.3087 -0.0133
  155MOL   H20749795   6.326   0.703   8.248 -0.5893  0.2849 -1.3093
  155MOL   H20849796   6.266   0.886   0.235  0.3881  0.4668  0.4565
  155MOL   H20949797   6.399   0.959   0.165  0.9325 -0.1628 -0.6749
  155MOL   C21049798   6.215   0.992   0.062 -0.2735  0.2931  0.1631
  155MOL   C21149799   6.174   1.109   0.152  0.0019  0.2907 -0.3163
  155MOL   C21249800   6.246   1.152   0.271 -0.1621  0.1976  0.1291
  155MOL   C21349801   6.203   1.270   0.338 -0.8594  0.4251  0.5494
  155MOL   C21449802   6.104   1.348   0.286  0.4273  0.1409 -0.4879
  155MOL  Cl21549803   6.062   1.488   0.377 -0.4230 -0.2147  0.1097
  155MOL   C21649804   6.028   1.305   0.177 -0.0014 -0.0482 -0.2998
  155MOL   C21749805   6.063   1.183   0.113 -0.0379  0.0736 -0.3939
  155MOL   C21849806   6.250   1.041   8.357  0.0359  0.0307  0.0303
  155MOL   H21949807   6.119   0.942   0.054  1.2180 -2.6296 -0.0246
  155MOL   H22049808   6.325   1.088   0.308 -0.2080 -1.2557 -2.1978
  155MOL   H22149809   6.249   1.308   0.428  0.0120 -0.0164  0.2986
  155MOL   H22249810   5.946   1.363   0.139 -0.9050 -1.2614 -0.2230
  155MOL   H22349811   6.002   1.155   0.028 -1.0490  0.6795  0.1306
  155MOL   H22449812   6.248   0.950   8.297 -0.6914  0.6064 -0.8387
  155MOL   H22549813   6.173   1.101   8.309  1.3998  1.2546 -0.6538
  155MOL   C22649814   6.399   1.104   8.334  0.1166 -0.9472 -0.4947
  155MOL   C22749815   6.472   1.039   8.214 -0.1618  0.5986  0.3719
  155MOL   C22849816   6.589   0.960   8.223 -0.7343  1.5764 -0.5421
  155MOL   C22949817   6.657   0.916   8.105  0.1245  0.4318 -0.0369
  155MOL   C23049818   6.594   0.933   7.983  0.4808 -0.6303 -0.4345
  155MOL  Cl23149819   6.670   0.874   7.835 -0.0276  0.1251 -0.3936
  155MOL   C23249820   6.477   1.011   7.975  1.0379  0.1384  0.7127
  155MOL   C23349821   6.417   1.059   8.089 -0.6913 -0.1601 -0.3609
  155MOL   C23449822   6.402   1.264   8.321 -0.6803  0.4564 -0.1728
  155MOL   H23549823   6.447   1.083   8.429  0.6015  0.2007 -0.4765
  155MOL   H23649824   6.637   0.945   8.319 -0.6570  2.0393 -0.5090
  155MOL   H23749825   6.754   0.869   8.105  0.7132  1.6094  0.8672
  155MOL   H23849826   6.420   1.038   7.887 -1.3045  1.0951  2.4706
  155MOL   H23949827   6.327   1.117   8.081 -0.0756  0.3435 -4.7161
  155MOL   H24049828   6.337   1.279   8.235 -1.2728 -0.8630  0.0432
  155MOL   H24149829   6.363   1.310   8.412  0.9726 -0.2319  0.9104
  155MOL   C24249830   6.541   1.328   8.289 -0.0802 -0.4010  0.2819
  155MOL   C24349831   6.524   1.467   8.240 -0.8982 -0.6723 -0.0096
  155MOL   C24449832   6.478   1.569   8.329 -0.0317  0.5621  0.2443
  155MOL   C24549833   6.470   1.700   8.289 -0.1500 -0.7126 -0.0105
  155MOL   C24649834   6.499   1.739   8.153  0.2345  0.6952 -0.1025
  155MOL  Cl24749835   6.474   1.894   8.088  0.0851 -0.0089 -0.0697
  155MOL   C24849836   6.543   1.638   8.062  0.5511  0.4510  0.0783
  155MOL   C24949837   6.555   1.502   8.102  0.0630  0.0478 -0.5623
  155MOL   C25049838   6.627   1.321   8.423 -0.3871 -0.0932  0.3117
  155MOL   H25149839   6.588   1.285   8.200 -1.2206  0.2075 -0.6212
  155MOL   H25249840   6.459   1.544   8.433 -0.2375 -1.9031 -0.3525
  155MOL   H25349841   6.438   1.783   8.351  1.7121 -0.2540  0.3485
  155MOL   H25449842   6.575   1.667   7.963  0.6554 -2.1456 -0.6860
  155MOL   H25549843   6.583   1.429   8.028  1.3953  0.7345 -0.7467
  155MOL   H25649844   6.591   1.379   0.065 -1.8937 -0.7508  0.1253
  155MOL   H25749845   6.628   1.215   0.004  0.1112 -0.3299 -0.7123
  155MOL   C25849846   6.781   1.333   8.400  0.2220  0.0814 -0.3202
  155MOL   C25949847   6.824   1.474   8.346  0.0113  0.8123 -0.0952
  155MOL   C26049848   6.885   1.482   8.216  0.6798 -0.6409 -0.1339
  155MOL   C26149849   6.932   1.606   8.171  0.1925 -0.8222 -0.0942
  155MOL   C26249850   6.910   1.726   8.244  0.5090 -0.1672 -0.4990
  155MOL  Cl26349851   6.962   1.884   8.182  0.0938 -0.1430 -0.1044
  155MOL   C26449852   6.833   1.721   8.364 -0.2139  0.9067 -0.5090
  155MOL   C26549853   6.800   1.591   8.418  0.1656 -0.0664  0.0034
  155MOL   C26649854   6.866   1.284   0.076 -0.1740  0.4689  0.1515
  155MOL   H26749855   6.811   1.259   8.326  3.3593  1.0027 -0.0402
  155MOL   H26849856   6.914   1.393   8.164  0.4342 -1.0743  0.4685
  155MOL   H26949857   6.984   1.608   8.077  0.5364  0.9656  0.1128
  155MOL   H27049858   6.803   1.806   8.424 -2.3514  0.3931 -0.8095
  155MOL   H27149859   6.756   1.586   0.074 -2.4821  0.9073 -1.0647
  155MOL   H27249860   6.871   1.368   0.146  0.4279  0.0971  0.5638
  155MOL   H27349861   6.823   1.196   0.124 -0.7733  0.6937  0.0320
  155MOL   C27449862   7.011   1.245   0.044 -0.9553  0.2835  0.9076
  155MOL   C27549863   7.103   1.294   0.156 -0.3022  0.4836 -0.0064
  155MOL   C27649864   7.103   1.217   0.275 -0.0909 -0.4962 -0.5802
  155MOL   C27749865   7.165   1.268   0.391  0.6414  0.6646  0.5160
  155MOL   C27849866   7.248   1.380   0.380  0.0342  0.2982  0.0294
  155MOL  Cl27949867   7.327   1.443   0.522  0.3091  0.1781 -0.0349
  155MOL   C28049868   7.258   1.452   0.260  0.4955 -0.1457 -0.5563
  155MOL   C28149869   7.181   1.407   0.154 -0.5530  0.4022 -0.1574
  155MOL   C28249870   7.040   1.091   0.009  0.3160  0.3031  1.3468
  155MOL   H28349871   7.033   1.314   8.406 -0.6088 -1.3194 -0.3863
  155MOL   H28449872   7.052   1.121   0.277  3.4005 -2.4323  3.5530
  155MOL   H28549873   7.150   1.213   0.483 -0.1568 -1.5886 -0.9131
  155MOL   H28649874   7.333   1.530   0.249 -0.7890  1.1059 -0.6054
  155MOL   H28749875   7.186   1.466   0.064 -2.4980  0.8838  0.0235
  155MOL   H28849876   7.013   1.021   0.088  0.3195 -1.7660 -0.4373
  155MOL   H28949877   6.986   1.057   8.364  0.5063  1.3191  0.8308
  155MOL   C29049878   7.189   1.067   8.401  0.3668  0.4708  0.1231
  155MOL   C29149879   7.287   1.054   0.075  0.3925 -0.2438  0.8646
  155MOL   C29249880   7.372   1.158   0.104 -0.4320  0.9892 -0.2618
  155MOL   C29349881   7.443   1.155   0.222 -0.9658 -0.1105  0.0657
  155MOL   C29449882   7.452   1.040   0.298 -0.1836  0.2083  0.4148
  155MOL  Cl29549883   7.562   1.044   0.441 -0.0046 -0.2814 -0.3850
  155MOL   C29649884   7.377   0.927   0.268  0.7335 -1.0345  0.8702
  155MOL   C29749885   7.296   0.938   0.149  0.0476 -0.2263 -0.5579
  155MOL   C29849886   7.209   0.965   8.287  0.0511  0.1821  0.1716
  155MOL   H29949887   7.222   1.162   8.358  0.9746 -0.1890 -0.9051
  155MOL   H30049888   7.374   1.251   0.050 -2.3558  0.8425 -0.6363
  155MOL   H30149889   7.504   1.242   0.241  1.8762 -1.5879 -1.7796
  155MOL   H30249890   7.379   0.843   0.336  0.0604 -0.2931  1.8151
  155MOL   H30349891   7.237   0.851   0.122 -0.4838 -0.4879  1.3147
  155MOL   H30449892   7.146   0.877   8.303 -0.5135  0.6213  0.3965
  155MOL   H30549893   7.161   1.004   8.197  1.7658  0.2628 -0.7252
  155MOL   C30649894   7.354   0.917   8.262  0.4786  0.3331  0.2342
  155MOL   C30749895   7.352   0.808   8.158 -0.1086  0.1543 -0.2368
  155MOL   C30849896   7.369   0.678   8.195 -0.2982  0.2757 -0.6431
  155MOL   C30949897   7.364   0.577   8.098 -0.0071  0.6689  0.3843
  155MOL   C31049898   7.351   0.607   7.961 -0.7760  0.5968  0.2922
  155MOL  Cl31149899   7.339   0.494   7.837 -0.2494  0.0336 -0.2149
  155MOL   C31249900   7.341   0.740   7.923 -0.6858 -0.9466  0.4629
  155MOL   C31349901   7.338   0.841   8.021  0.0142  0.2572 -0.1322
  155MOL   C31449902   7.452   1.029   8.222  0.5094  0.1592 -1.2101
  155MOL   H31549903   7.392   0.859   8.346 -1.0487 -0.0700  0.6678
  155MOL   H31649904   7.386   0.657   8.299 -1.3223 -1.3779 -0.8012
  155MOL   H31749905   7.388   0.478   8.135 -0.3382  1.0104  1.5305
  155MOL   H31849906   7.339   0.774   7.820 -0.5574  2.6576  1.5753
  155MOL   H31949907   7.336   0.946   7.996 -0.6126  0.4072  0.5153
  155MOL   H32049908   7.552   0.988   8.229 -0.1951 -1.3997  0.0938
  155MOL   H32149909   7.426   1.092   8.137  0.1862  1.1294 -0.4148
  155MOL   H32249910   7.455   1.088   8.314  0.6497 -1.6864 -0.0022
   8.44307   8.44307   8.44307
