;
; Gromacs include topology (itp) file.
; For Molecular Group XYZ
; Force field scheme: opls2005
; Produced from DL_FIELD v4.11
;


[ moleculetype ]
; name    nrexcl
XYZ    3

[ atoms ]
; nr   type   resnr   residu    atom    cgnr    charge    mass
    1        CT    1  MOL      C1     1  -0.0050000   12.0115
    2        CA    1  MOL      C2     2  -0.1150000   12.0115
    3        CA    1  MOL      C3     3  -0.1150000   12.0115
    4        CA    1  MOL      C4     4  -0.1150000   12.0115
    5        CA    1  MOL      C5     5   0.1800000   12.0115
    6        Cl    1  MOL     Cl6     6  -0.1800000   35.0650
    7        CA    1  MOL      C7     7  -0.1150000   12.0115
    8        CA    1  MOL      C8     8  -0.1150000   12.0115
    9        CT    1  MOL      C9     9  -0.1200000   12.0115
   10        HC    1  MOL     H10    10   0.0600000    1.0080
   11        HA    1  MOL     H11    11   0.1150000    1.0080
   12        HA    1  MOL     H12    12   0.1150000    1.0080
   13        HA    1  MOL     H13    13   0.1150000    1.0080
   14        HA    1  MOL     H14    14   0.1150000    1.0080
   15        HC    1  MOL     H15    15   0.0600000    1.0080
   16        HC    1  MOL     H16    16   0.0600000    1.0080
   17        HC    1  MOL     H17    17   0.0600000    1.0080
   18        CT    1  MOL     C18    18   0.0550000   12.0115
   19        CA    1  MOL     C19    19  -0.1150000   12.0115
   20        CA    1  MOL     C20    20  -0.1150000   12.0115
   21        CA    1  MOL     C21    21  -0.1150000   12.0115
   22        CA    1  MOL     C22    22   0.1800000   12.0115
   23        Cl    1  MOL    Cl23    23  -0.1800000   35.0650
   24        CA    1  MOL     C24    24  -0.1150000   12.0115
   25        CA    1  MOL     C25    25  -0.1150000   12.0115
   26        CT    1  MOL     C26    26  -0.1200000   12.0115
   27        HC    1  MOL     H27    27   0.0600000    1.0080
   28        HA    1  MOL     H28    28   0.1150000    1.0080
   29        HA    1  MOL     H29    29   0.1150000    1.0080
   30        HA    1  MOL     H30    30   0.1150000    1.0080
   31        HA    1  MOL     H31    31   0.1150000    1.0080
   32        HC    1  MOL     H32    32   0.0600000    1.0080
   33        HC    1  MOL     H33    33   0.0600000    1.0080
   34        CT    1  MOL     C34    34   0.0550000   12.0115
   35        CA    1  MOL     C35    35  -0.1150000   12.0115
   36        CA    1  MOL     C36    36  -0.1150000   12.0115
   37        CA    1  MOL     C37    37  -0.1150000   12.0115
   38        CA    1  MOL     C38    38   0.1800000   12.0115
   39        Cl    1  MOL    Cl39    39  -0.1800000   35.0650
   40        CA    1  MOL     C40    40  -0.1150000   12.0115
   41        CA    1  MOL     C41    41  -0.1150000   12.0115
   42        CT    1  MOL     C42    42  -0.1200000   12.0115
   43        HC    1  MOL     H43    43   0.0600000    1.0080
   44        HA    1  MOL     H44    44   0.1150000    1.0080
   45        HA    1  MOL     H45    45   0.1150000    1.0080
   46        HA    1  MOL     H46    46   0.1150000    1.0080
   47        HA    1  MOL     H47    47   0.1150000    1.0080
   48        HC    1  MOL     H48    48   0.0600000    1.0080
   49        HC    1  MOL     H49    49   0.0600000    1.0080
   50        CT    1  MOL     C50    50   0.0550000   12.0115
   51        CA    1  MOL     C51    51  -0.1150000   12.0115
   52        CA    1  MOL     C52    52  -0.1150000   12.0115
   53        CA    1  MOL     C53    53  -0.1150000   12.0115
   54        CA    1  MOL     C54    54   0.1800000   12.0115
   55        Cl    1  MOL    Cl55    55  -0.1800000   35.0650
   56        CA    1  MOL     C56    56  -0.1150000   12.0115
   57        CA    1  MOL     C57    57  -0.1150000   12.0115
   58        CT    1  MOL     C58    58  -0.1200000   12.0115
   59        HC    1  MOL     H59    59   0.0600000    1.0080
   60        HA    1  MOL     H60    60   0.1150000    1.0080
   61        HA    1  MOL     H61    61   0.1150000    1.0080
   62        HA    1  MOL     H62    62   0.1150000    1.0080
   63        HA    1  MOL     H63    63   0.1150000    1.0080
   64        HC    1  MOL     H64    64   0.0600000    1.0080
   65        HC    1  MOL     H65    65   0.0600000    1.0080
   66        CT    1  MOL     C66    66   0.0550000   12.0115
   67        CA    1  MOL     C67    67  -0.1150000   12.0115
   68        CA    1  MOL     C68    68  -0.1150000   12.0115
   69        CA    1  MOL     C69    69  -0.1150000   12.0115
   70        CA    1  MOL     C70    70   0.1800000   12.0115
   71        Cl    1  MOL    Cl71    71  -0.1800000   35.0650
   72        CA    1  MOL     C72    72  -0.1150000   12.0115
   73        CA    1  MOL     C73    73  -0.1150000   12.0115
   74        CT    1  MOL     C74    74  -0.1200000   12.0115
   75        HC    1  MOL     H75    75   0.0600000    1.0080
   76        HA    1  MOL     H76    76   0.1150000    1.0080
   77        HA    1  MOL     H77    77   0.1150000    1.0080
   78        HA    1  MOL     H78    78   0.1150000    1.0080
   79        HA    1  MOL     H79    79   0.1150000    1.0080
   80        HC    1  MOL     H80    80   0.0600000    1.0080
   81        HC    1  MOL     H81    81   0.0600000    1.0080
   82        CT    1  MOL     C82    82   0.0550000   12.0115
   83        CA    1  MOL     C83    83  -0.1150000   12.0115
   84        CA    1  MOL     C84    84  -0.1150000   12.0115
   85        CA    1  MOL     C85    85  -0.1150000   12.0115
   86        CA    1  MOL     C86    86   0.1800000   12.0115
   87        Cl    1  MOL    Cl87    87  -0.1800000   35.0650
   88        CA    1  MOL     C88    88  -0.1150000   12.0115
   89        CA    1  MOL     C89    89  -0.1150000   12.0115
   90        CT    1  MOL     C90    90  -0.1200000   12.0115
   91        HC    1  MOL     H91    91   0.0600000    1.0080
   92        HA    1  MOL     H92    92   0.1150000    1.0080
   93        HA    1  MOL     H93    93   0.1150000    1.0080
   94        HA    1  MOL     H94    94   0.1150000    1.0080
   95        HA    1  MOL     H95    95   0.1150000    1.0080
   96        HC    1  MOL     H96    96   0.0600000    1.0080
   97        HC    1  MOL     H97    97   0.0600000    1.0080
   98        CT    1  MOL     C98    98   0.0550000   12.0115
   99        CA    1  MOL     C99    99  -0.1150000   12.0115
  100        CA    1  MOL    C100   100  -0.1150000   12.0115
  101        CA    1  MOL    C101   101  -0.1150000   12.0115
  102        CA    1  MOL    C102   102   0.1800000   12.0115
  103        Cl    1  MOL   Cl103   103  -0.1800000   35.0650
  104        CA    1  MOL    C104   104  -0.1150000   12.0115
  105        CA    1  MOL    C105   105  -0.1150000   12.0115
  106        CT    1  MOL    C106   106  -0.1200000   12.0115
  107        HC    1  MOL    H107   107   0.0600000    1.0080
  108        HA    1  MOL    H108   108   0.1150000    1.0080
  109        HA    1  MOL    H109   109   0.1150000    1.0080
  110        HA    1  MOL    H110   110   0.1150000    1.0080
  111        HA    1  MOL    H111   111   0.1150000    1.0080
  112        HC    1  MOL    H112   112   0.0600000    1.0080
  113        HC    1  MOL    H113   113   0.0600000    1.0080
  114        CT    1  MOL    C114   114   0.0550000   12.0115
  115        CA    1  MOL    C115   115  -0.1150000   12.0115
  116        CA    1  MOL    C116   116  -0.1150000   12.0115
  117        CA    1  MOL    C117   117  -0.1150000   12.0115
  118        CA    1  MOL    C118   118   0.1800000   12.0115
  119        Cl    1  MOL   Cl119   119  -0.1800000   35.0650
  120        CA    1  MOL    C120   120  -0.1150000   12.0115
  121        CA    1  MOL    C121   121  -0.1150000   12.0115
  122        CT    1  MOL    C122   122  -0.1200000   12.0115
  123        HC    1  MOL    H123   123   0.0600000    1.0080
  124        HA    1  MOL    H124   124   0.1150000    1.0080
  125        HA    1  MOL    H125   125   0.1150000    1.0080
  126        HA    1  MOL    H126   126   0.1150000    1.0080
  127        HA    1  MOL    H127   127   0.1150000    1.0080
  128        HC    1  MOL    H128   128   0.0600000    1.0080
  129        HC    1  MOL    H129   129   0.0600000    1.0080
  130        CT    1  MOL    C130   130   0.0550000   12.0115
  131        CA    1  MOL    C131   131  -0.1150000   12.0115
  132        CA    1  MOL    C132   132  -0.1150000   12.0115
  133        CA    1  MOL    C133   133  -0.1150000   12.0115
  134        CA    1  MOL    C134   134   0.1800000   12.0115
  135        Cl    1  MOL   Cl135   135  -0.1800000   35.0650
  136        CA    1  MOL    C136   136  -0.1150000   12.0115
  137        CA    1  MOL    C137   137  -0.1150000   12.0115
  138        CT    1  MOL    C138   138  -0.1200000   12.0115
  139        HC    1  MOL    H139   139   0.0600000    1.0080
  140        HA    1  MOL    H140   140   0.1150000    1.0080
  141        HA    1  MOL    H141   141   0.1150000    1.0080
  142        HA    1  MOL    H142   142   0.1150000    1.0080
  143        HA    1  MOL    H143   143   0.1150000    1.0080
  144        HC    1  MOL    H144   144   0.0600000    1.0080
  145        HC    1  MOL    H145   145   0.0600000    1.0080
  146        CT    1  MOL    C146   146   0.0550000   12.0115
  147        CA    1  MOL    C147   147  -0.1150000   12.0115
  148        CA    1  MOL    C148   148  -0.1150000   12.0115
  149        CA    1  MOL    C149   149  -0.1150000   12.0115
  150        CA    1  MOL    C150   150   0.1800000   12.0115
  151        Cl    1  MOL   Cl151   151  -0.1800000   35.0650
  152        CA    1  MOL    C152   152  -0.1150000   12.0115
  153        CA    1  MOL    C153   153  -0.1150000   12.0115
  154        CT    1  MOL    C154   154  -0.1200000   12.0115
  155        HC    1  MOL    H155   155   0.0600000    1.0080
  156        HA    1  MOL    H156   156   0.1150000    1.0080
  157        HA    1  MOL    H157   157   0.1150000    1.0080
  158        HA    1  MOL    H158   158   0.1150000    1.0080
  159        HA    1  MOL    H159   159   0.1150000    1.0080
  160        HC    1  MOL    H160   160   0.0600000    1.0080
  161        HC    1  MOL    H161   161   0.0600000    1.0080
  162        CT    1  MOL    C162   162   0.0550000   12.0115
  163        CA    1  MOL    C163   163  -0.1150000   12.0115
  164        CA    1  MOL    C164   164  -0.1150000   12.0115
  165        CA    1  MOL    C165   165  -0.1150000   12.0115
  166        CA    1  MOL    C166   166   0.1800000   12.0115
  167        Cl    1  MOL   Cl167   167  -0.1800000   35.0650
  168        CA    1  MOL    C168   168  -0.1150000   12.0115
  169        CA    1  MOL    C169   169  -0.1150000   12.0115
  170        CT    1  MOL    C170   170  -0.1200000   12.0115
  171        HC    1  MOL    H171   171   0.0600000    1.0080
  172        HA    1  MOL    H172   172   0.1150000    1.0080
  173        HA    1  MOL    H173   173   0.1150000    1.0080
  174        HA    1  MOL    H174   174   0.1150000    1.0080
  175        HA    1  MOL    H175   175   0.1150000    1.0080
  176        HC    1  MOL    H176   176   0.0600000    1.0080
  177        HC    1  MOL    H177   177   0.0600000    1.0080
  178        CT    1  MOL    C178   178   0.0550000   12.0115
  179        CA    1  MOL    C179   179  -0.1150000   12.0115
  180        CA    1  MOL    C180   180  -0.1150000   12.0115
  181        CA    1  MOL    C181   181  -0.1150000   12.0115
  182        CA    1  MOL    C182   182   0.1800000   12.0115
  183        Cl    1  MOL   Cl183   183  -0.1800000   35.0650
  184        CA    1  MOL    C184   184  -0.1150000   12.0115
  185        CA    1  MOL    C185   185  -0.1150000   12.0115
  186        CT    1  MOL    C186   186  -0.1200000   12.0115
  187        HC    1  MOL    H187   187   0.0600000    1.0080
  188        HA    1  MOL    H188   188   0.1150000    1.0080
  189        HA    1  MOL    H189   189   0.1150000    1.0080
  190        HA    1  MOL    H190   190   0.1150000    1.0080
  191        HA    1  MOL    H191   191   0.1150000    1.0080
  192        HC    1  MOL    H192   192   0.0600000    1.0080
  193        HC    1  MOL    H193   193   0.0600000    1.0080
  194        CT    1  MOL    C194   194   0.0550000   12.0115
  195        CA    1  MOL    C195   195  -0.1150000   12.0115
  196        CA    1  MOL    C196   196  -0.1150000   12.0115
  197        CA    1  MOL    C197   197  -0.1150000   12.0115
  198        CA    1  MOL    C198   198   0.1800000   12.0115
  199        Cl    1  MOL   Cl199   199  -0.1800000   35.0650
  200        CA    1  MOL    C200   200  -0.1150000   12.0115
  201        CA    1  MOL    C201   201  -0.1150000   12.0115
  202        CT    1  MOL    C202   202  -0.1200000   12.0115
  203        HC    1  MOL    H203   203   0.0600000    1.0080
  204        HA    1  MOL    H204   204   0.1150000    1.0080
  205        HA    1  MOL    H205   205   0.1150000    1.0080
  206        HA    1  MOL    H206   206   0.1150000    1.0080
  207        HA    1  MOL    H207   207   0.1150000    1.0080
  208        HC    1  MOL    H208   208   0.0600000    1.0080
  209        HC    1  MOL    H209   209   0.0600000    1.0080
  210        CT    1  MOL    C210   210   0.0550000   12.0115
  211        CA    1  MOL    C211   211  -0.1150000   12.0115
  212        CA    1  MOL    C212   212  -0.1150000   12.0115
  213        CA    1  MOL    C213   213  -0.1150000   12.0115
  214        CA    1  MOL    C214   214   0.1800000   12.0115
  215        Cl    1  MOL   Cl215   215  -0.1800000   35.0650
  216        CA    1  MOL    C216   216  -0.1150000   12.0115
  217        CA    1  MOL    C217   217  -0.1150000   12.0115
  218        CT    1  MOL    C218   218  -0.1200000   12.0115
  219        HC    1  MOL    H219   219   0.0600000    1.0080
  220        HA    1  MOL    H220   220   0.1150000    1.0080
  221        HA    1  MOL    H221   221   0.1150000    1.0080
  222        HA    1  MOL    H222   222   0.1150000    1.0080
  223        HA    1  MOL    H223   223   0.1150000    1.0080
  224        HC    1  MOL    H224   224   0.0600000    1.0080
  225        HC    1  MOL    H225   225   0.0600000    1.0080
  226        CT    1  MOL    C226   226   0.0550000   12.0115
  227        CA    1  MOL    C227   227  -0.1150000   12.0115
  228        CA    1  MOL    C228   228  -0.1150000   12.0115
  229        CA    1  MOL    C229   229  -0.1150000   12.0115
  230        CA    1  MOL    C230   230   0.1800000   12.0115
  231        Cl    1  MOL   Cl231   231  -0.1800000   35.0650
  232        CA    1  MOL    C232   232  -0.1150000   12.0115
  233        CA    1  MOL    C233   233  -0.1150000   12.0115
  234        CT    1  MOL    C234   234  -0.1200000   12.0115
  235        HC    1  MOL    H235   235   0.0600000    1.0080
  236        HA    1  MOL    H236   236   0.1150000    1.0080
  237        HA    1  MOL    H237   237   0.1150000    1.0080
  238        HA    1  MOL    H238   238   0.1150000    1.0080
  239        HA    1  MOL    H239   239   0.1150000    1.0080
  240        HC    1  MOL    H240   240   0.0600000    1.0080
  241        HC    1  MOL    H241   241   0.0600000    1.0080
  242        CT    1  MOL    C242   242   0.0550000   12.0115
  243        CA    1  MOL    C243   243  -0.1150000   12.0115
  244        CA    1  MOL    C244   244  -0.1150000   12.0115
  245        CA    1  MOL    C245   245  -0.1150000   12.0115
  246        CA    1  MOL    C246   246   0.1800000   12.0115
  247        Cl    1  MOL   Cl247   247  -0.1800000   35.0650
  248        CA    1  MOL    C248   248  -0.1150000   12.0115
  249        CA    1  MOL    C249   249  -0.1150000   12.0115
  250        CT    1  MOL    C250   250  -0.1200000   12.0115
  251        HC    1  MOL    H251   251   0.0600000    1.0080
  252        HA    1  MOL    H252   252   0.1150000    1.0080
  253        HA    1  MOL    H253   253   0.1150000    1.0080
  254        HA    1  MOL    H254   254   0.1150000    1.0080
  255        HA    1  MOL    H255   255   0.1150000    1.0080
  256        HC    1  MOL    H256   256   0.0600000    1.0080
  257        HC    1  MOL    H257   257   0.0600000    1.0080
  258        CT    1  MOL    C258   258   0.0550000   12.0115
  259        CA    1  MOL    C259   259  -0.1150000   12.0115
  260        CA    1  MOL    C260   260  -0.1150000   12.0115
  261        CA    1  MOL    C261   261  -0.1150000   12.0115
  262        CA    1  MOL    C262   262   0.1800000   12.0115
  263        Cl    1  MOL   Cl263   263  -0.1800000   35.0650
  264        CA    1  MOL    C264   264  -0.1150000   12.0115
  265        CA    1  MOL    C265   265  -0.1150000   12.0115
  266        CT    1  MOL    C266   266  -0.1200000   12.0115
  267        HC    1  MOL    H267   267   0.0600000    1.0080
  268        HA    1  MOL    H268   268   0.1150000    1.0080
  269        HA    1  MOL    H269   269   0.1150000    1.0080
  270        HA    1  MOL    H270   270   0.1150000    1.0080
  271        HA    1  MOL    H271   271   0.1150000    1.0080
  272        HC    1  MOL    H272   272   0.0600000    1.0080
  273        HC    1  MOL    H273   273   0.0600000    1.0080
  274        CT    1  MOL    C274   274   0.0550000   12.0115
  275        CA    1  MOL    C275   275  -0.1150000   12.0115
  276        CA    1  MOL    C276   276  -0.1150000   12.0115
  277        CA    1  MOL    C277   277  -0.1150000   12.0115
  278        CA    1  MOL    C278   278   0.1800000   12.0115
  279        Cl    1  MOL   Cl279   279  -0.1800000   35.0650
  280        CA    1  MOL    C280   280  -0.1150000   12.0115
  281        CA    1  MOL    C281   281  -0.1150000   12.0115
  282        CT    1  MOL    C282   282  -0.1200000   12.0115
  283        HC    1  MOL    H283   283   0.0600000    1.0080
  284        HA    1  MOL    H284   284   0.1150000    1.0080
  285        HA    1  MOL    H285   285   0.1150000    1.0080
  286        HA    1  MOL    H286   286   0.1150000    1.0080
  287        HA    1  MOL    H287   287   0.1150000    1.0080
  288        HC    1  MOL    H288   288   0.0600000    1.0080
  289        HC    1  MOL    H289   289   0.0600000    1.0080
  290        CT    1  MOL    C290   290   0.0550000   12.0115
  291        CA    1  MOL    C291   291  -0.1150000   12.0115
  292        CA    1  MOL    C292   292  -0.1150000   12.0115
  293        CA    1  MOL    C293   293  -0.1150000   12.0115
  294        CA    1  MOL    C294   294   0.1800000   12.0115
  295        Cl    1  MOL   Cl295   295  -0.1800000   35.0650
  296        CA    1  MOL    C296   296  -0.1150000   12.0115
  297        CA    1  MOL    C297   297  -0.1150000   12.0115
  298        CT    1  MOL    C298   298  -0.1200000   12.0115
  299        HC    1  MOL    H299   299   0.0600000    1.0080
  300        HA    1  MOL    H300   300   0.1150000    1.0080
  301        HA    1  MOL    H301   301   0.1150000    1.0080
  302        HA    1  MOL    H302   302   0.1150000    1.0080
  303        HA    1  MOL    H303   303   0.1150000    1.0080
  304        HC    1  MOL    H304   304   0.0600000    1.0080
  305        HC    1  MOL    H305   305   0.0600000    1.0080
  306        CT    1  MOL    C306   306   0.0550000   12.0115
  307        CA    1  MOL    C307   307  -0.1150000   12.0115
  308        CA    1  MOL    C308   308  -0.1150000   12.0115
  309        CA    1  MOL    C309   309  -0.1150000   12.0115
  310        CA    1  MOL    C310   310   0.1800000   12.0115
  311        Cl    1  MOL   Cl311   311  -0.1800000   35.0650
  312        CA    1  MOL    C312   312  -0.1150000   12.0115
  313        CA    1  MOL    C313   313  -0.1150000   12.0115
  314        CT    1  MOL    C314   314  -0.1800000   12.0115
  315        HC    1  MOL    H315   315   0.0600000    1.0080
  316        HA    1  MOL    H316   316   0.1150000    1.0080
  317        HA    1  MOL    H317   317   0.1150000    1.0080
  318        HA    1  MOL    H318   318   0.1150000    1.0080
  319        HA    1  MOL    H319   319   0.1150000    1.0080
  320        HC    1  MOL    H320   320   0.0600000    1.0080
  321        HC    1  MOL    H321   321   0.0600000    1.0080
  322        HC    1  MOL    H322   322   0.0600000    1.0080

[ bonds ]
      1      2   1      0.1510 265265.6000
      1      9   1      0.1529 224262.4000
      1     10   1      0.1090 284512.0000
      1     17   1      0.1090 284512.0000
      2      3   1      0.1400 392459.2000
      2      8   1      0.1400 392459.2000
      3      4   1      0.1400 392459.2000
      3     11   1      0.1080 307105.6000
      4      5   1      0.1400 392459.2000
      4     12   1      0.1080 307105.6000
      5      6   1      0.1725 251040.0000
      5      7   1      0.1400 392459.2000
      7      8   1      0.1400 392459.2000
      7     13   1      0.1080 307105.6000
      8     14   1      0.1080 307105.6000
      9     15   1      0.1090 284512.0000
      9     16   1      0.1090 284512.0000
      9     18   1      0.1529 224262.4000
     18     19   1      0.1510 265265.6000
     18     26   1      0.1529 224262.4000
     18     27   1      0.1090 284512.0000
     19     20   1      0.1400 392459.2000
     19     25   1      0.1400 392459.2000
     20     21   1      0.1400 392459.2000
     20     28   1      0.1080 307105.6000
     21     22   1      0.1400 392459.2000
     21     29   1      0.1080 307105.6000
     22     23   1      0.1725 251040.0000
     22     24   1      0.1400 392459.2000
     24     25   1      0.1400 392459.2000
     24     30   1      0.1080 307105.6000
     25     31   1      0.1080 307105.6000
     26     32   1      0.1090 284512.0000
     26     33   1      0.1090 284512.0000
     26     34   1      0.1529 224262.4000
     34     35   1      0.1510 265265.6000
     34     42   1      0.1529 224262.4000
     34     43   1      0.1090 284512.0000
     35     36   1      0.1400 392459.2000
     35     41   1      0.1400 392459.2000
     36     37   1      0.1400 392459.2000
     36     44   1      0.1080 307105.6000
     37     38   1      0.1400 392459.2000
     37     45   1      0.1080 307105.6000
     38     39   1      0.1725 251040.0000
     38     40   1      0.1400 392459.2000
     40     41   1      0.1400 392459.2000
     40     46   1      0.1080 307105.6000
     41     47   1      0.1080 307105.6000
     42     48   1      0.1090 284512.0000
     42     49   1      0.1090 284512.0000
     42     50   1      0.1529 224262.4000
     50     51   1      0.1510 265265.6000
     50     58   1      0.1529 224262.4000
     50     59   1      0.1090 284512.0000
     51     52   1      0.1400 392459.2000
     51     57   1      0.1400 392459.2000
     52     53   1      0.1400 392459.2000
     52     60   1      0.1080 307105.6000
     53     54   1      0.1400 392459.2000
     53     61   1      0.1080 307105.6000
     54     55   1      0.1725 251040.0000
     54     56   1      0.1400 392459.2000
     56     57   1      0.1400 392459.2000
     56     62   1      0.1080 307105.6000
     57     63   1      0.1080 307105.6000
     58     64   1      0.1090 284512.0000
     58     65   1      0.1090 284512.0000
     58     66   1      0.1529 224262.4000
     66     67   1      0.1510 265265.6000
     66     74   1      0.1529 224262.4000
     66     75   1      0.1090 284512.0000
     67     68   1      0.1400 392459.2000
     67     73   1      0.1400 392459.2000
     68     69   1      0.1400 392459.2000
     68     76   1      0.1080 307105.6000
     69     70   1      0.1400 392459.2000
     69     77   1      0.1080 307105.6000
     70     71   1      0.1725 251040.0000
     70     72   1      0.1400 392459.2000
     72     73   1      0.1400 392459.2000
     72     78   1      0.1080 307105.6000
     73     79   1      0.1080 307105.6000
     74     80   1      0.1090 284512.0000
     74     81   1      0.1090 284512.0000
     74     82   1      0.1529 224262.4000
     82     83   1      0.1510 265265.6000
     82     90   1      0.1529 224262.4000
     82     91   1      0.1090 284512.0000
     83     84   1      0.1400 392459.2000
     83     89   1      0.1400 392459.2000
     84     85   1      0.1400 392459.2000
     84     92   1      0.1080 307105.6000
     85     86   1      0.1400 392459.2000
     85     93   1      0.1080 307105.6000
     86     87   1      0.1725 251040.0000
     86     88   1      0.1400 392459.2000
     88     89   1      0.1400 392459.2000
     88     94   1      0.1080 307105.6000
     89     95   1      0.1080 307105.6000
     90     96   1      0.1090 284512.0000
     90     97   1      0.1090 284512.0000
     90     98   1      0.1529 224262.4000
     98     99   1      0.1510 265265.6000
     98    106   1      0.1529 224262.4000
     98    107   1      0.1090 284512.0000
     99    100   1      0.1400 392459.2000
     99    105   1      0.1400 392459.2000
    100    101   1      0.1400 392459.2000
    100    108   1      0.1080 307105.6000
    101    102   1      0.1400 392459.2000
    101    109   1      0.1080 307105.6000
    102    103   1      0.1725 251040.0000
    102    104   1      0.1400 392459.2000
    104    105   1      0.1400 392459.2000
    104    110   1      0.1080 307105.6000
    105    111   1      0.1080 307105.6000
    106    112   1      0.1090 284512.0000
    106    113   1      0.1090 284512.0000
    106    114   1      0.1529 224262.4000
    114    115   1      0.1510 265265.6000
    114    122   1      0.1529 224262.4000
    114    123   1      0.1090 284512.0000
    115    116   1      0.1400 392459.2000
    115    121   1      0.1400 392459.2000
    116    117   1      0.1400 392459.2000
    116    124   1      0.1080 307105.6000
    117    118   1      0.1400 392459.2000
    117    125   1      0.1080 307105.6000
    118    119   1      0.1725 251040.0000
    118    120   1      0.1400 392459.2000
    120    121   1      0.1400 392459.2000
    120    126   1      0.1080 307105.6000
    121    127   1      0.1080 307105.6000
    122    128   1      0.1090 284512.0000
    122    129   1      0.1090 284512.0000
    122    130   1      0.1529 224262.4000
    130    131   1      0.1510 265265.6000
    130    138   1      0.1529 224262.4000
    130    139   1      0.1090 284512.0000
    131    132   1      0.1400 392459.2000
    131    137   1      0.1400 392459.2000
    132    133   1      0.1400 392459.2000
    132    140   1      0.1080 307105.6000
    133    134   1      0.1400 392459.2000
    133    141   1      0.1080 307105.6000
    134    135   1      0.1725 251040.0000
    134    136   1      0.1400 392459.2000
    136    137   1      0.1400 392459.2000
    136    142   1      0.1080 307105.6000
    137    143   1      0.1080 307105.6000
    138    144   1      0.1090 284512.0000
    138    145   1      0.1090 284512.0000
    138    146   1      0.1529 224262.4000
    146    147   1      0.1510 265265.6000
    146    154   1      0.1529 224262.4000
    146    155   1      0.1090 284512.0000
    147    148   1      0.1400 392459.2000
    147    153   1      0.1400 392459.2000
    148    149   1      0.1400 392459.2000
    148    156   1      0.1080 307105.6000
    149    150   1      0.1400 392459.2000
    149    157   1      0.1080 307105.6000
    150    151   1      0.1725 251040.0000
    150    152   1      0.1400 392459.2000
    152    153   1      0.1400 392459.2000
    152    158   1      0.1080 307105.6000
    153    159   1      0.1080 307105.6000
    154    160   1      0.1090 284512.0000
    154    161   1      0.1090 284512.0000
    154    162   1      0.1529 224262.4000
    162    163   1      0.1510 265265.6000
    162    170   1      0.1529 224262.4000
    162    171   1      0.1090 284512.0000
    163    164   1      0.1400 392459.2000
    163    169   1      0.1400 392459.2000
    164    165   1      0.1400 392459.2000
    164    172   1      0.1080 307105.6000
    165    166   1      0.1400 392459.2000
    165    173   1      0.1080 307105.6000
    166    167   1      0.1725 251040.0000
    166    168   1      0.1400 392459.2000
    168    169   1      0.1400 392459.2000
    168    174   1      0.1080 307105.6000
    169    175   1      0.1080 307105.6000
    170    176   1      0.1090 284512.0000
    170    177   1      0.1090 284512.0000
    170    178   1      0.1529 224262.4000
    178    179   1      0.1510 265265.6000
    178    186   1      0.1529 224262.4000
    178    187   1      0.1090 284512.0000
    179    180   1      0.1400 392459.2000
    179    185   1      0.1400 392459.2000
    180    181   1      0.1400 392459.2000
    180    188   1      0.1080 307105.6000
    181    182   1      0.1400 392459.2000
    181    189   1      0.1080 307105.6000
    182    183   1      0.1725 251040.0000
    182    184   1      0.1400 392459.2000
    184    185   1      0.1400 392459.2000
    184    190   1      0.1080 307105.6000
    185    191   1      0.1080 307105.6000
    186    192   1      0.1090 284512.0000
    186    193   1      0.1090 284512.0000
    186    194   1      0.1529 224262.4000
    194    195   1      0.1510 265265.6000
    194    202   1      0.1529 224262.4000
    194    203   1      0.1090 284512.0000
    195    196   1      0.1400 392459.2000
    195    201   1      0.1400 392459.2000
    196    197   1      0.1400 392459.2000
    196    204   1      0.1080 307105.6000
    197    198   1      0.1400 392459.2000
    197    205   1      0.1080 307105.6000
    198    199   1      0.1725 251040.0000
    198    200   1      0.1400 392459.2000
    200    201   1      0.1400 392459.2000
    200    206   1      0.1080 307105.6000
    201    207   1      0.1080 307105.6000
    202    208   1      0.1090 284512.0000
    202    209   1      0.1090 284512.0000
    202    210   1      0.1529 224262.4000
    210    211   1      0.1510 265265.6000
    210    218   1      0.1529 224262.4000
    210    219   1      0.1090 284512.0000
    211    212   1      0.1400 392459.2000
    211    217   1      0.1400 392459.2000
    212    213   1      0.1400 392459.2000
    212    220   1      0.1080 307105.6000
    213    214   1      0.1400 392459.2000
    213    221   1      0.1080 307105.6000
    214    215   1      0.1725 251040.0000
    214    216   1      0.1400 392459.2000
    216    217   1      0.1400 392459.2000
    216    222   1      0.1080 307105.6000
    217    223   1      0.1080 307105.6000
    218    224   1      0.1090 284512.0000
    218    225   1      0.1090 284512.0000
    218    226   1      0.1529 224262.4000
    226    227   1      0.1510 265265.6000
    226    234   1      0.1529 224262.4000
    226    235   1      0.1090 284512.0000
    227    228   1      0.1400 392459.2000
    227    233   1      0.1400 392459.2000
    228    229   1      0.1400 392459.2000
    228    236   1      0.1080 307105.6000
    229    230   1      0.1400 392459.2000
    229    237   1      0.1080 307105.6000
    230    231   1      0.1725 251040.0000
    230    232   1      0.1400 392459.2000
    232    233   1      0.1400 392459.2000
    232    238   1      0.1080 307105.6000
    233    239   1      0.1080 307105.6000
    234    240   1      0.1090 284512.0000
    234    241   1      0.1090 284512.0000
    234    242   1      0.1529 224262.4000
    242    243   1      0.1510 265265.6000
    242    250   1      0.1529 224262.4000
    242    251   1      0.1090 284512.0000
    243    244   1      0.1400 392459.2000
    243    249   1      0.1400 392459.2000
    244    245   1      0.1400 392459.2000
    244    252   1      0.1080 307105.6000
    245    246   1      0.1400 392459.2000
    245    253   1      0.1080 307105.6000
    246    247   1      0.1725 251040.0000
    246    248   1      0.1400 392459.2000
    248    249   1      0.1400 392459.2000
    248    254   1      0.1080 307105.6000
    249    255   1      0.1080 307105.6000
    250    256   1      0.1090 284512.0000
    250    257   1      0.1090 284512.0000
    250    258   1      0.1529 224262.4000
    258    259   1      0.1510 265265.6000
    258    266   1      0.1529 224262.4000
    258    267   1      0.1090 284512.0000
    259    260   1      0.1400 392459.2000
    259    265   1      0.1400 392459.2000
    260    261   1      0.1400 392459.2000
    260    268   1      0.1080 307105.6000
    261    262   1      0.1400 392459.2000
    261    269   1      0.1080 307105.6000
    262    263   1      0.1725 251040.0000
    262    264   1      0.1400 392459.2000
    264    265   1      0.1400 392459.2000
    264    270   1      0.1080 307105.6000
    265    271   1      0.1080 307105.6000
    266    272   1      0.1090 284512.0000
    266    273   1      0.1090 284512.0000
    266    274   1      0.1529 224262.4000
    274    275   1      0.1510 265265.6000
    274    282   1      0.1529 224262.4000
    274    283   1      0.1090 284512.0000
    275    276   1      0.1400 392459.2000
    275    281   1      0.1400 392459.2000
    276    277   1      0.1400 392459.2000
    276    284   1      0.1080 307105.6000
    277    278   1      0.1400 392459.2000
    277    285   1      0.1080 307105.6000
    278    279   1      0.1725 251040.0000
    278    280   1      0.1400 392459.2000
    280    281   1      0.1400 392459.2000
    280    286   1      0.1080 307105.6000
    281    287   1      0.1080 307105.6000
    282    288   1      0.1090 284512.0000
    282    289   1      0.1090 284512.0000
    282    290   1      0.1529 224262.4000
    290    291   1      0.1510 265265.6000
    290    298   1      0.1529 224262.4000
    290    299   1      0.1090 284512.0000
    291    292   1      0.1400 392459.2000
    291    297   1      0.1400 392459.2000
    292    293   1      0.1400 392459.2000
    292    300   1      0.1080 307105.6000
    293    294   1      0.1400 392459.2000
    293    301   1      0.1080 307105.6000
    294    295   1      0.1725 251040.0000
    294    296   1      0.1400 392459.2000
    296    297   1      0.1400 392459.2000
    296    302   1      0.1080 307105.6000
    297    303   1      0.1080 307105.6000
    298    304   1      0.1090 284512.0000
    298    305   1      0.1090 284512.0000
    298    306   1      0.1529 224262.4000
    306    307   1      0.1510 265265.6000
    306    314   1      0.1529 224262.4000
    306    315   1      0.1090 284512.0000
    307    308   1      0.1400 392459.2000
    307    313   1      0.1400 392459.2000
    308    309   1      0.1400 392459.2000
    308    316   1      0.1080 307105.6000
    309    310   1      0.1400 392459.2000
    309    317   1      0.1080 307105.6000
    310    311   1      0.1725 251040.0000
    310    312   1      0.1400 392459.2000
    312    313   1      0.1400 392459.2000
    312    318   1      0.1080 307105.6000
    313    319   1      0.1080 307105.6000
    314    320   1      0.1090 284512.0000
    314    321   1      0.1090 284512.0000
    314    322   1      0.1090 284512.0000

[ pairs ]
; ai   aj   funct   fudge_QQ  charge_i   charge_j   c6    c12
      9      3   2   0.50000    -0.1200000   -0.1150000   1.091018e-03  2.092768e-06
      9      8   2   0.50000    -0.1200000   -0.1150000   1.091018e-03  2.092768e-06
     10      3   2   0.50000     0.0600000   -0.1150000   2.680627e-04  1.873879e-07
     10      8   2   0.50000     0.0600000   -0.1150000   2.680627e-04  1.873879e-07
     17      3   2   0.50000     0.0600000   -0.1150000   2.680627e-04  1.873879e-07
     17      8   2   0.50000     0.0600000   -0.1150000   2.680627e-04  1.873879e-07
      2     15   2   0.50000    -0.1150000    0.0600000   2.680627e-04  1.873879e-07
      2     16   2   0.50000    -0.1150000    0.0600000   2.680627e-04  1.873879e-07
      2     18   2   0.50000    -0.1150000    0.0550000   1.091018e-03  2.092768e-06
     10     15   2   0.50000     0.0600000    0.0600000   6.128906e-05  1.496315e-08
     10     16   2   0.50000     0.0600000    0.0600000   6.128906e-05  1.496315e-08
     10     18   2   0.50000     0.0600000    0.0550000   2.494471e-04  1.671101e-07
     17     15   2   0.50000     0.0600000    0.0600000   6.128906e-05  1.496315e-08
     17     16   2   0.50000     0.0600000    0.0600000   6.128906e-05  1.496315e-08
     17     18   2   0.50000     0.0600000    0.0550000   2.494471e-04  1.671101e-07
      1      4   2   0.50000    -0.0050000   -0.1150000   1.091018e-03  2.092768e-06
      1     11   2   0.50000    -0.0050000    0.1150000   2.262583e-04  1.374848e-07
      8      4   2   0.50000    -0.1150000   -0.1150000   1.172438e-03  2.346713e-06
      8     11   2   0.50000    -0.1150000    0.1150000   2.431434e-04  1.541678e-07
      1      7   2   0.50000    -0.0050000   -0.1150000   1.091018e-03  2.092768e-06
      1     14   2   0.50000    -0.0050000    0.1150000   2.262583e-04  1.374848e-07
      3      7   2   0.50000    -0.1150000   -0.1150000   1.172438e-03  2.346713e-06
      3     14   2   0.50000    -0.1150000    0.1150000   2.431434e-04  1.541678e-07
      2      5   2   0.50000    -0.1150000    0.1800000   1.172438e-03  2.346713e-06
      2     12   2   0.50000    -0.1150000    0.1150000   2.431434e-04  1.541678e-07
     11      5   2   0.50000     0.1150000    0.1800000   2.431434e-04  1.541678e-07
     11     12   2   0.50000     0.1150000    0.1150000   5.042375e-05  1.012808e-08
      3      6   2   0.50000    -0.1150000   -0.1800000   2.132324e-03  3.749514e-06
     12      6   2   0.50000     0.1150000   -0.1800000   4.422072e-04  2.463251e-07
     12      7   2   0.50000     0.1150000   -0.1150000   2.431434e-04  1.541678e-07
      4     13   2   0.50000    -0.1150000    0.1150000   2.431434e-04  1.541678e-07
      6      8   2   0.50000    -0.1800000   -0.1150000   2.132324e-03  3.749514e-06
      6     13   2   0.50000    -0.1800000    0.1150000   4.422072e-04  2.463251e-07
      5     14   2   0.50000     0.1800000    0.1150000   2.431434e-04  1.541678e-07
     13      2   2   0.50000     0.1150000   -0.1150000   2.431434e-04  1.541678e-07
     13     14   2   0.50000     0.1150000    0.1150000   5.042375e-05  1.012808e-08
      1     19   2   0.50000    -0.0050000   -0.1150000   1.091018e-03  2.092768e-06
      1     26   2   0.50000    -0.0050000   -0.1200000   1.015252e-03  1.866303e-06
      1     27   2   0.50000    -0.0050000    0.0600000   2.494471e-04  1.671101e-07
     15     19   2   0.50000     0.0600000   -0.1150000   2.680627e-04  1.873879e-07
     15     26   2   0.50000     0.0600000   -0.1200000   2.494471e-04  1.671101e-07
     15     27   2   0.50000     0.0600000    0.0600000   6.128906e-05  1.496315e-08
     16     19   2   0.50000     0.0600000   -0.1150000   2.680627e-04  1.873879e-07
     16     26   2   0.50000     0.0600000   -0.1200000   2.494471e-04  1.671101e-07
     16     27   2   0.50000     0.0600000    0.0600000   6.128906e-05  1.496315e-08
      9     20   2   0.50000    -0.1200000   -0.1150000   1.091018e-03  2.092768e-06
      9     25   2   0.50000    -0.1200000   -0.1150000   1.091018e-03  2.092768e-06
     26     20   2   0.50000    -0.1200000   -0.1150000   1.091018e-03  2.092768e-06
     26     25   2   0.50000    -0.1200000   -0.1150000   1.091018e-03  2.092768e-06
     27     20   2   0.50000     0.0600000   -0.1150000   2.680627e-04  1.873879e-07
     27     25   2   0.50000     0.0600000   -0.1150000   2.680627e-04  1.873879e-07
      9     32   2   0.50000    -0.1200000    0.0600000   2.494471e-04  1.671101e-07
      9     33   2   0.50000    -0.1200000    0.0600000   2.494471e-04  1.671101e-07
      9     34   2   0.50000    -0.1200000    0.0550000   1.015252e-03  1.866303e-06
     19     32   2   0.50000    -0.1150000    0.0600000   2.680627e-04  1.873879e-07
     19     33   2   0.50000    -0.1150000    0.0600000   2.680627e-04  1.873879e-07
     19     34   2   0.50000    -0.1150000    0.0550000   1.091018e-03  2.092768e-06
     27     32   2   0.50000     0.0600000    0.0600000   6.128906e-05  1.496315e-08
     27     33   2   0.50000     0.0600000    0.0600000   6.128906e-05  1.496315e-08
     27     34   2   0.50000     0.0600000    0.0550000   2.494471e-04  1.671101e-07
     18     21   2   0.50000     0.0550000   -0.1150000   1.091018e-03  2.092768e-06
     18     28   2   0.50000     0.0550000    0.1150000   2.262583e-04  1.374848e-07
     25     21   2   0.50000    -0.1150000   -0.1150000   1.172438e-03  2.346713e-06
     25     28   2   0.50000    -0.1150000    0.1150000   2.431434e-04  1.541678e-07
     18     24   2   0.50000     0.0550000   -0.1150000   1.091018e-03  2.092768e-06
     18     31   2   0.50000     0.0550000    0.1150000   2.262583e-04  1.374848e-07
     20     24   2   0.50000    -0.1150000   -0.1150000   1.172438e-03  2.346713e-06
     20     31   2   0.50000    -0.1150000    0.1150000   2.431434e-04  1.541678e-07
     19     22   2   0.50000    -0.1150000    0.1800000   1.172438e-03  2.346713e-06
     19     29   2   0.50000    -0.1150000    0.1150000   2.431434e-04  1.541678e-07
     28     22   2   0.50000     0.1150000    0.1800000   2.431434e-04  1.541678e-07
     28     29   2   0.50000     0.1150000    0.1150000   5.042375e-05  1.012808e-08
     20     23   2   0.50000    -0.1150000   -0.1800000   2.132324e-03  3.749514e-06
     29     23   2   0.50000     0.1150000   -0.1800000   4.422072e-04  2.463251e-07
     29     24   2   0.50000     0.1150000   -0.1150000   2.431434e-04  1.541678e-07
     21     30   2   0.50000    -0.1150000    0.1150000   2.431434e-04  1.541678e-07
     23     25   2   0.50000    -0.1800000   -0.1150000   2.132324e-03  3.749514e-06
     23     30   2   0.50000    -0.1800000    0.1150000   4.422072e-04  2.463251e-07
     22     31   2   0.50000     0.1800000    0.1150000   2.431434e-04  1.541678e-07
     30     19   2   0.50000     0.1150000   -0.1150000   2.431434e-04  1.541678e-07
     30     31   2   0.50000     0.1150000    0.1150000   5.042375e-05  1.012808e-08
     18     35   2   0.50000     0.0550000   -0.1150000   1.091018e-03  2.092768e-06
     18     42   2   0.50000     0.0550000   -0.1200000   1.015252e-03  1.866303e-06
     18     43   2   0.50000     0.0550000    0.0600000   2.494471e-04  1.671101e-07
     32     35   2   0.50000     0.0600000   -0.1150000   2.680627e-04  1.873879e-07
     32     42   2   0.50000     0.0600000   -0.1200000   2.494471e-04  1.671101e-07
     32     43   2   0.50000     0.0600000    0.0600000   6.128906e-05  1.496315e-08
     33     35   2   0.50000     0.0600000   -0.1150000   2.680627e-04  1.873879e-07
     33     42   2   0.50000     0.0600000   -0.1200000   2.494471e-04  1.671101e-07
     33     43   2   0.50000     0.0600000    0.0600000   6.128906e-05  1.496315e-08
     26     36   2   0.50000    -0.1200000   -0.1150000   1.091018e-03  2.092768e-06
     26     41   2   0.50000    -0.1200000   -0.1150000   1.091018e-03  2.092768e-06
     42     36   2   0.50000    -0.1200000   -0.1150000   1.091018e-03  2.092768e-06
     42     41   2   0.50000    -0.1200000   -0.1150000   1.091018e-03  2.092768e-06
     43     36   2   0.50000     0.0600000   -0.1150000   2.680627e-04  1.873879e-07
     43     41   2   0.50000     0.0600000   -0.1150000   2.680627e-04  1.873879e-07
     26     48   2   0.50000    -0.1200000    0.0600000   2.494471e-04  1.671101e-07
     26     49   2   0.50000    -0.1200000    0.0600000   2.494471e-04  1.671101e-07
     26     50   2   0.50000    -0.1200000    0.0550000   1.015252e-03  1.866303e-06
     35     48   2   0.50000    -0.1150000    0.0600000   2.680627e-04  1.873879e-07
     35     49   2   0.50000    -0.1150000    0.0600000   2.680627e-04  1.873879e-07
     35     50   2   0.50000    -0.1150000    0.0550000   1.091018e-03  2.092768e-06
     43     48   2   0.50000     0.0600000    0.0600000   6.128906e-05  1.496315e-08
     43     49   2   0.50000     0.0600000    0.0600000   6.128906e-05  1.496315e-08
     43     50   2   0.50000     0.0600000    0.0550000   2.494471e-04  1.671101e-07
     34     37   2   0.50000     0.0550000   -0.1150000   1.091018e-03  2.092768e-06
     34     44   2   0.50000     0.0550000    0.1150000   2.262583e-04  1.374848e-07
     41     37   2   0.50000    -0.1150000   -0.1150000   1.172438e-03  2.346713e-06
     41     44   2   0.50000    -0.1150000    0.1150000   2.431434e-04  1.541678e-07
     34     40   2   0.50000     0.0550000   -0.1150000   1.091018e-03  2.092768e-06
     34     47   2   0.50000     0.0550000    0.1150000   2.262583e-04  1.374848e-07
     36     40   2   0.50000    -0.1150000   -0.1150000   1.172438e-03  2.346713e-06
     36     47   2   0.50000    -0.1150000    0.1150000   2.431434e-04  1.541678e-07
     35     38   2   0.50000    -0.1150000    0.1800000   1.172438e-03  2.346713e-06
     35     45   2   0.50000    -0.1150000    0.1150000   2.431434e-04  1.541678e-07
     44     38   2   0.50000     0.1150000    0.1800000   2.431434e-04  1.541678e-07
     44     45   2   0.50000     0.1150000    0.1150000   5.042375e-05  1.012808e-08
     36     39   2   0.50000    -0.1150000   -0.1800000   2.132324e-03  3.749514e-06
     45     39   2   0.50000     0.1150000   -0.1800000   4.422072e-04  2.463251e-07
     45     40   2   0.50000     0.1150000   -0.1150000   2.431434e-04  1.541678e-07
     37     46   2   0.50000    -0.1150000    0.1150000   2.431434e-04  1.541678e-07
     39     41   2   0.50000    -0.1800000   -0.1150000   2.132324e-03  3.749514e-06
     39     46   2   0.50000    -0.1800000    0.1150000   4.422072e-04  2.463251e-07
     38     47   2   0.50000     0.1800000    0.1150000   2.431434e-04  1.541678e-07
     46     35   2   0.50000     0.1150000   -0.1150000   2.431434e-04  1.541678e-07
     46     47   2   0.50000     0.1150000    0.1150000   5.042375e-05  1.012808e-08
     34     51   2   0.50000     0.0550000   -0.1150000   1.091018e-03  2.092768e-06
     34     58   2   0.50000     0.0550000   -0.1200000   1.015252e-03  1.866303e-06
     34     59   2   0.50000     0.0550000    0.0600000   2.494471e-04  1.671101e-07
     48     51   2   0.50000     0.0600000   -0.1150000   2.680627e-04  1.873879e-07
     48     58   2   0.50000     0.0600000   -0.1200000   2.494471e-04  1.671101e-07
     48     59   2   0.50000     0.0600000    0.0600000   6.128906e-05  1.496315e-08
     49     51   2   0.50000     0.0600000   -0.1150000   2.680627e-04  1.873879e-07
     49     58   2   0.50000     0.0600000   -0.1200000   2.494471e-04  1.671101e-07
     49     59   2   0.50000     0.0600000    0.0600000   6.128906e-05  1.496315e-08
     42     52   2   0.50000    -0.1200000   -0.1150000   1.091018e-03  2.092768e-06
     42     57   2   0.50000    -0.1200000   -0.1150000   1.091018e-03  2.092768e-06
     58     52   2   0.50000    -0.1200000   -0.1150000   1.091018e-03  2.092768e-06
     58     57   2   0.50000    -0.1200000   -0.1150000   1.091018e-03  2.092768e-06
     59     52   2   0.50000     0.0600000   -0.1150000   2.680627e-04  1.873879e-07
     59     57   2   0.50000     0.0600000   -0.1150000   2.680627e-04  1.873879e-07
     42     64   2   0.50000    -0.1200000    0.0600000   2.494471e-04  1.671101e-07
     42     65   2   0.50000    -0.1200000    0.0600000   2.494471e-04  1.671101e-07
     42     66   2   0.50000    -0.1200000    0.0550000   1.015252e-03  1.866303e-06
     51     64   2   0.50000    -0.1150000    0.0600000   2.680627e-04  1.873879e-07
     51     65   2   0.50000    -0.1150000    0.0600000   2.680627e-04  1.873879e-07
     51     66   2   0.50000    -0.1150000    0.0550000   1.091018e-03  2.092768e-06
     59     64   2   0.50000     0.0600000    0.0600000   6.128906e-05  1.496315e-08
     59     65   2   0.50000     0.0600000    0.0600000   6.128906e-05  1.496315e-08
     59     66   2   0.50000     0.0600000    0.0550000   2.494471e-04  1.671101e-07
     50     53   2   0.50000     0.0550000   -0.1150000   1.091018e-03  2.092768e-06
     50     60   2   0.50000     0.0550000    0.1150000   2.262583e-04  1.374848e-07
     57     53   2   0.50000    -0.1150000   -0.1150000   1.172438e-03  2.346713e-06
     57     60   2   0.50000    -0.1150000    0.1150000   2.431434e-04  1.541678e-07
     50     56   2   0.50000     0.0550000   -0.1150000   1.091018e-03  2.092768e-06
     50     63   2   0.50000     0.0550000    0.1150000   2.262583e-04  1.374848e-07
     52     56   2   0.50000    -0.1150000   -0.1150000   1.172438e-03  2.346713e-06
     52     63   2   0.50000    -0.1150000    0.1150000   2.431434e-04  1.541678e-07
     51     54   2   0.50000    -0.1150000    0.1800000   1.172438e-03  2.346713e-06
     51     61   2   0.50000    -0.1150000    0.1150000   2.431434e-04  1.541678e-07
     60     54   2   0.50000     0.1150000    0.1800000   2.431434e-04  1.541678e-07
     60     61   2   0.50000     0.1150000    0.1150000   5.042375e-05  1.012808e-08
     52     55   2   0.50000    -0.1150000   -0.1800000   2.132324e-03  3.749514e-06
     61     55   2   0.50000     0.1150000   -0.1800000   4.422072e-04  2.463251e-07
     61     56   2   0.50000     0.1150000   -0.1150000   2.431434e-04  1.541678e-07
     53     62   2   0.50000    -0.1150000    0.1150000   2.431434e-04  1.541678e-07
     55     57   2   0.50000    -0.1800000   -0.1150000   2.132324e-03  3.749514e-06
     55     62   2   0.50000    -0.1800000    0.1150000   4.422072e-04  2.463251e-07
     54     63   2   0.50000     0.1800000    0.1150000   2.431434e-04  1.541678e-07
     62     51   2   0.50000     0.1150000   -0.1150000   2.431434e-04  1.541678e-07
     62     63   2   0.50000     0.1150000    0.1150000   5.042375e-05  1.012808e-08
     50     67   2   0.50000     0.0550000   -0.1150000   1.091018e-03  2.092768e-06
     50     74   2   0.50000     0.0550000   -0.1200000   1.015252e-03  1.866303e-06
     50     75   2   0.50000     0.0550000    0.0600000   2.494471e-04  1.671101e-07
     64     67   2   0.50000     0.0600000   -0.1150000   2.680627e-04  1.873879e-07
     64     74   2   0.50000     0.0600000   -0.1200000   2.494471e-04  1.671101e-07
     64     75   2   0.50000     0.0600000    0.0600000   6.128906e-05  1.496315e-08
     65     67   2   0.50000     0.0600000   -0.1150000   2.680627e-04  1.873879e-07
     65     74   2   0.50000     0.0600000   -0.1200000   2.494471e-04  1.671101e-07
     65     75   2   0.50000     0.0600000    0.0600000   6.128906e-05  1.496315e-08
     58     68   2   0.50000    -0.1200000   -0.1150000   1.091018e-03  2.092768e-06
     58     73   2   0.50000    -0.1200000   -0.1150000   1.091018e-03  2.092768e-06
     74     68   2   0.50000    -0.1200000   -0.1150000   1.091018e-03  2.092768e-06
     74     73   2   0.50000    -0.1200000   -0.1150000   1.091018e-03  2.092768e-06
     75     68   2   0.50000     0.0600000   -0.1150000   2.680627e-04  1.873879e-07
     75     73   2   0.50000     0.0600000   -0.1150000   2.680627e-04  1.873879e-07
     58     80   2   0.50000    -0.1200000    0.0600000   2.494471e-04  1.671101e-07
     58     81   2   0.50000    -0.1200000    0.0600000   2.494471e-04  1.671101e-07
     58     82   2   0.50000    -0.1200000    0.0550000   1.015252e-03  1.866303e-06
     67     80   2   0.50000    -0.1150000    0.0600000   2.680627e-04  1.873879e-07
     67     81   2   0.50000    -0.1150000    0.0600000   2.680627e-04  1.873879e-07
     67     82   2   0.50000    -0.1150000    0.0550000   1.091018e-03  2.092768e-06
     75     80   2   0.50000     0.0600000    0.0600000   6.128906e-05  1.496315e-08
     75     81   2   0.50000     0.0600000    0.0600000   6.128906e-05  1.496315e-08
     75     82   2   0.50000     0.0600000    0.0550000   2.494471e-04  1.671101e-07
     66     69   2   0.50000     0.0550000   -0.1150000   1.091018e-03  2.092768e-06
     66     76   2   0.50000     0.0550000    0.1150000   2.262583e-04  1.374848e-07
     73     69   2   0.50000    -0.1150000   -0.1150000   1.172438e-03  2.346713e-06
     73     76   2   0.50000    -0.1150000    0.1150000   2.431434e-04  1.541678e-07
     66     72   2   0.50000     0.0550000   -0.1150000   1.091018e-03  2.092768e-06
     66     79   2   0.50000     0.0550000    0.1150000   2.262583e-04  1.374848e-07
     68     72   2   0.50000    -0.1150000   -0.1150000   1.172438e-03  2.346713e-06
     68     79   2   0.50000    -0.1150000    0.1150000   2.431434e-04  1.541678e-07
     67     70   2   0.50000    -0.1150000    0.1800000   1.172438e-03  2.346713e-06
     67     77   2   0.50000    -0.1150000    0.1150000   2.431434e-04  1.541678e-07
     76     70   2   0.50000     0.1150000    0.1800000   2.431434e-04  1.541678e-07
     76     77   2   0.50000     0.1150000    0.1150000   5.042375e-05  1.012808e-08
     68     71   2   0.50000    -0.1150000   -0.1800000   2.132324e-03  3.749514e-06
     77     71   2   0.50000     0.1150000   -0.1800000   4.422072e-04  2.463251e-07
     77     72   2   0.50000     0.1150000   -0.1150000   2.431434e-04  1.541678e-07
     69     78   2   0.50000    -0.1150000    0.1150000   2.431434e-04  1.541678e-07
     71     73   2   0.50000    -0.1800000   -0.1150000   2.132324e-03  3.749514e-06
     71     78   2   0.50000    -0.1800000    0.1150000   4.422072e-04  2.463251e-07
     70     79   2   0.50000     0.1800000    0.1150000   2.431434e-04  1.541678e-07
     78     67   2   0.50000     0.1150000   -0.1150000   2.431434e-04  1.541678e-07
     78     79   2   0.50000     0.1150000    0.1150000   5.042375e-05  1.012808e-08
     66     83   2   0.50000     0.0550000   -0.1150000   1.091018e-03  2.092768e-06
     66     90   2   0.50000     0.0550000   -0.1200000   1.015252e-03  1.866303e-06
     66     91   2   0.50000     0.0550000    0.0600000   2.494471e-04  1.671101e-07
     80     83   2   0.50000     0.0600000   -0.1150000   2.680627e-04  1.873879e-07
     80     90   2   0.50000     0.0600000   -0.1200000   2.494471e-04  1.671101e-07
     80     91   2   0.50000     0.0600000    0.0600000   6.128906e-05  1.496315e-08
     81     83   2   0.50000     0.0600000   -0.1150000   2.680627e-04  1.873879e-07
     81     90   2   0.50000     0.0600000   -0.1200000   2.494471e-04  1.671101e-07
     81     91   2   0.50000     0.0600000    0.0600000   6.128906e-05  1.496315e-08
     74     84   2   0.50000    -0.1200000   -0.1150000   1.091018e-03  2.092768e-06
     74     89   2   0.50000    -0.1200000   -0.1150000   1.091018e-03  2.092768e-06
     90     84   2   0.50000    -0.1200000   -0.1150000   1.091018e-03  2.092768e-06
     90     89   2   0.50000    -0.1200000   -0.1150000   1.091018e-03  2.092768e-06
     91     84   2   0.50000     0.0600000   -0.1150000   2.680627e-04  1.873879e-07
     91     89   2   0.50000     0.0600000   -0.1150000   2.680627e-04  1.873879e-07
     74     96   2   0.50000    -0.1200000    0.0600000   2.494471e-04  1.671101e-07
     74     97   2   0.50000    -0.1200000    0.0600000   2.494471e-04  1.671101e-07
     74     98   2   0.50000    -0.1200000    0.0550000   1.015252e-03  1.866303e-06
     83     96   2   0.50000    -0.1150000    0.0600000   2.680627e-04  1.873879e-07
     83     97   2   0.50000    -0.1150000    0.0600000   2.680627e-04  1.873879e-07
     83     98   2   0.50000    -0.1150000    0.0550000   1.091018e-03  2.092768e-06
     91     96   2   0.50000     0.0600000    0.0600000   6.128906e-05  1.496315e-08
     91     97   2   0.50000     0.0600000    0.0600000   6.128906e-05  1.496315e-08
     91     98   2   0.50000     0.0600000    0.0550000   2.494471e-04  1.671101e-07
     82     85   2   0.50000     0.0550000   -0.1150000   1.091018e-03  2.092768e-06
     82     92   2   0.50000     0.0550000    0.1150000   2.262583e-04  1.374848e-07
     89     85   2   0.50000    -0.1150000   -0.1150000   1.172438e-03  2.346713e-06
     89     92   2   0.50000    -0.1150000    0.1150000   2.431434e-04  1.541678e-07
     82     88   2   0.50000     0.0550000   -0.1150000   1.091018e-03  2.092768e-06
     82     95   2   0.50000     0.0550000    0.1150000   2.262583e-04  1.374848e-07
     84     88   2   0.50000    -0.1150000   -0.1150000   1.172438e-03  2.346713e-06
     84     95   2   0.50000    -0.1150000    0.1150000   2.431434e-04  1.541678e-07
     83     86   2   0.50000    -0.1150000    0.1800000   1.172438e-03  2.346713e-06
     83     93   2   0.50000    -0.1150000    0.1150000   2.431434e-04  1.541678e-07
     92     86   2   0.50000     0.1150000    0.1800000   2.431434e-04  1.541678e-07
     92     93   2   0.50000     0.1150000    0.1150000   5.042375e-05  1.012808e-08
     84     87   2   0.50000    -0.1150000   -0.1800000   2.132324e-03  3.749514e-06
     93     87   2   0.50000     0.1150000   -0.1800000   4.422072e-04  2.463251e-07
     93     88   2   0.50000     0.1150000   -0.1150000   2.431434e-04  1.541678e-07
     85     94   2   0.50000    -0.1150000    0.1150000   2.431434e-04  1.541678e-07
     87     89   2   0.50000    -0.1800000   -0.1150000   2.132324e-03  3.749514e-06
     87     94   2   0.50000    -0.1800000    0.1150000   4.422072e-04  2.463251e-07
     86     95   2   0.50000     0.1800000    0.1150000   2.431434e-04  1.541678e-07
     94     83   2   0.50000     0.1150000   -0.1150000   2.431434e-04  1.541678e-07
     94     95   2   0.50000     0.1150000    0.1150000   5.042375e-05  1.012808e-08
     82     99   2   0.50000     0.0550000   -0.1150000   1.091018e-03  2.092768e-06
     82    106   2   0.50000     0.0550000   -0.1200000   1.015252e-03  1.866303e-06
     82    107   2   0.50000     0.0550000    0.0600000   2.494471e-04  1.671101e-07
     96     99   2   0.50000     0.0600000   -0.1150000   2.680627e-04  1.873879e-07
     96    106   2   0.50000     0.0600000   -0.1200000   2.494471e-04  1.671101e-07
     96    107   2   0.50000     0.0600000    0.0600000   6.128906e-05  1.496315e-08
     97     99   2   0.50000     0.0600000   -0.1150000   2.680627e-04  1.873879e-07
     97    106   2   0.50000     0.0600000   -0.1200000   2.494471e-04  1.671101e-07
     97    107   2   0.50000     0.0600000    0.0600000   6.128906e-05  1.496315e-08
     90    100   2   0.50000    -0.1200000   -0.1150000   1.091018e-03  2.092768e-06
     90    105   2   0.50000    -0.1200000   -0.1150000   1.091018e-03  2.092768e-06
    106    100   2   0.50000    -0.1200000   -0.1150000   1.091018e-03  2.092768e-06
    106    105   2   0.50000    -0.1200000   -0.1150000   1.091018e-03  2.092768e-06
    107    100   2   0.50000     0.0600000   -0.1150000   2.680627e-04  1.873879e-07
    107    105   2   0.50000     0.0600000   -0.1150000   2.680627e-04  1.873879e-07
     90    112   2   0.50000    -0.1200000    0.0600000   2.494471e-04  1.671101e-07
     90    113   2   0.50000    -0.1200000    0.0600000   2.494471e-04  1.671101e-07
     90    114   2   0.50000    -0.1200000    0.0550000   1.015252e-03  1.866303e-06
     99    112   2   0.50000    -0.1150000    0.0600000   2.680627e-04  1.873879e-07
     99    113   2   0.50000    -0.1150000    0.0600000   2.680627e-04  1.873879e-07
     99    114   2   0.50000    -0.1150000    0.0550000   1.091018e-03  2.092768e-06
    107    112   2   0.50000     0.0600000    0.0600000   6.128906e-05  1.496315e-08
    107    113   2   0.50000     0.0600000    0.0600000   6.128906e-05  1.496315e-08
    107    114   2   0.50000     0.0600000    0.0550000   2.494471e-04  1.671101e-07
     98    101   2   0.50000     0.0550000   -0.1150000   1.091018e-03  2.092768e-06
     98    108   2   0.50000     0.0550000    0.1150000   2.262583e-04  1.374848e-07
    105    101   2   0.50000    -0.1150000   -0.1150000   1.172438e-03  2.346713e-06
    105    108   2   0.50000    -0.1150000    0.1150000   2.431434e-04  1.541678e-07
     98    104   2   0.50000     0.0550000   -0.1150000   1.091018e-03  2.092768e-06
     98    111   2   0.50000     0.0550000    0.1150000   2.262583e-04  1.374848e-07
    100    104   2   0.50000    -0.1150000   -0.1150000   1.172438e-03  2.346713e-06
    100    111   2   0.50000    -0.1150000    0.1150000   2.431434e-04  1.541678e-07
     99    102   2   0.50000    -0.1150000    0.1800000   1.172438e-03  2.346713e-06
     99    109   2   0.50000    -0.1150000    0.1150000   2.431434e-04  1.541678e-07
    108    102   2   0.50000     0.1150000    0.1800000   2.431434e-04  1.541678e-07
    108    109   2   0.50000     0.1150000    0.1150000   5.042375e-05  1.012808e-08
    100    103   2   0.50000    -0.1150000   -0.1800000   2.132324e-03  3.749514e-06
    109    103   2   0.50000     0.1150000   -0.1800000   4.422072e-04  2.463251e-07
    109    104   2   0.50000     0.1150000   -0.1150000   2.431434e-04  1.541678e-07
    101    110   2   0.50000    -0.1150000    0.1150000   2.431434e-04  1.541678e-07
    103    105   2   0.50000    -0.1800000   -0.1150000   2.132324e-03  3.749514e-06
    103    110   2   0.50000    -0.1800000    0.1150000   4.422072e-04  2.463251e-07
    102    111   2   0.50000     0.1800000    0.1150000   2.431434e-04  1.541678e-07
    110     99   2   0.50000     0.1150000   -0.1150000   2.431434e-04  1.541678e-07
    110    111   2   0.50000     0.1150000    0.1150000   5.042375e-05  1.012808e-08
     98    115   2   0.50000     0.0550000   -0.1150000   1.091018e-03  2.092768e-06
     98    122   2   0.50000     0.0550000   -0.1200000   1.015252e-03  1.866303e-06
     98    123   2   0.50000     0.0550000    0.0600000   2.494471e-04  1.671101e-07
    112    115   2   0.50000     0.0600000   -0.1150000   2.680627e-04  1.873879e-07
    112    122   2   0.50000     0.0600000   -0.1200000   2.494471e-04  1.671101e-07
    112    123   2   0.50000     0.0600000    0.0600000   6.128906e-05  1.496315e-08
    113    115   2   0.50000     0.0600000   -0.1150000   2.680627e-04  1.873879e-07
    113    122   2   0.50000     0.0600000   -0.1200000   2.494471e-04  1.671101e-07
    113    123   2   0.50000     0.0600000    0.0600000   6.128906e-05  1.496315e-08
    106    116   2   0.50000    -0.1200000   -0.1150000   1.091018e-03  2.092768e-06
    106    121   2   0.50000    -0.1200000   -0.1150000   1.091018e-03  2.092768e-06
    122    116   2   0.50000    -0.1200000   -0.1150000   1.091018e-03  2.092768e-06
    122    121   2   0.50000    -0.1200000   -0.1150000   1.091018e-03  2.092768e-06
    123    116   2   0.50000     0.0600000   -0.1150000   2.680627e-04  1.873879e-07
    123    121   2   0.50000     0.0600000   -0.1150000   2.680627e-04  1.873879e-07
    106    128   2   0.50000    -0.1200000    0.0600000   2.494471e-04  1.671101e-07
    106    129   2   0.50000    -0.1200000    0.0600000   2.494471e-04  1.671101e-07
    106    130   2   0.50000    -0.1200000    0.0550000   1.015252e-03  1.866303e-06
    115    128   2   0.50000    -0.1150000    0.0600000   2.680627e-04  1.873879e-07
    115    129   2   0.50000    -0.1150000    0.0600000   2.680627e-04  1.873879e-07
    115    130   2   0.50000    -0.1150000    0.0550000   1.091018e-03  2.092768e-06
    123    128   2   0.50000     0.0600000    0.0600000   6.128906e-05  1.496315e-08
    123    129   2   0.50000     0.0600000    0.0600000   6.128906e-05  1.496315e-08
    123    130   2   0.50000     0.0600000    0.0550000   2.494471e-04  1.671101e-07
    114    117   2   0.50000     0.0550000   -0.1150000   1.091018e-03  2.092768e-06
    114    124   2   0.50000     0.0550000    0.1150000   2.262583e-04  1.374848e-07
    121    117   2   0.50000    -0.1150000   -0.1150000   1.172438e-03  2.346713e-06
    121    124   2   0.50000    -0.1150000    0.1150000   2.431434e-04  1.541678e-07
    114    120   2   0.50000     0.0550000   -0.1150000   1.091018e-03  2.092768e-06
    114    127   2   0.50000     0.0550000    0.1150000   2.262583e-04  1.374848e-07
    116    120   2   0.50000    -0.1150000   -0.1150000   1.172438e-03  2.346713e-06
    116    127   2   0.50000    -0.1150000    0.1150000   2.431434e-04  1.541678e-07
    115    118   2   0.50000    -0.1150000    0.1800000   1.172438e-03  2.346713e-06
    115    125   2   0.50000    -0.1150000    0.1150000   2.431434e-04  1.541678e-07
    124    118   2   0.50000     0.1150000    0.1800000   2.431434e-04  1.541678e-07
    124    125   2   0.50000     0.1150000    0.1150000   5.042375e-05  1.012808e-08
    116    119   2   0.50000    -0.1150000   -0.1800000   2.132324e-03  3.749514e-06
    125    119   2   0.50000     0.1150000   -0.1800000   4.422072e-04  2.463251e-07
    125    120   2   0.50000     0.1150000   -0.1150000   2.431434e-04  1.541678e-07
    117    126   2   0.50000    -0.1150000    0.1150000   2.431434e-04  1.541678e-07
    119    121   2   0.50000    -0.1800000   -0.1150000   2.132324e-03  3.749514e-06
    119    126   2   0.50000    -0.1800000    0.1150000   4.422072e-04  2.463251e-07
    118    127   2   0.50000     0.1800000    0.1150000   2.431434e-04  1.541678e-07
    126    115   2   0.50000     0.1150000   -0.1150000   2.431434e-04  1.541678e-07
    126    127   2   0.50000     0.1150000    0.1150000   5.042375e-05  1.012808e-08
    114    131   2   0.50000     0.0550000   -0.1150000   1.091018e-03  2.092768e-06
    114    138   2   0.50000     0.0550000   -0.1200000   1.015252e-03  1.866303e-06
    114    139   2   0.50000     0.0550000    0.0600000   2.494471e-04  1.671101e-07
    128    131   2   0.50000     0.0600000   -0.1150000   2.680627e-04  1.873879e-07
    128    138   2   0.50000     0.0600000   -0.1200000   2.494471e-04  1.671101e-07
    128    139   2   0.50000     0.0600000    0.0600000   6.128906e-05  1.496315e-08
    129    131   2   0.50000     0.0600000   -0.1150000   2.680627e-04  1.873879e-07
    129    138   2   0.50000     0.0600000   -0.1200000   2.494471e-04  1.671101e-07
    129    139   2   0.50000     0.0600000    0.0600000   6.128906e-05  1.496315e-08
    122    132   2   0.50000    -0.1200000   -0.1150000   1.091018e-03  2.092768e-06
    122    137   2   0.50000    -0.1200000   -0.1150000   1.091018e-03  2.092768e-06
    138    132   2   0.50000    -0.1200000   -0.1150000   1.091018e-03  2.092768e-06
    138    137   2   0.50000    -0.1200000   -0.1150000   1.091018e-03  2.092768e-06
    139    132   2   0.50000     0.0600000   -0.1150000   2.680627e-04  1.873879e-07
    139    137   2   0.50000     0.0600000   -0.1150000   2.680627e-04  1.873879e-07
    122    144   2   0.50000    -0.1200000    0.0600000   2.494471e-04  1.671101e-07
    122    145   2   0.50000    -0.1200000    0.0600000   2.494471e-04  1.671101e-07
    122    146   2   0.50000    -0.1200000    0.0550000   1.015252e-03  1.866303e-06
    131    144   2   0.50000    -0.1150000    0.0600000   2.680627e-04  1.873879e-07
    131    145   2   0.50000    -0.1150000    0.0600000   2.680627e-04  1.873879e-07
    131    146   2   0.50000    -0.1150000    0.0550000   1.091018e-03  2.092768e-06
    139    144   2   0.50000     0.0600000    0.0600000   6.128906e-05  1.496315e-08
    139    145   2   0.50000     0.0600000    0.0600000   6.128906e-05  1.496315e-08
    139    146   2   0.50000     0.0600000    0.0550000   2.494471e-04  1.671101e-07
    130    133   2   0.50000     0.0550000   -0.1150000   1.091018e-03  2.092768e-06
    130    140   2   0.50000     0.0550000    0.1150000   2.262583e-04  1.374848e-07
    137    133   2   0.50000    -0.1150000   -0.1150000   1.172438e-03  2.346713e-06
    137    140   2   0.50000    -0.1150000    0.1150000   2.431434e-04  1.541678e-07
    130    136   2   0.50000     0.0550000   -0.1150000   1.091018e-03  2.092768e-06
    130    143   2   0.50000     0.0550000    0.1150000   2.262583e-04  1.374848e-07
    132    136   2   0.50000    -0.1150000   -0.1150000   1.172438e-03  2.346713e-06
    132    143   2   0.50000    -0.1150000    0.1150000   2.431434e-04  1.541678e-07
    131    134   2   0.50000    -0.1150000    0.1800000   1.172438e-03  2.346713e-06
    131    141   2   0.50000    -0.1150000    0.1150000   2.431434e-04  1.541678e-07
    140    134   2   0.50000     0.1150000    0.1800000   2.431434e-04  1.541678e-07
    140    141   2   0.50000     0.1150000    0.1150000   5.042375e-05  1.012808e-08
    132    135   2   0.50000    -0.1150000   -0.1800000   2.132324e-03  3.749514e-06
    141    135   2   0.50000     0.1150000   -0.1800000   4.422072e-04  2.463251e-07
    141    136   2   0.50000     0.1150000   -0.1150000   2.431434e-04  1.541678e-07
    133    142   2   0.50000    -0.1150000    0.1150000   2.431434e-04  1.541678e-07
    135    137   2   0.50000    -0.1800000   -0.1150000   2.132324e-03  3.749514e-06
    135    142   2   0.50000    -0.1800000    0.1150000   4.422072e-04  2.463251e-07
    134    143   2   0.50000     0.1800000    0.1150000   2.431434e-04  1.541678e-07
    142    131   2   0.50000     0.1150000   -0.1150000   2.431434e-04  1.541678e-07
    142    143   2   0.50000     0.1150000    0.1150000   5.042375e-05  1.012808e-08
    130    147   2   0.50000     0.0550000   -0.1150000   1.091018e-03  2.092768e-06
    130    154   2   0.50000     0.0550000   -0.1200000   1.015252e-03  1.866303e-06
    130    155   2   0.50000     0.0550000    0.0600000   2.494471e-04  1.671101e-07
    144    147   2   0.50000     0.0600000   -0.1150000   2.680627e-04  1.873879e-07
    144    154   2   0.50000     0.0600000   -0.1200000   2.494471e-04  1.671101e-07
    144    155   2   0.50000     0.0600000    0.0600000   6.128906e-05  1.496315e-08
    145    147   2   0.50000     0.0600000   -0.1150000   2.680627e-04  1.873879e-07
    145    154   2   0.50000     0.0600000   -0.1200000   2.494471e-04  1.671101e-07
    145    155   2   0.50000     0.0600000    0.0600000   6.128906e-05  1.496315e-08
    138    148   2   0.50000    -0.1200000   -0.1150000   1.091018e-03  2.092768e-06
    138    153   2   0.50000    -0.1200000   -0.1150000   1.091018e-03  2.092768e-06
    154    148   2   0.50000    -0.1200000   -0.1150000   1.091018e-03  2.092768e-06
    154    153   2   0.50000    -0.1200000   -0.1150000   1.091018e-03  2.092768e-06
    155    148   2   0.50000     0.0600000   -0.1150000   2.680627e-04  1.873879e-07
    155    153   2   0.50000     0.0600000   -0.1150000   2.680627e-04  1.873879e-07
    138    160   2   0.50000    -0.1200000    0.0600000   2.494471e-04  1.671101e-07
    138    161   2   0.50000    -0.1200000    0.0600000   2.494471e-04  1.671101e-07
    138    162   2   0.50000    -0.1200000    0.0550000   1.015252e-03  1.866303e-06
    147    160   2   0.50000    -0.1150000    0.0600000   2.680627e-04  1.873879e-07
    147    161   2   0.50000    -0.1150000    0.0600000   2.680627e-04  1.873879e-07
    147    162   2   0.50000    -0.1150000    0.0550000   1.091018e-03  2.092768e-06
    155    160   2   0.50000     0.0600000    0.0600000   6.128906e-05  1.496315e-08
    155    161   2   0.50000     0.0600000    0.0600000   6.128906e-05  1.496315e-08
    155    162   2   0.50000     0.0600000    0.0550000   2.494471e-04  1.671101e-07
    146    149   2   0.50000     0.0550000   -0.1150000   1.091018e-03  2.092768e-06
    146    156   2   0.50000     0.0550000    0.1150000   2.262583e-04  1.374848e-07
    153    149   2   0.50000    -0.1150000   -0.1150000   1.172438e-03  2.346713e-06
    153    156   2   0.50000    -0.1150000    0.1150000   2.431434e-04  1.541678e-07
    146    152   2   0.50000     0.0550000   -0.1150000   1.091018e-03  2.092768e-06
    146    159   2   0.50000     0.0550000    0.1150000   2.262583e-04  1.374848e-07
    148    152   2   0.50000    -0.1150000   -0.1150000   1.172438e-03  2.346713e-06
    148    159   2   0.50000    -0.1150000    0.1150000   2.431434e-04  1.541678e-07
    147    150   2   0.50000    -0.1150000    0.1800000   1.172438e-03  2.346713e-06
    147    157   2   0.50000    -0.1150000    0.1150000   2.431434e-04  1.541678e-07
    156    150   2   0.50000     0.1150000    0.1800000   2.431434e-04  1.541678e-07
    156    157   2   0.50000     0.1150000    0.1150000   5.042375e-05  1.012808e-08
    148    151   2   0.50000    -0.1150000   -0.1800000   2.132324e-03  3.749514e-06
    157    151   2   0.50000     0.1150000   -0.1800000   4.422072e-04  2.463251e-07
    157    152   2   0.50000     0.1150000   -0.1150000   2.431434e-04  1.541678e-07
    149    158   2   0.50000    -0.1150000    0.1150000   2.431434e-04  1.541678e-07
    151    153   2   0.50000    -0.1800000   -0.1150000   2.132324e-03  3.749514e-06
    151    158   2   0.50000    -0.1800000    0.1150000   4.422072e-04  2.463251e-07
    150    159   2   0.50000     0.1800000    0.1150000   2.431434e-04  1.541678e-07
    158    147   2   0.50000     0.1150000   -0.1150000   2.431434e-04  1.541678e-07
    158    159   2   0.50000     0.1150000    0.1150000   5.042375e-05  1.012808e-08
    146    163   2   0.50000     0.0550000   -0.1150000   1.091018e-03  2.092768e-06
    146    170   2   0.50000     0.0550000   -0.1200000   1.015252e-03  1.866303e-06
    146    171   2   0.50000     0.0550000    0.0600000   2.494471e-04  1.671101e-07
    160    163   2   0.50000     0.0600000   -0.1150000   2.680627e-04  1.873879e-07
    160    170   2   0.50000     0.0600000   -0.1200000   2.494471e-04  1.671101e-07
    160    171   2   0.50000     0.0600000    0.0600000   6.128906e-05  1.496315e-08
    161    163   2   0.50000     0.0600000   -0.1150000   2.680627e-04  1.873879e-07
    161    170   2   0.50000     0.0600000   -0.1200000   2.494471e-04  1.671101e-07
    161    171   2   0.50000     0.0600000    0.0600000   6.128906e-05  1.496315e-08
    154    164   2   0.50000    -0.1200000   -0.1150000   1.091018e-03  2.092768e-06
    154    169   2   0.50000    -0.1200000   -0.1150000   1.091018e-03  2.092768e-06
    170    164   2   0.50000    -0.1200000   -0.1150000   1.091018e-03  2.092768e-06
    170    169   2   0.50000    -0.1200000   -0.1150000   1.091018e-03  2.092768e-06
    171    164   2   0.50000     0.0600000   -0.1150000   2.680627e-04  1.873879e-07
    171    169   2   0.50000     0.0600000   -0.1150000   2.680627e-04  1.873879e-07
    154    176   2   0.50000    -0.1200000    0.0600000   2.494471e-04  1.671101e-07
    154    177   2   0.50000    -0.1200000    0.0600000   2.494471e-04  1.671101e-07
    154    178   2   0.50000    -0.1200000    0.0550000   1.015252e-03  1.866303e-06
    163    176   2   0.50000    -0.1150000    0.0600000   2.680627e-04  1.873879e-07
    163    177   2   0.50000    -0.1150000    0.0600000   2.680627e-04  1.873879e-07
    163    178   2   0.50000    -0.1150000    0.0550000   1.091018e-03  2.092768e-06
    171    176   2   0.50000     0.0600000    0.0600000   6.128906e-05  1.496315e-08
    171    177   2   0.50000     0.0600000    0.0600000   6.128906e-05  1.496315e-08
    171    178   2   0.50000     0.0600000    0.0550000   2.494471e-04  1.671101e-07
    162    165   2   0.50000     0.0550000   -0.1150000   1.091018e-03  2.092768e-06
    162    172   2   0.50000     0.0550000    0.1150000   2.262583e-04  1.374848e-07
    169    165   2   0.50000    -0.1150000   -0.1150000   1.172438e-03  2.346713e-06
    169    172   2   0.50000    -0.1150000    0.1150000   2.431434e-04  1.541678e-07
    162    168   2   0.50000     0.0550000   -0.1150000   1.091018e-03  2.092768e-06
    162    175   2   0.50000     0.0550000    0.1150000   2.262583e-04  1.374848e-07
    164    168   2   0.50000    -0.1150000   -0.1150000   1.172438e-03  2.346713e-06
    164    175   2   0.50000    -0.1150000    0.1150000   2.431434e-04  1.541678e-07
    163    166   2   0.50000    -0.1150000    0.1800000   1.172438e-03  2.346713e-06
    163    173   2   0.50000    -0.1150000    0.1150000   2.431434e-04  1.541678e-07
    172    166   2   0.50000     0.1150000    0.1800000   2.431434e-04  1.541678e-07
    172    173   2   0.50000     0.1150000    0.1150000   5.042375e-05  1.012808e-08
    164    167   2   0.50000    -0.1150000   -0.1800000   2.132324e-03  3.749514e-06
    173    167   2   0.50000     0.1150000   -0.1800000   4.422072e-04  2.463251e-07
    173    168   2   0.50000     0.1150000   -0.1150000   2.431434e-04  1.541678e-07
    165    174   2   0.50000    -0.1150000    0.1150000   2.431434e-04  1.541678e-07
    167    169   2   0.50000    -0.1800000   -0.1150000   2.132324e-03  3.749514e-06
    167    174   2   0.50000    -0.1800000    0.1150000   4.422072e-04  2.463251e-07
    166    175   2   0.50000     0.1800000    0.1150000   2.431434e-04  1.541678e-07
    174    163   2   0.50000     0.1150000   -0.1150000   2.431434e-04  1.541678e-07
    174    175   2   0.50000     0.1150000    0.1150000   5.042375e-05  1.012808e-08
    162    179   2   0.50000     0.0550000   -0.1150000   1.091018e-03  2.092768e-06
    162    186   2   0.50000     0.0550000   -0.1200000   1.015252e-03  1.866303e-06
    162    187   2   0.50000     0.0550000    0.0600000   2.494471e-04  1.671101e-07
    176    179   2   0.50000     0.0600000   -0.1150000   2.680627e-04  1.873879e-07
    176    186   2   0.50000     0.0600000   -0.1200000   2.494471e-04  1.671101e-07
    176    187   2   0.50000     0.0600000    0.0600000   6.128906e-05  1.496315e-08
    177    179   2   0.50000     0.0600000   -0.1150000   2.680627e-04  1.873879e-07
    177    186   2   0.50000     0.0600000   -0.1200000   2.494471e-04  1.671101e-07
    177    187   2   0.50000     0.0600000    0.0600000   6.128906e-05  1.496315e-08
    170    180   2   0.50000    -0.1200000   -0.1150000   1.091018e-03  2.092768e-06
    170    185   2   0.50000    -0.1200000   -0.1150000   1.091018e-03  2.092768e-06
    186    180   2   0.50000    -0.1200000   -0.1150000   1.091018e-03  2.092768e-06
    186    185   2   0.50000    -0.1200000   -0.1150000   1.091018e-03  2.092768e-06
    187    180   2   0.50000     0.0600000   -0.1150000   2.680627e-04  1.873879e-07
    187    185   2   0.50000     0.0600000   -0.1150000   2.680627e-04  1.873879e-07
    170    192   2   0.50000    -0.1200000    0.0600000   2.494471e-04  1.671101e-07
    170    193   2   0.50000    -0.1200000    0.0600000   2.494471e-04  1.671101e-07
    170    194   2   0.50000    -0.1200000    0.0550000   1.015252e-03  1.866303e-06
    179    192   2   0.50000    -0.1150000    0.0600000   2.680627e-04  1.873879e-07
    179    193   2   0.50000    -0.1150000    0.0600000   2.680627e-04  1.873879e-07
    179    194   2   0.50000    -0.1150000    0.0550000   1.091018e-03  2.092768e-06
    187    192   2   0.50000     0.0600000    0.0600000   6.128906e-05  1.496315e-08
    187    193   2   0.50000     0.0600000    0.0600000   6.128906e-05  1.496315e-08
    187    194   2   0.50000     0.0600000    0.0550000   2.494471e-04  1.671101e-07
    178    181   2   0.50000     0.0550000   -0.1150000   1.091018e-03  2.092768e-06
    178    188   2   0.50000     0.0550000    0.1150000   2.262583e-04  1.374848e-07
    185    181   2   0.50000    -0.1150000   -0.1150000   1.172438e-03  2.346713e-06
    185    188   2   0.50000    -0.1150000    0.1150000   2.431434e-04  1.541678e-07
    178    184   2   0.50000     0.0550000   -0.1150000   1.091018e-03  2.092768e-06
    178    191   2   0.50000     0.0550000    0.1150000   2.262583e-04  1.374848e-07
    180    184   2   0.50000    -0.1150000   -0.1150000   1.172438e-03  2.346713e-06
    180    191   2   0.50000    -0.1150000    0.1150000   2.431434e-04  1.541678e-07
    179    182   2   0.50000    -0.1150000    0.1800000   1.172438e-03  2.346713e-06
    179    189   2   0.50000    -0.1150000    0.1150000   2.431434e-04  1.541678e-07
    188    182   2   0.50000     0.1150000    0.1800000   2.431434e-04  1.541678e-07
    188    189   2   0.50000     0.1150000    0.1150000   5.042375e-05  1.012808e-08
    180    183   2   0.50000    -0.1150000   -0.1800000   2.132324e-03  3.749514e-06
    189    183   2   0.50000     0.1150000   -0.1800000   4.422072e-04  2.463251e-07
    189    184   2   0.50000     0.1150000   -0.1150000   2.431434e-04  1.541678e-07
    181    190   2   0.50000    -0.1150000    0.1150000   2.431434e-04  1.541678e-07
    183    185   2   0.50000    -0.1800000   -0.1150000   2.132324e-03  3.749514e-06
    183    190   2   0.50000    -0.1800000    0.1150000   4.422072e-04  2.463251e-07
    182    191   2   0.50000     0.1800000    0.1150000   2.431434e-04  1.541678e-07
    190    179   2   0.50000     0.1150000   -0.1150000   2.431434e-04  1.541678e-07
    190    191   2   0.50000     0.1150000    0.1150000   5.042375e-05  1.012808e-08
    178    195   2   0.50000     0.0550000   -0.1150000   1.091018e-03  2.092768e-06
    178    202   2   0.50000     0.0550000   -0.1200000   1.015252e-03  1.866303e-06
    178    203   2   0.50000     0.0550000    0.0600000   2.494471e-04  1.671101e-07
    192    195   2   0.50000     0.0600000   -0.1150000   2.680627e-04  1.873879e-07
    192    202   2   0.50000     0.0600000   -0.1200000   2.494471e-04  1.671101e-07
    192    203   2   0.50000     0.0600000    0.0600000   6.128906e-05  1.496315e-08
    193    195   2   0.50000     0.0600000   -0.1150000   2.680627e-04  1.873879e-07
    193    202   2   0.50000     0.0600000   -0.1200000   2.494471e-04  1.671101e-07
    193    203   2   0.50000     0.0600000    0.0600000   6.128906e-05  1.496315e-08
    186    196   2   0.50000    -0.1200000   -0.1150000   1.091018e-03  2.092768e-06
    186    201   2   0.50000    -0.1200000   -0.1150000   1.091018e-03  2.092768e-06
    202    196   2   0.50000    -0.1200000   -0.1150000   1.091018e-03  2.092768e-06
    202    201   2   0.50000    -0.1200000   -0.1150000   1.091018e-03  2.092768e-06
    203    196   2   0.50000     0.0600000   -0.1150000   2.680627e-04  1.873879e-07
    203    201   2   0.50000     0.0600000   -0.1150000   2.680627e-04  1.873879e-07
    186    208   2   0.50000    -0.1200000    0.0600000   2.494471e-04  1.671101e-07
    186    209   2   0.50000    -0.1200000    0.0600000   2.494471e-04  1.671101e-07
    186    210   2   0.50000    -0.1200000    0.0550000   1.015252e-03  1.866303e-06
    195    208   2   0.50000    -0.1150000    0.0600000   2.680627e-04  1.873879e-07
    195    209   2   0.50000    -0.1150000    0.0600000   2.680627e-04  1.873879e-07
    195    210   2   0.50000    -0.1150000    0.0550000   1.091018e-03  2.092768e-06
    203    208   2   0.50000     0.0600000    0.0600000   6.128906e-05  1.496315e-08
    203    209   2   0.50000     0.0600000    0.0600000   6.128906e-05  1.496315e-08
    203    210   2   0.50000     0.0600000    0.0550000   2.494471e-04  1.671101e-07
    194    197   2   0.50000     0.0550000   -0.1150000   1.091018e-03  2.092768e-06
    194    204   2   0.50000     0.0550000    0.1150000   2.262583e-04  1.374848e-07
    201    197   2   0.50000    -0.1150000   -0.1150000   1.172438e-03  2.346713e-06
    201    204   2   0.50000    -0.1150000    0.1150000   2.431434e-04  1.541678e-07
    194    200   2   0.50000     0.0550000   -0.1150000   1.091018e-03  2.092768e-06
    194    207   2   0.50000     0.0550000    0.1150000   2.262583e-04  1.374848e-07
    196    200   2   0.50000    -0.1150000   -0.1150000   1.172438e-03  2.346713e-06
    196    207   2   0.50000    -0.1150000    0.1150000   2.431434e-04  1.541678e-07
    195    198   2   0.50000    -0.1150000    0.1800000   1.172438e-03  2.346713e-06
    195    205   2   0.50000    -0.1150000    0.1150000   2.431434e-04  1.541678e-07
    204    198   2   0.50000     0.1150000    0.1800000   2.431434e-04  1.541678e-07
    204    205   2   0.50000     0.1150000    0.1150000   5.042375e-05  1.012808e-08
    196    199   2   0.50000    -0.1150000   -0.1800000   2.132324e-03  3.749514e-06
    205    199   2   0.50000     0.1150000   -0.1800000   4.422072e-04  2.463251e-07
    205    200   2   0.50000     0.1150000   -0.1150000   2.431434e-04  1.541678e-07
    197    206   2   0.50000    -0.1150000    0.1150000   2.431434e-04  1.541678e-07
    199    201   2   0.50000    -0.1800000   -0.1150000   2.132324e-03  3.749514e-06
    199    206   2   0.50000    -0.1800000    0.1150000   4.422072e-04  2.463251e-07
    198    207   2   0.50000     0.1800000    0.1150000   2.431434e-04  1.541678e-07
    206    195   2   0.50000     0.1150000   -0.1150000   2.431434e-04  1.541678e-07
    206    207   2   0.50000     0.1150000    0.1150000   5.042375e-05  1.012808e-08
    194    211   2   0.50000     0.0550000   -0.1150000   1.091018e-03  2.092768e-06
    194    218   2   0.50000     0.0550000   -0.1200000   1.015252e-03  1.866303e-06
    194    219   2   0.50000     0.0550000    0.0600000   2.494471e-04  1.671101e-07
    208    211   2   0.50000     0.0600000   -0.1150000   2.680627e-04  1.873879e-07
    208    218   2   0.50000     0.0600000   -0.1200000   2.494471e-04  1.671101e-07
    208    219   2   0.50000     0.0600000    0.0600000   6.128906e-05  1.496315e-08
    209    211   2   0.50000     0.0600000   -0.1150000   2.680627e-04  1.873879e-07
    209    218   2   0.50000     0.0600000   -0.1200000   2.494471e-04  1.671101e-07
    209    219   2   0.50000     0.0600000    0.0600000   6.128906e-05  1.496315e-08
    202    212   2   0.50000    -0.1200000   -0.1150000   1.091018e-03  2.092768e-06
    202    217   2   0.50000    -0.1200000   -0.1150000   1.091018e-03  2.092768e-06
    218    212   2   0.50000    -0.1200000   -0.1150000   1.091018e-03  2.092768e-06
    218    217   2   0.50000    -0.1200000   -0.1150000   1.091018e-03  2.092768e-06
    219    212   2   0.50000     0.0600000   -0.1150000   2.680627e-04  1.873879e-07
    219    217   2   0.50000     0.0600000   -0.1150000   2.680627e-04  1.873879e-07
    202    224   2   0.50000    -0.1200000    0.0600000   2.494471e-04  1.671101e-07
    202    225   2   0.50000    -0.1200000    0.0600000   2.494471e-04  1.671101e-07
    202    226   2   0.50000    -0.1200000    0.0550000   1.015252e-03  1.866303e-06
    211    224   2   0.50000    -0.1150000    0.0600000   2.680627e-04  1.873879e-07
    211    225   2   0.50000    -0.1150000    0.0600000   2.680627e-04  1.873879e-07
    211    226   2   0.50000    -0.1150000    0.0550000   1.091018e-03  2.092768e-06
    219    224   2   0.50000     0.0600000    0.0600000   6.128906e-05  1.496315e-08
    219    225   2   0.50000     0.0600000    0.0600000   6.128906e-05  1.496315e-08
    219    226   2   0.50000     0.0600000    0.0550000   2.494471e-04  1.671101e-07
    210    213   2   0.50000     0.0550000   -0.1150000   1.091018e-03  2.092768e-06
    210    220   2   0.50000     0.0550000    0.1150000   2.262583e-04  1.374848e-07
    217    213   2   0.50000    -0.1150000   -0.1150000   1.172438e-03  2.346713e-06
    217    220   2   0.50000    -0.1150000    0.1150000   2.431434e-04  1.541678e-07
    210    216   2   0.50000     0.0550000   -0.1150000   1.091018e-03  2.092768e-06
    210    223   2   0.50000     0.0550000    0.1150000   2.262583e-04  1.374848e-07
    212    216   2   0.50000    -0.1150000   -0.1150000   1.172438e-03  2.346713e-06
    212    223   2   0.50000    -0.1150000    0.1150000   2.431434e-04  1.541678e-07
    211    214   2   0.50000    -0.1150000    0.1800000   1.172438e-03  2.346713e-06
    211    221   2   0.50000    -0.1150000    0.1150000   2.431434e-04  1.541678e-07
    220    214   2   0.50000     0.1150000    0.1800000   2.431434e-04  1.541678e-07
    220    221   2   0.50000     0.1150000    0.1150000   5.042375e-05  1.012808e-08
    212    215   2   0.50000    -0.1150000   -0.1800000   2.132324e-03  3.749514e-06
    221    215   2   0.50000     0.1150000   -0.1800000   4.422072e-04  2.463251e-07
    221    216   2   0.50000     0.1150000   -0.1150000   2.431434e-04  1.541678e-07
    213    222   2   0.50000    -0.1150000    0.1150000   2.431434e-04  1.541678e-07
    215    217   2   0.50000    -0.1800000   -0.1150000   2.132324e-03  3.749514e-06
    215    222   2   0.50000    -0.1800000    0.1150000   4.422072e-04  2.463251e-07
    214    223   2   0.50000     0.1800000    0.1150000   2.431434e-04  1.541678e-07
    222    211   2   0.50000     0.1150000   -0.1150000   2.431434e-04  1.541678e-07
    222    223   2   0.50000     0.1150000    0.1150000   5.042375e-05  1.012808e-08
    210    227   2   0.50000     0.0550000   -0.1150000   1.091018e-03  2.092768e-06
    210    234   2   0.50000     0.0550000   -0.1200000   1.015252e-03  1.866303e-06
    210    235   2   0.50000     0.0550000    0.0600000   2.494471e-04  1.671101e-07
    224    227   2   0.50000     0.0600000   -0.1150000   2.680627e-04  1.873879e-07
    224    234   2   0.50000     0.0600000   -0.1200000   2.494471e-04  1.671101e-07
    224    235   2   0.50000     0.0600000    0.0600000   6.128906e-05  1.496315e-08
    225    227   2   0.50000     0.0600000   -0.1150000   2.680627e-04  1.873879e-07
    225    234   2   0.50000     0.0600000   -0.1200000   2.494471e-04  1.671101e-07
    225    235   2   0.50000     0.0600000    0.0600000   6.128906e-05  1.496315e-08
    218    228   2   0.50000    -0.1200000   -0.1150000   1.091018e-03  2.092768e-06
    218    233   2   0.50000    -0.1200000   -0.1150000   1.091018e-03  2.092768e-06
    234    228   2   0.50000    -0.1200000   -0.1150000   1.091018e-03  2.092768e-06
    234    233   2   0.50000    -0.1200000   -0.1150000   1.091018e-03  2.092768e-06
    235    228   2   0.50000     0.0600000   -0.1150000   2.680627e-04  1.873879e-07
    235    233   2   0.50000     0.0600000   -0.1150000   2.680627e-04  1.873879e-07
    218    240   2   0.50000    -0.1200000    0.0600000   2.494471e-04  1.671101e-07
    218    241   2   0.50000    -0.1200000    0.0600000   2.494471e-04  1.671101e-07
    218    242   2   0.50000    -0.1200000    0.0550000   1.015252e-03  1.866303e-06
    227    240   2   0.50000    -0.1150000    0.0600000   2.680627e-04  1.873879e-07
    227    241   2   0.50000    -0.1150000    0.0600000   2.680627e-04  1.873879e-07
    227    242   2   0.50000    -0.1150000    0.0550000   1.091018e-03  2.092768e-06
    235    240   2   0.50000     0.0600000    0.0600000   6.128906e-05  1.496315e-08
    235    241   2   0.50000     0.0600000    0.0600000   6.128906e-05  1.496315e-08
    235    242   2   0.50000     0.0600000    0.0550000   2.494471e-04  1.671101e-07
    226    229   2   0.50000     0.0550000   -0.1150000   1.091018e-03  2.092768e-06
    226    236   2   0.50000     0.0550000    0.1150000   2.262583e-04  1.374848e-07
    233    229   2   0.50000    -0.1150000   -0.1150000   1.172438e-03  2.346713e-06
    233    236   2   0.50000    -0.1150000    0.1150000   2.431434e-04  1.541678e-07
    226    232   2   0.50000     0.0550000   -0.1150000   1.091018e-03  2.092768e-06
    226    239   2   0.50000     0.0550000    0.1150000   2.262583e-04  1.374848e-07
    228    232   2   0.50000    -0.1150000   -0.1150000   1.172438e-03  2.346713e-06
    228    239   2   0.50000    -0.1150000    0.1150000   2.431434e-04  1.541678e-07
    227    230   2   0.50000    -0.1150000    0.1800000   1.172438e-03  2.346713e-06
    227    237   2   0.50000    -0.1150000    0.1150000   2.431434e-04  1.541678e-07
    236    230   2   0.50000     0.1150000    0.1800000   2.431434e-04  1.541678e-07
    236    237   2   0.50000     0.1150000    0.1150000   5.042375e-05  1.012808e-08
    228    231   2   0.50000    -0.1150000   -0.1800000   2.132324e-03  3.749514e-06
    237    231   2   0.50000     0.1150000   -0.1800000   4.422072e-04  2.463251e-07
    237    232   2   0.50000     0.1150000   -0.1150000   2.431434e-04  1.541678e-07
    229    238   2   0.50000    -0.1150000    0.1150000   2.431434e-04  1.541678e-07
    231    233   2   0.50000    -0.1800000   -0.1150000   2.132324e-03  3.749514e-06
    231    238   2   0.50000    -0.1800000    0.1150000   4.422072e-04  2.463251e-07
    230    239   2   0.50000     0.1800000    0.1150000   2.431434e-04  1.541678e-07
    238    227   2   0.50000     0.1150000   -0.1150000   2.431434e-04  1.541678e-07
    238    239   2   0.50000     0.1150000    0.1150000   5.042375e-05  1.012808e-08
    226    243   2   0.50000     0.0550000   -0.1150000   1.091018e-03  2.092768e-06
    226    250   2   0.50000     0.0550000   -0.1200000   1.015252e-03  1.866303e-06
    226    251   2   0.50000     0.0550000    0.0600000   2.494471e-04  1.671101e-07
    240    243   2   0.50000     0.0600000   -0.1150000   2.680627e-04  1.873879e-07
    240    250   2   0.50000     0.0600000   -0.1200000   2.494471e-04  1.671101e-07
    240    251   2   0.50000     0.0600000    0.0600000   6.128906e-05  1.496315e-08
    241    243   2   0.50000     0.0600000   -0.1150000   2.680627e-04  1.873879e-07
    241    250   2   0.50000     0.0600000   -0.1200000   2.494471e-04  1.671101e-07
    241    251   2   0.50000     0.0600000    0.0600000   6.128906e-05  1.496315e-08
    234    244   2   0.50000    -0.1200000   -0.1150000   1.091018e-03  2.092768e-06
    234    249   2   0.50000    -0.1200000   -0.1150000   1.091018e-03  2.092768e-06
    250    244   2   0.50000    -0.1200000   -0.1150000   1.091018e-03  2.092768e-06
    250    249   2   0.50000    -0.1200000   -0.1150000   1.091018e-03  2.092768e-06
    251    244   2   0.50000     0.0600000   -0.1150000   2.680627e-04  1.873879e-07
    251    249   2   0.50000     0.0600000   -0.1150000   2.680627e-04  1.873879e-07
    234    256   2   0.50000    -0.1200000    0.0600000   2.494471e-04  1.671101e-07
    234    257   2   0.50000    -0.1200000    0.0600000   2.494471e-04  1.671101e-07
    234    258   2   0.50000    -0.1200000    0.0550000   1.015252e-03  1.866303e-06
    243    256   2   0.50000    -0.1150000    0.0600000   2.680627e-04  1.873879e-07
    243    257   2   0.50000    -0.1150000    0.0600000   2.680627e-04  1.873879e-07
    243    258   2   0.50000    -0.1150000    0.0550000   1.091018e-03  2.092768e-06
    251    256   2   0.50000     0.0600000    0.0600000   6.128906e-05  1.496315e-08
    251    257   2   0.50000     0.0600000    0.0600000   6.128906e-05  1.496315e-08
    251    258   2   0.50000     0.0600000    0.0550000   2.494471e-04  1.671101e-07
    242    245   2   0.50000     0.0550000   -0.1150000   1.091018e-03  2.092768e-06
    242    252   2   0.50000     0.0550000    0.1150000   2.262583e-04  1.374848e-07
    249    245   2   0.50000    -0.1150000   -0.1150000   1.172438e-03  2.346713e-06
    249    252   2   0.50000    -0.1150000    0.1150000   2.431434e-04  1.541678e-07
    242    248   2   0.50000     0.0550000   -0.1150000   1.091018e-03  2.092768e-06
    242    255   2   0.50000     0.0550000    0.1150000   2.262583e-04  1.374848e-07
    244    248   2   0.50000    -0.1150000   -0.1150000   1.172438e-03  2.346713e-06
    244    255   2   0.50000    -0.1150000    0.1150000   2.431434e-04  1.541678e-07
    243    246   2   0.50000    -0.1150000    0.1800000   1.172438e-03  2.346713e-06
    243    253   2   0.50000    -0.1150000    0.1150000   2.431434e-04  1.541678e-07
    252    246   2   0.50000     0.1150000    0.1800000   2.431434e-04  1.541678e-07
    252    253   2   0.50000     0.1150000    0.1150000   5.042375e-05  1.012808e-08
    244    247   2   0.50000    -0.1150000   -0.1800000   2.132324e-03  3.749514e-06
    253    247   2   0.50000     0.1150000   -0.1800000   4.422072e-04  2.463251e-07
    253    248   2   0.50000     0.1150000   -0.1150000   2.431434e-04  1.541678e-07
    245    254   2   0.50000    -0.1150000    0.1150000   2.431434e-04  1.541678e-07
    247    249   2   0.50000    -0.1800000   -0.1150000   2.132324e-03  3.749514e-06
    247    254   2   0.50000    -0.1800000    0.1150000   4.422072e-04  2.463251e-07
    246    255   2   0.50000     0.1800000    0.1150000   2.431434e-04  1.541678e-07
    254    243   2   0.50000     0.1150000   -0.1150000   2.431434e-04  1.541678e-07
    254    255   2   0.50000     0.1150000    0.1150000   5.042375e-05  1.012808e-08
    242    259   2   0.50000     0.0550000   -0.1150000   1.091018e-03  2.092768e-06
    242    266   2   0.50000     0.0550000   -0.1200000   1.015252e-03  1.866303e-06
    242    267   2   0.50000     0.0550000    0.0600000   2.494471e-04  1.671101e-07
    256    259   2   0.50000     0.0600000   -0.1150000   2.680627e-04  1.873879e-07
    256    266   2   0.50000     0.0600000   -0.1200000   2.494471e-04  1.671101e-07
    256    267   2   0.50000     0.0600000    0.0600000   6.128906e-05  1.496315e-08
    257    259   2   0.50000     0.0600000   -0.1150000   2.680627e-04  1.873879e-07
    257    266   2   0.50000     0.0600000   -0.1200000   2.494471e-04  1.671101e-07
    257    267   2   0.50000     0.0600000    0.0600000   6.128906e-05  1.496315e-08
    250    260   2   0.50000    -0.1200000   -0.1150000   1.091018e-03  2.092768e-06
    250    265   2   0.50000    -0.1200000   -0.1150000   1.091018e-03  2.092768e-06
    266    260   2   0.50000    -0.1200000   -0.1150000   1.091018e-03  2.092768e-06
    266    265   2   0.50000    -0.1200000   -0.1150000   1.091018e-03  2.092768e-06
    267    260   2   0.50000     0.0600000   -0.1150000   2.680627e-04  1.873879e-07
    267    265   2   0.50000     0.0600000   -0.1150000   2.680627e-04  1.873879e-07
    250    272   2   0.50000    -0.1200000    0.0600000   2.494471e-04  1.671101e-07
    250    273   2   0.50000    -0.1200000    0.0600000   2.494471e-04  1.671101e-07
    250    274   2   0.50000    -0.1200000    0.0550000   1.015252e-03  1.866303e-06
    259    272   2   0.50000    -0.1150000    0.0600000   2.680627e-04  1.873879e-07
    259    273   2   0.50000    -0.1150000    0.0600000   2.680627e-04  1.873879e-07
    259    274   2   0.50000    -0.1150000    0.0550000   1.091018e-03  2.092768e-06
    267    272   2   0.50000     0.0600000    0.0600000   6.128906e-05  1.496315e-08
    267    273   2   0.50000     0.0600000    0.0600000   6.128906e-05  1.496315e-08
    267    274   2   0.50000     0.0600000    0.0550000   2.494471e-04  1.671101e-07
    258    261   2   0.50000     0.0550000   -0.1150000   1.091018e-03  2.092768e-06
    258    268   2   0.50000     0.0550000    0.1150000   2.262583e-04  1.374848e-07
    265    261   2   0.50000    -0.1150000   -0.1150000   1.172438e-03  2.346713e-06
    265    268   2   0.50000    -0.1150000    0.1150000   2.431434e-04  1.541678e-07
    258    264   2   0.50000     0.0550000   -0.1150000   1.091018e-03  2.092768e-06
    258    271   2   0.50000     0.0550000    0.1150000   2.262583e-04  1.374848e-07
    260    264   2   0.50000    -0.1150000   -0.1150000   1.172438e-03  2.346713e-06
    260    271   2   0.50000    -0.1150000    0.1150000   2.431434e-04  1.541678e-07
    259    262   2   0.50000    -0.1150000    0.1800000   1.172438e-03  2.346713e-06
    259    269   2   0.50000    -0.1150000    0.1150000   2.431434e-04  1.541678e-07
    268    262   2   0.50000     0.1150000    0.1800000   2.431434e-04  1.541678e-07
    268    269   2   0.50000     0.1150000    0.1150000   5.042375e-05  1.012808e-08
    260    263   2   0.50000    -0.1150000   -0.1800000   2.132324e-03  3.749514e-06
    269    263   2   0.50000     0.1150000   -0.1800000   4.422072e-04  2.463251e-07
    269    264   2   0.50000     0.1150000   -0.1150000   2.431434e-04  1.541678e-07
    261    270   2   0.50000    -0.1150000    0.1150000   2.431434e-04  1.541678e-07
    263    265   2   0.50000    -0.1800000   -0.1150000   2.132324e-03  3.749514e-06
    263    270   2   0.50000    -0.1800000    0.1150000   4.422072e-04  2.463251e-07
    262    271   2   0.50000     0.1800000    0.1150000   2.431434e-04  1.541678e-07
    270    259   2   0.50000     0.1150000   -0.1150000   2.431434e-04  1.541678e-07
    270    271   2   0.50000     0.1150000    0.1150000   5.042375e-05  1.012808e-08
    258    275   2   0.50000     0.0550000   -0.1150000   1.091018e-03  2.092768e-06
    258    282   2   0.50000     0.0550000   -0.1200000   1.015252e-03  1.866303e-06
    258    283   2   0.50000     0.0550000    0.0600000   2.494471e-04  1.671101e-07
    272    275   2   0.50000     0.0600000   -0.1150000   2.680627e-04  1.873879e-07
    272    282   2   0.50000     0.0600000   -0.1200000   2.494471e-04  1.671101e-07
    272    283   2   0.50000     0.0600000    0.0600000   6.128906e-05  1.496315e-08
    273    275   2   0.50000     0.0600000   -0.1150000   2.680627e-04  1.873879e-07
    273    282   2   0.50000     0.0600000   -0.1200000   2.494471e-04  1.671101e-07
    273    283   2   0.50000     0.0600000    0.0600000   6.128906e-05  1.496315e-08
    266    276   2   0.50000    -0.1200000   -0.1150000   1.091018e-03  2.092768e-06
    266    281   2   0.50000    -0.1200000   -0.1150000   1.091018e-03  2.092768e-06
    282    276   2   0.50000    -0.1200000   -0.1150000   1.091018e-03  2.092768e-06
    282    281   2   0.50000    -0.1200000   -0.1150000   1.091018e-03  2.092768e-06
    283    276   2   0.50000     0.0600000   -0.1150000   2.680627e-04  1.873879e-07
    283    281   2   0.50000     0.0600000   -0.1150000   2.680627e-04  1.873879e-07
    266    288   2   0.50000    -0.1200000    0.0600000   2.494471e-04  1.671101e-07
    266    289   2   0.50000    -0.1200000    0.0600000   2.494471e-04  1.671101e-07
    266    290   2   0.50000    -0.1200000    0.0550000   1.015252e-03  1.866303e-06
    275    288   2   0.50000    -0.1150000    0.0600000   2.680627e-04  1.873879e-07
    275    289   2   0.50000    -0.1150000    0.0600000   2.680627e-04  1.873879e-07
    275    290   2   0.50000    -0.1150000    0.0550000   1.091018e-03  2.092768e-06
    283    288   2   0.50000     0.0600000    0.0600000   6.128906e-05  1.496315e-08
    283    289   2   0.50000     0.0600000    0.0600000   6.128906e-05  1.496315e-08
    283    290   2   0.50000     0.0600000    0.0550000   2.494471e-04  1.671101e-07
    274    277   2   0.50000     0.0550000   -0.1150000   1.091018e-03  2.092768e-06
    274    284   2   0.50000     0.0550000    0.1150000   2.262583e-04  1.374848e-07
    281    277   2   0.50000    -0.1150000   -0.1150000   1.172438e-03  2.346713e-06
    281    284   2   0.50000    -0.1150000    0.1150000   2.431434e-04  1.541678e-07
    274    280   2   0.50000     0.0550000   -0.1150000   1.091018e-03  2.092768e-06
    274    287   2   0.50000     0.0550000    0.1150000   2.262583e-04  1.374848e-07
    276    280   2   0.50000    -0.1150000   -0.1150000   1.172438e-03  2.346713e-06
    276    287   2   0.50000    -0.1150000    0.1150000   2.431434e-04  1.541678e-07
    275    278   2   0.50000    -0.1150000    0.1800000   1.172438e-03  2.346713e-06
    275    285   2   0.50000    -0.1150000    0.1150000   2.431434e-04  1.541678e-07
    284    278   2   0.50000     0.1150000    0.1800000   2.431434e-04  1.541678e-07
    284    285   2   0.50000     0.1150000    0.1150000   5.042375e-05  1.012808e-08
    276    279   2   0.50000    -0.1150000   -0.1800000   2.132324e-03  3.749514e-06
    285    279   2   0.50000     0.1150000   -0.1800000   4.422072e-04  2.463251e-07
    285    280   2   0.50000     0.1150000   -0.1150000   2.431434e-04  1.541678e-07
    277    286   2   0.50000    -0.1150000    0.1150000   2.431434e-04  1.541678e-07
    279    281   2   0.50000    -0.1800000   -0.1150000   2.132324e-03  3.749514e-06
    279    286   2   0.50000    -0.1800000    0.1150000   4.422072e-04  2.463251e-07
    278    287   2   0.50000     0.1800000    0.1150000   2.431434e-04  1.541678e-07
    286    275   2   0.50000     0.1150000   -0.1150000   2.431434e-04  1.541678e-07
    286    287   2   0.50000     0.1150000    0.1150000   5.042375e-05  1.012808e-08
    274    291   2   0.50000     0.0550000   -0.1150000   1.091018e-03  2.092768e-06
    274    298   2   0.50000     0.0550000   -0.1200000   1.015252e-03  1.866303e-06
    274    299   2   0.50000     0.0550000    0.0600000   2.494471e-04  1.671101e-07
    288    291   2   0.50000     0.0600000   -0.1150000   2.680627e-04  1.873879e-07
    288    298   2   0.50000     0.0600000   -0.1200000   2.494471e-04  1.671101e-07
    288    299   2   0.50000     0.0600000    0.0600000   6.128906e-05  1.496315e-08
    289    291   2   0.50000     0.0600000   -0.1150000   2.680627e-04  1.873879e-07
    289    298   2   0.50000     0.0600000   -0.1200000   2.494471e-04  1.671101e-07
    289    299   2   0.50000     0.0600000    0.0600000   6.128906e-05  1.496315e-08
    282    292   2   0.50000    -0.1200000   -0.1150000   1.091018e-03  2.092768e-06
    282    297   2   0.50000    -0.1200000   -0.1150000   1.091018e-03  2.092768e-06
    298    292   2   0.50000    -0.1200000   -0.1150000   1.091018e-03  2.092768e-06
    298    297   2   0.50000    -0.1200000   -0.1150000   1.091018e-03  2.092768e-06
    299    292   2   0.50000     0.0600000   -0.1150000   2.680627e-04  1.873879e-07
    299    297   2   0.50000     0.0600000   -0.1150000   2.680627e-04  1.873879e-07
    282    304   2   0.50000    -0.1200000    0.0600000   2.494471e-04  1.671101e-07
    282    305   2   0.50000    -0.1200000    0.0600000   2.494471e-04  1.671101e-07
    282    306   2   0.50000    -0.1200000    0.0550000   1.015252e-03  1.866303e-06
    291    304   2   0.50000    -0.1150000    0.0600000   2.680627e-04  1.873879e-07
    291    305   2   0.50000    -0.1150000    0.0600000   2.680627e-04  1.873879e-07
    291    306   2   0.50000    -0.1150000    0.0550000   1.091018e-03  2.092768e-06
    299    304   2   0.50000     0.0600000    0.0600000   6.128906e-05  1.496315e-08
    299    305   2   0.50000     0.0600000    0.0600000   6.128906e-05  1.496315e-08
    299    306   2   0.50000     0.0600000    0.0550000   2.494471e-04  1.671101e-07
    290    293   2   0.50000     0.0550000   -0.1150000   1.091018e-03  2.092768e-06
    290    300   2   0.50000     0.0550000    0.1150000   2.262583e-04  1.374848e-07
    297    293   2   0.50000    -0.1150000   -0.1150000   1.172438e-03  2.346713e-06
    297    300   2   0.50000    -0.1150000    0.1150000   2.431434e-04  1.541678e-07
    290    296   2   0.50000     0.0550000   -0.1150000   1.091018e-03  2.092768e-06
    290    303   2   0.50000     0.0550000    0.1150000   2.262583e-04  1.374848e-07
    292    296   2   0.50000    -0.1150000   -0.1150000   1.172438e-03  2.346713e-06
    292    303   2   0.50000    -0.1150000    0.1150000   2.431434e-04  1.541678e-07
    291    294   2   0.50000    -0.1150000    0.1800000   1.172438e-03  2.346713e-06
    291    301   2   0.50000    -0.1150000    0.1150000   2.431434e-04  1.541678e-07
    300    294   2   0.50000     0.1150000    0.1800000   2.431434e-04  1.541678e-07
    300    301   2   0.50000     0.1150000    0.1150000   5.042375e-05  1.012808e-08
    292    295   2   0.50000    -0.1150000   -0.1800000   2.132324e-03  3.749514e-06
    301    295   2   0.50000     0.1150000   -0.1800000   4.422072e-04  2.463251e-07
    301    296   2   0.50000     0.1150000   -0.1150000   2.431434e-04  1.541678e-07
    293    302   2   0.50000    -0.1150000    0.1150000   2.431434e-04  1.541678e-07
    295    297   2   0.50000    -0.1800000   -0.1150000   2.132324e-03  3.749514e-06
    295    302   2   0.50000    -0.1800000    0.1150000   4.422072e-04  2.463251e-07
    294    303   2   0.50000     0.1800000    0.1150000   2.431434e-04  1.541678e-07
    302    291   2   0.50000     0.1150000   -0.1150000   2.431434e-04  1.541678e-07
    302    303   2   0.50000     0.1150000    0.1150000   5.042375e-05  1.012808e-08
    290    307   2   0.50000     0.0550000   -0.1150000   1.091018e-03  2.092768e-06
    290    314   2   0.50000     0.0550000   -0.1800000   1.015252e-03  1.866303e-06
    290    315   2   0.50000     0.0550000    0.0600000   2.494471e-04  1.671101e-07
    304    307   2   0.50000     0.0600000   -0.1150000   2.680627e-04  1.873879e-07
    304    314   2   0.50000     0.0600000   -0.1800000   2.494471e-04  1.671101e-07
    304    315   2   0.50000     0.0600000    0.0600000   6.128906e-05  1.496315e-08
    305    307   2   0.50000     0.0600000   -0.1150000   2.680627e-04  1.873879e-07
    305    314   2   0.50000     0.0600000   -0.1800000   2.494471e-04  1.671101e-07
    305    315   2   0.50000     0.0600000    0.0600000   6.128906e-05  1.496315e-08
    298    308   2   0.50000    -0.1200000   -0.1150000   1.091018e-03  2.092768e-06
    298    313   2   0.50000    -0.1200000   -0.1150000   1.091018e-03  2.092768e-06
    314    308   2   0.50000    -0.1800000   -0.1150000   1.091018e-03  2.092768e-06
    314    313   2   0.50000    -0.1800000   -0.1150000   1.091018e-03  2.092768e-06
    315    308   2   0.50000     0.0600000   -0.1150000   2.680627e-04  1.873879e-07
    315    313   2   0.50000     0.0600000   -0.1150000   2.680627e-04  1.873879e-07
    298    320   2   0.50000    -0.1200000    0.0600000   2.494471e-04  1.671101e-07
    298    321   2   0.50000    -0.1200000    0.0600000   2.494471e-04  1.671101e-07
    298    322   2   0.50000    -0.1200000    0.0600000   2.494471e-04  1.671101e-07
    307    320   2   0.50000    -0.1150000    0.0600000   2.680627e-04  1.873879e-07
    307    321   2   0.50000    -0.1150000    0.0600000   2.680627e-04  1.873879e-07
    307    322   2   0.50000    -0.1150000    0.0600000   2.680627e-04  1.873879e-07
    315    320   2   0.50000     0.0600000    0.0600000   6.128906e-05  1.496315e-08
    315    321   2   0.50000     0.0600000    0.0600000   6.128906e-05  1.496315e-08
    315    322   2   0.50000     0.0600000    0.0600000   6.128906e-05  1.496315e-08
    306    309   2   0.50000     0.0550000   -0.1150000   1.091018e-03  2.092768e-06
    306    316   2   0.50000     0.0550000    0.1150000   2.262583e-04  1.374848e-07
    313    309   2   0.50000    -0.1150000   -0.1150000   1.172438e-03  2.346713e-06
    313    316   2   0.50000    -0.1150000    0.1150000   2.431434e-04  1.541678e-07
    306    312   2   0.50000     0.0550000   -0.1150000   1.091018e-03  2.092768e-06
    306    319   2   0.50000     0.0550000    0.1150000   2.262583e-04  1.374848e-07
    308    312   2   0.50000    -0.1150000   -0.1150000   1.172438e-03  2.346713e-06
    308    319   2   0.50000    -0.1150000    0.1150000   2.431434e-04  1.541678e-07
    307    310   2   0.50000    -0.1150000    0.1800000   1.172438e-03  2.346713e-06
    307    317   2   0.50000    -0.1150000    0.1150000   2.431434e-04  1.541678e-07
    316    310   2   0.50000     0.1150000    0.1800000   2.431434e-04  1.541678e-07
    316    317   2   0.50000     0.1150000    0.1150000   5.042375e-05  1.012808e-08
    308    311   2   0.50000    -0.1150000   -0.1800000   2.132324e-03  3.749514e-06
    317    311   2   0.50000     0.1150000   -0.1800000   4.422072e-04  2.463251e-07
    317    312   2   0.50000     0.1150000   -0.1150000   2.431434e-04  1.541678e-07
    309    318   2   0.50000    -0.1150000    0.1150000   2.431434e-04  1.541678e-07
    311    313   2   0.50000    -0.1800000   -0.1150000   2.132324e-03  3.749514e-06
    311    318   2   0.50000    -0.1800000    0.1150000   4.422072e-04  2.463251e-07
    310    319   2   0.50000     0.1800000    0.1150000   2.431434e-04  1.541678e-07
    318    307   2   0.50000     0.1150000   -0.1150000   2.431434e-04  1.541678e-07
    318    319   2   0.50000     0.1150000    0.1150000   5.042375e-05  1.012808e-08

[ angles ]
; ai  aj  ak
      2      1      9   1    112.1750    585.7600
      2      1     10   1    109.5000    292.8800
      2      1     17   1    109.5000    292.8800
      9      1     10   1    110.7000    313.8000
      9      1     17   1    110.7000    313.8000
     10      1     17   1    107.8000    276.1440
      1      2      3   1    120.0000    585.7600
      1      2      8   1    120.0000    585.7600
      3      2      8   1    120.0000    527.1840
      2      3      4   1    120.0000    527.1840
      2      3     11   1    120.0000    292.8800
      4      3     11   1    120.0000    292.8800
      3      4      5   1    120.0000    527.1840
      3      4     12   1    120.0000    292.8800
      5      4     12   1    120.0000    292.8800
      4      5      6   1    120.0000    627.6000
      4      5      7   1    120.0000    527.1840
      6      5      7   1    120.0000    627.6000
      5      7      8   1    120.0000    527.1840
      5      7     13   1    120.0000    292.8800
      8      7     13   1    120.0000    292.8800
      2      8      7   1    120.0000    527.1840
      2      8     14   1    120.0000    292.8800
      7      8     14   1    120.0000    292.8800
      1      9     15   1    110.7000    313.8000
      1      9     16   1    110.7000    313.8000
      1      9     18   1    112.7000    488.2728
     15      9     16   1    107.8000    276.1440
     15      9     18   1    110.7000    313.8000
     16      9     18   1    110.7000    313.8000
      9     18     19   1    112.1750    585.7600
      9     18     26   1    112.7000    488.2728
      9     18     27   1    110.7000    313.8000
     19     18     26   1    112.1750    585.7600
     19     18     27   1    109.5000    292.8800
     26     18     27   1    110.7000    313.8000
     18     19     20   1    120.0000    585.7600
     18     19     25   1    120.0000    585.7600
     20     19     25   1    120.0000    527.1840
     19     20     21   1    120.0000    527.1840
     19     20     28   1    120.0000    292.8800
     21     20     28   1    120.0000    292.8800
     20     21     22   1    120.0000    527.1840
     20     21     29   1    120.0000    292.8800
     22     21     29   1    120.0000    292.8800
     21     22     23   1    120.0000    627.6000
     21     22     24   1    120.0000    527.1840
     23     22     24   1    120.0000    627.6000
     22     24     25   1    120.0000    527.1840
     22     24     30   1    120.0000    292.8800
     25     24     30   1    120.0000    292.8800
     19     25     24   1    120.0000    527.1840
     19     25     31   1    120.0000    292.8800
     24     25     31   1    120.0000    292.8800
     18     26     32   1    110.7000    313.8000
     18     26     33   1    110.7000    313.8000
     18     26     34   1    112.7000    488.2728
     32     26     33   1    107.8000    276.1440
     32     26     34   1    110.7000    313.8000
     33     26     34   1    110.7000    313.8000
     26     34     35   1    112.1750    585.7600
     26     34     42   1    112.7000    488.2728
     26     34     43   1    110.7000    313.8000
     35     34     42   1    112.1750    585.7600
     35     34     43   1    109.5000    292.8800
     42     34     43   1    110.7000    313.8000
     34     35     36   1    120.0000    585.7600
     34     35     41   1    120.0000    585.7600
     36     35     41   1    120.0000    527.1840
     35     36     37   1    120.0000    527.1840
     35     36     44   1    120.0000    292.8800
     37     36     44   1    120.0000    292.8800
     36     37     38   1    120.0000    527.1840
     36     37     45   1    120.0000    292.8800
     38     37     45   1    120.0000    292.8800
     37     38     39   1    120.0000    627.6000
     37     38     40   1    120.0000    527.1840
     39     38     40   1    120.0000    627.6000
     38     40     41   1    120.0000    527.1840
     38     40     46   1    120.0000    292.8800
     41     40     46   1    120.0000    292.8800
     35     41     40   1    120.0000    527.1840
     35     41     47   1    120.0000    292.8800
     40     41     47   1    120.0000    292.8800
     34     42     48   1    110.7000    313.8000
     34     42     49   1    110.7000    313.8000
     34     42     50   1    112.7000    488.2728
     48     42     49   1    107.8000    276.1440
     48     42     50   1    110.7000    313.8000
     49     42     50   1    110.7000    313.8000
     42     50     51   1    112.1750    585.7600
     42     50     58   1    112.7000    488.2728
     42     50     59   1    110.7000    313.8000
     51     50     58   1    112.1750    585.7600
     51     50     59   1    109.5000    292.8800
     58     50     59   1    110.7000    313.8000
     50     51     52   1    120.0000    585.7600
     50     51     57   1    120.0000    585.7600
     52     51     57   1    120.0000    527.1840
     51     52     53   1    120.0000    527.1840
     51     52     60   1    120.0000    292.8800
     53     52     60   1    120.0000    292.8800
     52     53     54   1    120.0000    527.1840
     52     53     61   1    120.0000    292.8800
     54     53     61   1    120.0000    292.8800
     53     54     55   1    120.0000    627.6000
     53     54     56   1    120.0000    527.1840
     55     54     56   1    120.0000    627.6000
     54     56     57   1    120.0000    527.1840
     54     56     62   1    120.0000    292.8800
     57     56     62   1    120.0000    292.8800
     51     57     56   1    120.0000    527.1840
     51     57     63   1    120.0000    292.8800
     56     57     63   1    120.0000    292.8800
     50     58     64   1    110.7000    313.8000
     50     58     65   1    110.7000    313.8000
     50     58     66   1    112.7000    488.2728
     64     58     65   1    107.8000    276.1440
     64     58     66   1    110.7000    313.8000
     65     58     66   1    110.7000    313.8000
     58     66     67   1    112.1750    585.7600
     58     66     74   1    112.7000    488.2728
     58     66     75   1    110.7000    313.8000
     67     66     74   1    112.1750    585.7600
     67     66     75   1    109.5000    292.8800
     74     66     75   1    110.7000    313.8000
     66     67     68   1    120.0000    585.7600
     66     67     73   1    120.0000    585.7600
     68     67     73   1    120.0000    527.1840
     67     68     69   1    120.0000    527.1840
     67     68     76   1    120.0000    292.8800
     69     68     76   1    120.0000    292.8800
     68     69     70   1    120.0000    527.1840
     68     69     77   1    120.0000    292.8800
     70     69     77   1    120.0000    292.8800
     69     70     71   1    120.0000    627.6000
     69     70     72   1    120.0000    527.1840
     71     70     72   1    120.0000    627.6000
     70     72     73   1    120.0000    527.1840
     70     72     78   1    120.0000    292.8800
     73     72     78   1    120.0000    292.8800
     67     73     72   1    120.0000    527.1840
     67     73     79   1    120.0000    292.8800
     72     73     79   1    120.0000    292.8800
     66     74     80   1    110.7000    313.8000
     66     74     81   1    110.7000    313.8000
     66     74     82   1    112.7000    488.2728
     80     74     81   1    107.8000    276.1440
     80     74     82   1    110.7000    313.8000
     81     74     82   1    110.7000    313.8000
     74     82     83   1    112.1750    585.7600
     74     82     90   1    112.7000    488.2728
     74     82     91   1    110.7000    313.8000
     83     82     90   1    112.1750    585.7600
     83     82     91   1    109.5000    292.8800
     90     82     91   1    110.7000    313.8000
     82     83     84   1    120.0000    585.7600
     82     83     89   1    120.0000    585.7600
     84     83     89   1    120.0000    527.1840
     83     84     85   1    120.0000    527.1840
     83     84     92   1    120.0000    292.8800
     85     84     92   1    120.0000    292.8800
     84     85     86   1    120.0000    527.1840
     84     85     93   1    120.0000    292.8800
     86     85     93   1    120.0000    292.8800
     85     86     87   1    120.0000    627.6000
     85     86     88   1    120.0000    527.1840
     87     86     88   1    120.0000    627.6000
     86     88     89   1    120.0000    527.1840
     86     88     94   1    120.0000    292.8800
     89     88     94   1    120.0000    292.8800
     83     89     88   1    120.0000    527.1840
     83     89     95   1    120.0000    292.8800
     88     89     95   1    120.0000    292.8800
     82     90     96   1    110.7000    313.8000
     82     90     97   1    110.7000    313.8000
     82     90     98   1    112.7000    488.2728
     96     90     97   1    107.8000    276.1440
     96     90     98   1    110.7000    313.8000
     97     90     98   1    110.7000    313.8000
     90     98     99   1    112.1750    585.7600
     90     98    106   1    112.7000    488.2728
     90     98    107   1    110.7000    313.8000
     99     98    106   1    112.1750    585.7600
     99     98    107   1    109.5000    292.8800
    106     98    107   1    110.7000    313.8000
     98     99    100   1    120.0000    585.7600
     98     99    105   1    120.0000    585.7600
    100     99    105   1    120.0000    527.1840
     99    100    101   1    120.0000    527.1840
     99    100    108   1    120.0000    292.8800
    101    100    108   1    120.0000    292.8800
    100    101    102   1    120.0000    527.1840
    100    101    109   1    120.0000    292.8800
    102    101    109   1    120.0000    292.8800
    101    102    103   1    120.0000    627.6000
    101    102    104   1    120.0000    527.1840
    103    102    104   1    120.0000    627.6000
    102    104    105   1    120.0000    527.1840
    102    104    110   1    120.0000    292.8800
    105    104    110   1    120.0000    292.8800
     99    105    104   1    120.0000    527.1840
     99    105    111   1    120.0000    292.8800
    104    105    111   1    120.0000    292.8800
     98    106    112   1    110.7000    313.8000
     98    106    113   1    110.7000    313.8000
     98    106    114   1    112.7000    488.2728
    112    106    113   1    107.8000    276.1440
    112    106    114   1    110.7000    313.8000
    113    106    114   1    110.7000    313.8000
    106    114    115   1    112.1750    585.7600
    106    114    122   1    112.7000    488.2728
    106    114    123   1    110.7000    313.8000
    115    114    122   1    112.1750    585.7600
    115    114    123   1    109.5000    292.8800
    122    114    123   1    110.7000    313.8000
    114    115    116   1    120.0000    585.7600
    114    115    121   1    120.0000    585.7600
    116    115    121   1    120.0000    527.1840
    115    116    117   1    120.0000    527.1840
    115    116    124   1    120.0000    292.8800
    117    116    124   1    120.0000    292.8800
    116    117    118   1    120.0000    527.1840
    116    117    125   1    120.0000    292.8800
    118    117    125   1    120.0000    292.8800
    117    118    119   1    120.0000    627.6000
    117    118    120   1    120.0000    527.1840
    119    118    120   1    120.0000    627.6000
    118    120    121   1    120.0000    527.1840
    118    120    126   1    120.0000    292.8800
    121    120    126   1    120.0000    292.8800
    115    121    120   1    120.0000    527.1840
    115    121    127   1    120.0000    292.8800
    120    121    127   1    120.0000    292.8800
    114    122    128   1    110.7000    313.8000
    114    122    129   1    110.7000    313.8000
    114    122    130   1    112.7000    488.2728
    128    122    129   1    107.8000    276.1440
    128    122    130   1    110.7000    313.8000
    129    122    130   1    110.7000    313.8000
    122    130    131   1    112.1750    585.7600
    122    130    138   1    112.7000    488.2728
    122    130    139   1    110.7000    313.8000
    131    130    138   1    112.1750    585.7600
    131    130    139   1    109.5000    292.8800
    138    130    139   1    110.7000    313.8000
    130    131    132   1    120.0000    585.7600
    130    131    137   1    120.0000    585.7600
    132    131    137   1    120.0000    527.1840
    131    132    133   1    120.0000    527.1840
    131    132    140   1    120.0000    292.8800
    133    132    140   1    120.0000    292.8800
    132    133    134   1    120.0000    527.1840
    132    133    141   1    120.0000    292.8800
    134    133    141   1    120.0000    292.8800
    133    134    135   1    120.0000    627.6000
    133    134    136   1    120.0000    527.1840
    135    134    136   1    120.0000    627.6000
    134    136    137   1    120.0000    527.1840
    134    136    142   1    120.0000    292.8800
    137    136    142   1    120.0000    292.8800
    131    137    136   1    120.0000    527.1840
    131    137    143   1    120.0000    292.8800
    136    137    143   1    120.0000    292.8800
    130    138    144   1    110.7000    313.8000
    130    138    145   1    110.7000    313.8000
    130    138    146   1    112.7000    488.2728
    144    138    145   1    107.8000    276.1440
    144    138    146   1    110.7000    313.8000
    145    138    146   1    110.7000    313.8000
    138    146    147   1    112.1750    585.7600
    138    146    154   1    112.7000    488.2728
    138    146    155   1    110.7000    313.8000
    147    146    154   1    112.1750    585.7600
    147    146    155   1    109.5000    292.8800
    154    146    155   1    110.7000    313.8000
    146    147    148   1    120.0000    585.7600
    146    147    153   1    120.0000    585.7600
    148    147    153   1    120.0000    527.1840
    147    148    149   1    120.0000    527.1840
    147    148    156   1    120.0000    292.8800
    149    148    156   1    120.0000    292.8800
    148    149    150   1    120.0000    527.1840
    148    149    157   1    120.0000    292.8800
    150    149    157   1    120.0000    292.8800
    149    150    151   1    120.0000    627.6000
    149    150    152   1    120.0000    527.1840
    151    150    152   1    120.0000    627.6000
    150    152    153   1    120.0000    527.1840
    150    152    158   1    120.0000    292.8800
    153    152    158   1    120.0000    292.8800
    147    153    152   1    120.0000    527.1840
    147    153    159   1    120.0000    292.8800
    152    153    159   1    120.0000    292.8800
    146    154    160   1    110.7000    313.8000
    146    154    161   1    110.7000    313.8000
    146    154    162   1    112.7000    488.2728
    160    154    161   1    107.8000    276.1440
    160    154    162   1    110.7000    313.8000
    161    154    162   1    110.7000    313.8000
    154    162    163   1    112.1750    585.7600
    154    162    170   1    112.7000    488.2728
    154    162    171   1    110.7000    313.8000
    163    162    170   1    112.1750    585.7600
    163    162    171   1    109.5000    292.8800
    170    162    171   1    110.7000    313.8000
    162    163    164   1    120.0000    585.7600
    162    163    169   1    120.0000    585.7600
    164    163    169   1    120.0000    527.1840
    163    164    165   1    120.0000    527.1840
    163    164    172   1    120.0000    292.8800
    165    164    172   1    120.0000    292.8800
    164    165    166   1    120.0000    527.1840
    164    165    173   1    120.0000    292.8800
    166    165    173   1    120.0000    292.8800
    165    166    167   1    120.0000    627.6000
    165    166    168   1    120.0000    527.1840
    167    166    168   1    120.0000    627.6000
    166    168    169   1    120.0000    527.1840
    166    168    174   1    120.0000    292.8800
    169    168    174   1    120.0000    292.8800
    163    169    168   1    120.0000    527.1840
    163    169    175   1    120.0000    292.8800
    168    169    175   1    120.0000    292.8800
    162    170    176   1    110.7000    313.8000
    162    170    177   1    110.7000    313.8000
    162    170    178   1    112.7000    488.2728
    176    170    177   1    107.8000    276.1440
    176    170    178   1    110.7000    313.8000
    177    170    178   1    110.7000    313.8000
    170    178    179   1    112.1750    585.7600
    170    178    186   1    112.7000    488.2728
    170    178    187   1    110.7000    313.8000
    179    178    186   1    112.1750    585.7600
    179    178    187   1    109.5000    292.8800
    186    178    187   1    110.7000    313.8000
    178    179    180   1    120.0000    585.7600
    178    179    185   1    120.0000    585.7600
    180    179    185   1    120.0000    527.1840
    179    180    181   1    120.0000    527.1840
    179    180    188   1    120.0000    292.8800
    181    180    188   1    120.0000    292.8800
    180    181    182   1    120.0000    527.1840
    180    181    189   1    120.0000    292.8800
    182    181    189   1    120.0000    292.8800
    181    182    183   1    120.0000    627.6000
    181    182    184   1    120.0000    527.1840
    183    182    184   1    120.0000    627.6000
    182    184    185   1    120.0000    527.1840
    182    184    190   1    120.0000    292.8800
    185    184    190   1    120.0000    292.8800
    179    185    184   1    120.0000    527.1840
    179    185    191   1    120.0000    292.8800
    184    185    191   1    120.0000    292.8800
    178    186    192   1    110.7000    313.8000
    178    186    193   1    110.7000    313.8000
    178    186    194   1    112.7000    488.2728
    192    186    193   1    107.8000    276.1440
    192    186    194   1    110.7000    313.8000
    193    186    194   1    110.7000    313.8000
    186    194    195   1    112.1750    585.7600
    186    194    202   1    112.7000    488.2728
    186    194    203   1    110.7000    313.8000
    195    194    202   1    112.1750    585.7600
    195    194    203   1    109.5000    292.8800
    202    194    203   1    110.7000    313.8000
    194    195    196   1    120.0000    585.7600
    194    195    201   1    120.0000    585.7600
    196    195    201   1    120.0000    527.1840
    195    196    197   1    120.0000    527.1840
    195    196    204   1    120.0000    292.8800
    197    196    204   1    120.0000    292.8800
    196    197    198   1    120.0000    527.1840
    196    197    205   1    120.0000    292.8800
    198    197    205   1    120.0000    292.8800
    197    198    199   1    120.0000    627.6000
    197    198    200   1    120.0000    527.1840
    199    198    200   1    120.0000    627.6000
    198    200    201   1    120.0000    527.1840
    198    200    206   1    120.0000    292.8800
    201    200    206   1    120.0000    292.8800
    195    201    200   1    120.0000    527.1840
    195    201    207   1    120.0000    292.8800
    200    201    207   1    120.0000    292.8800
    194    202    208   1    110.7000    313.8000
    194    202    209   1    110.7000    313.8000
    194    202    210   1    112.7000    488.2728
    208    202    209   1    107.8000    276.1440
    208    202    210   1    110.7000    313.8000
    209    202    210   1    110.7000    313.8000
    202    210    211   1    112.1750    585.7600
    202    210    218   1    112.7000    488.2728
    202    210    219   1    110.7000    313.8000
    211    210    218   1    112.1750    585.7600
    211    210    219   1    109.5000    292.8800
    218    210    219   1    110.7000    313.8000
    210    211    212   1    120.0000    585.7600
    210    211    217   1    120.0000    585.7600
    212    211    217   1    120.0000    527.1840
    211    212    213   1    120.0000    527.1840
    211    212    220   1    120.0000    292.8800
    213    212    220   1    120.0000    292.8800
    212    213    214   1    120.0000    527.1840
    212    213    221   1    120.0000    292.8800
    214    213    221   1    120.0000    292.8800
    213    214    215   1    120.0000    627.6000
    213    214    216   1    120.0000    527.1840
    215    214    216   1    120.0000    627.6000
    214    216    217   1    120.0000    527.1840
    214    216    222   1    120.0000    292.8800
    217    216    222   1    120.0000    292.8800
    211    217    216   1    120.0000    527.1840
    211    217    223   1    120.0000    292.8800
    216    217    223   1    120.0000    292.8800
    210    218    224   1    110.7000    313.8000
    210    218    225   1    110.7000    313.8000
    210    218    226   1    112.7000    488.2728
    224    218    225   1    107.8000    276.1440
    224    218    226   1    110.7000    313.8000
    225    218    226   1    110.7000    313.8000
    218    226    227   1    112.1750    585.7600
    218    226    234   1    112.7000    488.2728
    218    226    235   1    110.7000    313.8000
    227    226    234   1    112.1750    585.7600
    227    226    235   1    109.5000    292.8800
    234    226    235   1    110.7000    313.8000
    226    227    228   1    120.0000    585.7600
    226    227    233   1    120.0000    585.7600
    228    227    233   1    120.0000    527.1840
    227    228    229   1    120.0000    527.1840
    227    228    236   1    120.0000    292.8800
    229    228    236   1    120.0000    292.8800
    228    229    230   1    120.0000    527.1840
    228    229    237   1    120.0000    292.8800
    230    229    237   1    120.0000    292.8800
    229    230    231   1    120.0000    627.6000
    229    230    232   1    120.0000    527.1840
    231    230    232   1    120.0000    627.6000
    230    232    233   1    120.0000    527.1840
    230    232    238   1    120.0000    292.8800
    233    232    238   1    120.0000    292.8800
    227    233    232   1    120.0000    527.1840
    227    233    239   1    120.0000    292.8800
    232    233    239   1    120.0000    292.8800
    226    234    240   1    110.7000    313.8000
    226    234    241   1    110.7000    313.8000
    226    234    242   1    112.7000    488.2728
    240    234    241   1    107.8000    276.1440
    240    234    242   1    110.7000    313.8000
    241    234    242   1    110.7000    313.8000
    234    242    243   1    112.1750    585.7600
    234    242    250   1    112.7000    488.2728
    234    242    251   1    110.7000    313.8000
    243    242    250   1    112.1750    585.7600
    243    242    251   1    109.5000    292.8800
    250    242    251   1    110.7000    313.8000
    242    243    244   1    120.0000    585.7600
    242    243    249   1    120.0000    585.7600
    244    243    249   1    120.0000    527.1840
    243    244    245   1    120.0000    527.1840
    243    244    252   1    120.0000    292.8800
    245    244    252   1    120.0000    292.8800
    244    245    246   1    120.0000    527.1840
    244    245    253   1    120.0000    292.8800
    246    245    253   1    120.0000    292.8800
    245    246    247   1    120.0000    627.6000
    245    246    248   1    120.0000    527.1840
    247    246    248   1    120.0000    627.6000
    246    248    249   1    120.0000    527.1840
    246    248    254   1    120.0000    292.8800
    249    248    254   1    120.0000    292.8800
    243    249    248   1    120.0000    527.1840
    243    249    255   1    120.0000    292.8800
    248    249    255   1    120.0000    292.8800
    242    250    256   1    110.7000    313.8000
    242    250    257   1    110.7000    313.8000
    242    250    258   1    112.7000    488.2728
    256    250    257   1    107.8000    276.1440
    256    250    258   1    110.7000    313.8000
    257    250    258   1    110.7000    313.8000
    250    258    259   1    112.1750    585.7600
    250    258    266   1    112.7000    488.2728
    250    258    267   1    110.7000    313.8000
    259    258    266   1    112.1750    585.7600
    259    258    267   1    109.5000    292.8800
    266    258    267   1    110.7000    313.8000
    258    259    260   1    120.0000    585.7600
    258    259    265   1    120.0000    585.7600
    260    259    265   1    120.0000    527.1840
    259    260    261   1    120.0000    527.1840
    259    260    268   1    120.0000    292.8800
    261    260    268   1    120.0000    292.8800
    260    261    262   1    120.0000    527.1840
    260    261    269   1    120.0000    292.8800
    262    261    269   1    120.0000    292.8800
    261    262    263   1    120.0000    627.6000
    261    262    264   1    120.0000    527.1840
    263    262    264   1    120.0000    627.6000
    262    264    265   1    120.0000    527.1840
    262    264    270   1    120.0000    292.8800
    265    264    270   1    120.0000    292.8800
    259    265    264   1    120.0000    527.1840
    259    265    271   1    120.0000    292.8800
    264    265    271   1    120.0000    292.8800
    258    266    272   1    110.7000    313.8000
    258    266    273   1    110.7000    313.8000
    258    266    274   1    112.7000    488.2728
    272    266    273   1    107.8000    276.1440
    272    266    274   1    110.7000    313.8000
    273    266    274   1    110.7000    313.8000
    266    274    275   1    112.1750    585.7600
    266    274    282   1    112.7000    488.2728
    266    274    283   1    110.7000    313.8000
    275    274    282   1    112.1750    585.7600
    275    274    283   1    109.5000    292.8800
    282    274    283   1    110.7000    313.8000
    274    275    276   1    120.0000    585.7600
    274    275    281   1    120.0000    585.7600
    276    275    281   1    120.0000    527.1840
    275    276    277   1    120.0000    527.1840
    275    276    284   1    120.0000    292.8800
    277    276    284   1    120.0000    292.8800
    276    277    278   1    120.0000    527.1840
    276    277    285   1    120.0000    292.8800
    278    277    285   1    120.0000    292.8800
    277    278    279   1    120.0000    627.6000
    277    278    280   1    120.0000    527.1840
    279    278    280   1    120.0000    627.6000
    278    280    281   1    120.0000    527.1840
    278    280    286   1    120.0000    292.8800
    281    280    286   1    120.0000    292.8800
    275    281    280   1    120.0000    527.1840
    275    281    287   1    120.0000    292.8800
    280    281    287   1    120.0000    292.8800
    274    282    288   1    110.7000    313.8000
    274    282    289   1    110.7000    313.8000
    274    282    290   1    112.7000    488.2728
    288    282    289   1    107.8000    276.1440
    288    282    290   1    110.7000    313.8000
    289    282    290   1    110.7000    313.8000
    282    290    291   1    112.1750    585.7600
    282    290    298   1    112.7000    488.2728
    282    290    299   1    110.7000    313.8000
    291    290    298   1    112.1750    585.7600
    291    290    299   1    109.5000    292.8800
    298    290    299   1    110.7000    313.8000
    290    291    292   1    120.0000    585.7600
    290    291    297   1    120.0000    585.7600
    292    291    297   1    120.0000    527.1840
    291    292    293   1    120.0000    527.1840
    291    292    300   1    120.0000    292.8800
    293    292    300   1    120.0000    292.8800
    292    293    294   1    120.0000    527.1840
    292    293    301   1    120.0000    292.8800
    294    293    301   1    120.0000    292.8800
    293    294    295   1    120.0000    627.6000
    293    294    296   1    120.0000    527.1840
    295    294    296   1    120.0000    627.6000
    294    296    297   1    120.0000    527.1840
    294    296    302   1    120.0000    292.8800
    297    296    302   1    120.0000    292.8800
    291    297    296   1    120.0000    527.1840
    291    297    303   1    120.0000    292.8800
    296    297    303   1    120.0000    292.8800
    290    298    304   1    110.7000    313.8000
    290    298    305   1    110.7000    313.8000
    290    298    306   1    112.7000    488.2728
    304    298    305   1    107.8000    276.1440
    304    298    306   1    110.7000    313.8000
    305    298    306   1    110.7000    313.8000
    298    306    307   1    112.1750    585.7600
    298    306    314   1    112.7000    488.2728
    298    306    315   1    110.7000    313.8000
    307    306    314   1    112.1750    585.7600
    307    306    315   1    109.5000    292.8800
    314    306    315   1    110.7000    313.8000
    306    307    308   1    120.0000    585.7600
    306    307    313   1    120.0000    585.7600
    308    307    313   1    120.0000    527.1840
    307    308    309   1    120.0000    527.1840
    307    308    316   1    120.0000    292.8800
    309    308    316   1    120.0000    292.8800
    308    309    310   1    120.0000    527.1840
    308    309    317   1    120.0000    292.8800
    310    309    317   1    120.0000    292.8800
    309    310    311   1    120.0000    627.6000
    309    310    312   1    120.0000    527.1840
    311    310    312   1    120.0000    627.6000
    310    312    313   1    120.0000    527.1840
    310    312    318   1    120.0000    292.8800
    313    312    318   1    120.0000    292.8800
    307    313    312   1    120.0000    527.1840
    307    313    319   1    120.0000    292.8800
    312    313    319   1    120.0000    292.8800
    306    314    320   1    110.7000    313.8000
    306    314    321   1    110.7000    313.8000
    306    314    322   1    110.7000    313.8000
    320    314    321   1    107.8000    276.1440
    320    314    322   1    107.8000    276.1440
    321    314    322   1    107.8000    276.1440

[ dihedrals ]
; Proper dihedrals
      9      1      2      3   5     0.00000     0.34727     0.00000  0.0
      9      1      2      8   5     0.00000     0.34727     0.00000  0.0
     10      1      2      3   5     0.00000     0.00000     0.00000  0.0
     10      1      2      8   5     0.00000     0.00000     0.00000  0.0
     17      1      2      3   5     0.00000     0.00000     0.00000  0.0
     17      1      2      8   5     0.00000     0.00000     0.00000  0.0
      2      1      9     15   5     0.00000     0.00000     3.61498  0.0
      2      1      9     16   5     0.00000     0.00000     3.61498  0.0
      2      1      9     18   5    -0.30962     3.11290    -3.95806  0.0
     10      1      9     15   5     0.00000     0.00000     1.25520  0.0
     10      1      9     16   5     0.00000     0.00000     1.25520  0.0
     10      1      9     18   5     0.00000     0.00000     1.25520  0.0
     17      1      9     15   5     0.00000     0.00000     1.25520  0.0
     17      1      9     16   5     0.00000     0.00000     1.25520  0.0
     17      1      9     18   5     0.00000     0.00000     1.25520  0.0
      1      2      3      4   5     0.00000    30.33400     0.00000  0.0
      1      2      3     11   5     0.00000    30.33400     0.00000  0.0
      8      2      3      4   5     0.00000    30.33400     0.00000  0.0
      8      2      3     11   5     0.00000    30.33400     0.00000  0.0
      1      2      8      7   5     0.00000    30.33400     0.00000  0.0
      1      2      8     14   5     0.00000    30.33400     0.00000  0.0
      3      2      8      7   5     0.00000    30.33400     0.00000  0.0
      3      2      8     14   5     0.00000    30.33400     0.00000  0.0
      2      3      4      5   5     0.00000    30.33400     0.00000  0.0
      2      3      4     12   5     0.00000    30.33400     0.00000  0.0
     11      3      4      5   5     0.00000    30.33400     0.00000  0.0
     11      3      4     12   5     0.00000    30.33400     0.00000  0.0
      3      4      5      6   5     0.00000    30.33400     0.00000  0.0
      3      4      5      7   5     0.00000    30.33400     0.00000  0.0
     12      4      5      6   5     0.00000    30.33400     0.00000  0.0
     12      4      5      7   5     0.00000    30.33400     0.00000  0.0
      4      5      7      8   5     0.00000    30.33400     0.00000  0.0
      4      5      7     13   5     0.00000    30.33400     0.00000  0.0
      6      5      7      8   5     0.00000    30.33400     0.00000  0.0
      6      5      7     13   5     0.00000    30.33400     0.00000  0.0
      5      7      8      2   5     0.00000    30.33400     0.00000  0.0
      5      7      8     14   5     0.00000    30.33400     0.00000  0.0
     13      7      8      2   5     0.00000    30.33400     0.00000  0.0
     13      7      8     14   5     0.00000    30.33400     0.00000  0.0
      1      9     18     19   5    -0.30962     3.11290    -3.95806  0.0
      1      9     18     26   5     4.74884    -0.63178     1.67360  0.0
      1      9     18     27   5     0.00000     0.00000     1.25520  0.0
     15      9     18     19   5     0.00000     0.00000     3.61498  0.0
     15      9     18     26   5     0.00000     0.00000     1.25520  0.0
     15      9     18     27   5     0.00000     0.00000     1.25520  0.0
     16      9     18     19   5     0.00000     0.00000     3.61498  0.0
     16      9     18     26   5     0.00000     0.00000     1.25520  0.0
     16      9     18     27   5     0.00000     0.00000     1.25520  0.0
      9     18     19     20   5     0.00000     0.34727     0.00000  0.0
      9     18     19     25   5     0.00000     0.34727     0.00000  0.0
     26     18     19     20   5     0.00000     0.34727     0.00000  0.0
     26     18     19     25   5     0.00000     0.34727     0.00000  0.0
     27     18     19     20   5     0.00000     0.00000     0.00000  0.0
     27     18     19     25   5     0.00000     0.00000     0.00000  0.0
      9     18     26     32   5     0.00000     0.00000     1.25520  0.0
      9     18     26     33   5     0.00000     0.00000     1.25520  0.0
      9     18     26     34   5     4.74884    -0.63178     1.67360  0.0
     19     18     26     32   5     0.00000     0.00000     3.61498  0.0
     19     18     26     33   5     0.00000     0.00000     3.61498  0.0
     19     18     26     34   5    -0.30962     3.11290    -3.95806  0.0
     27     18     26     32   5     0.00000     0.00000     1.25520  0.0
     27     18     26     33   5     0.00000     0.00000     1.25520  0.0
     27     18     26     34   5     0.00000     0.00000     1.25520  0.0
     18     19     20     21   5     0.00000    30.33400     0.00000  0.0
     18     19     20     28   5     0.00000    30.33400     0.00000  0.0
     25     19     20     21   5     0.00000    30.33400     0.00000  0.0
     25     19     20     28   5     0.00000    30.33400     0.00000  0.0
     18     19     25     24   5     0.00000    30.33400     0.00000  0.0
     18     19     25     31   5     0.00000    30.33400     0.00000  0.0
     20     19     25     24   5     0.00000    30.33400     0.00000  0.0
     20     19     25     31   5     0.00000    30.33400     0.00000  0.0
     19     20     21     22   5     0.00000    30.33400     0.00000  0.0
     19     20     21     29   5     0.00000    30.33400     0.00000  0.0
     28     20     21     22   5     0.00000    30.33400     0.00000  0.0
     28     20     21     29   5     0.00000    30.33400     0.00000  0.0
     20     21     22     23   5     0.00000    30.33400     0.00000  0.0
     20     21     22     24   5     0.00000    30.33400     0.00000  0.0
     29     21     22     23   5     0.00000    30.33400     0.00000  0.0
     29     21     22     24   5     0.00000    30.33400     0.00000  0.0
     21     22     24     25   5     0.00000    30.33400     0.00000  0.0
     21     22     24     30   5     0.00000    30.33400     0.00000  0.0
     23     22     24     25   5     0.00000    30.33400     0.00000  0.0
     23     22     24     30   5     0.00000    30.33400     0.00000  0.0
     22     24     25     19   5     0.00000    30.33400     0.00000  0.0
     22     24     25     31   5     0.00000    30.33400     0.00000  0.0
     30     24     25     19   5     0.00000    30.33400     0.00000  0.0
     30     24     25     31   5     0.00000    30.33400     0.00000  0.0
     18     26     34     35   5    -0.30962     3.11290    -3.95806  0.0
     18     26     34     42   5     4.74884    -0.63178     1.67360  0.0
     18     26     34     43   5     0.00000     0.00000     1.25520  0.0
     32     26     34     35   5     0.00000     0.00000     3.61498  0.0
     32     26     34     42   5     0.00000     0.00000     1.25520  0.0
     32     26     34     43   5     0.00000     0.00000     1.25520  0.0
     33     26     34     35   5     0.00000     0.00000     3.61498  0.0
     33     26     34     42   5     0.00000     0.00000     1.25520  0.0
     33     26     34     43   5     0.00000     0.00000     1.25520  0.0
     26     34     35     36   5     0.00000     0.34727     0.00000  0.0
     26     34     35     41   5     0.00000     0.34727     0.00000  0.0
     42     34     35     36   5     0.00000     0.34727     0.00000  0.0
     42     34     35     41   5     0.00000     0.34727     0.00000  0.0
     43     34     35     36   5     0.00000     0.00000     0.00000  0.0
     43     34     35     41   5     0.00000     0.00000     0.00000  0.0
     26     34     42     48   5     0.00000     0.00000     1.25520  0.0
     26     34     42     49   5     0.00000     0.00000     1.25520  0.0
     26     34     42     50   5     4.74884    -0.63178     1.67360  0.0
     35     34     42     48   5     0.00000     0.00000     3.61498  0.0
     35     34     42     49   5     0.00000     0.00000     3.61498  0.0
     35     34     42     50   5    -0.30962     3.11290    -3.95806  0.0
     43     34     42     48   5     0.00000     0.00000     1.25520  0.0
     43     34     42     49   5     0.00000     0.00000     1.25520  0.0
     43     34     42     50   5     0.00000     0.00000     1.25520  0.0
     34     35     36     37   5     0.00000    30.33400     0.00000  0.0
     34     35     36     44   5     0.00000    30.33400     0.00000  0.0
     41     35     36     37   5     0.00000    30.33400     0.00000  0.0
     41     35     36     44   5     0.00000    30.33400     0.00000  0.0
     34     35     41     40   5     0.00000    30.33400     0.00000  0.0
     34     35     41     47   5     0.00000    30.33400     0.00000  0.0
     36     35     41     40   5     0.00000    30.33400     0.00000  0.0
     36     35     41     47   5     0.00000    30.33400     0.00000  0.0
     35     36     37     38   5     0.00000    30.33400     0.00000  0.0
     35     36     37     45   5     0.00000    30.33400     0.00000  0.0
     44     36     37     38   5     0.00000    30.33400     0.00000  0.0
     44     36     37     45   5     0.00000    30.33400     0.00000  0.0
     36     37     38     39   5     0.00000    30.33400     0.00000  0.0
     36     37     38     40   5     0.00000    30.33400     0.00000  0.0
     45     37     38     39   5     0.00000    30.33400     0.00000  0.0
     45     37     38     40   5     0.00000    30.33400     0.00000  0.0
     37     38     40     41   5     0.00000    30.33400     0.00000  0.0
     37     38     40     46   5     0.00000    30.33400     0.00000  0.0
     39     38     40     41   5     0.00000    30.33400     0.00000  0.0
     39     38     40     46   5     0.00000    30.33400     0.00000  0.0
     38     40     41     35   5     0.00000    30.33400     0.00000  0.0
     38     40     41     47   5     0.00000    30.33400     0.00000  0.0
     46     40     41     35   5     0.00000    30.33400     0.00000  0.0
     46     40     41     47   5     0.00000    30.33400     0.00000  0.0
     34     42     50     51   5    -0.30962     3.11290    -3.95806  0.0
     34     42     50     58   5     4.74884    -0.63178     1.67360  0.0
     34     42     50     59   5     0.00000     0.00000     1.25520  0.0
     48     42     50     51   5     0.00000     0.00000     3.61498  0.0
     48     42     50     58   5     0.00000     0.00000     1.25520  0.0
     48     42     50     59   5     0.00000     0.00000     1.25520  0.0
     49     42     50     51   5     0.00000     0.00000     3.61498  0.0
     49     42     50     58   5     0.00000     0.00000     1.25520  0.0
     49     42     50     59   5     0.00000     0.00000     1.25520  0.0
     42     50     51     52   5     0.00000     0.34727     0.00000  0.0
     42     50     51     57   5     0.00000     0.34727     0.00000  0.0
     58     50     51     52   5     0.00000     0.34727     0.00000  0.0
     58     50     51     57   5     0.00000     0.34727     0.00000  0.0
     59     50     51     52   5     0.00000     0.00000     0.00000  0.0
     59     50     51     57   5     0.00000     0.00000     0.00000  0.0
     42     50     58     64   5     0.00000     0.00000     1.25520  0.0
     42     50     58     65   5     0.00000     0.00000     1.25520  0.0
     42     50     58     66   5     4.74884    -0.63178     1.67360  0.0
     51     50     58     64   5     0.00000     0.00000     3.61498  0.0
     51     50     58     65   5     0.00000     0.00000     3.61498  0.0
     51     50     58     66   5    -0.30962     3.11290    -3.95806  0.0
     59     50     58     64   5     0.00000     0.00000     1.25520  0.0
     59     50     58     65   5     0.00000     0.00000     1.25520  0.0
     59     50     58     66   5     0.00000     0.00000     1.25520  0.0
     50     51     52     53   5     0.00000    30.33400     0.00000  0.0
     50     51     52     60   5     0.00000    30.33400     0.00000  0.0
     57     51     52     53   5     0.00000    30.33400     0.00000  0.0
     57     51     52     60   5     0.00000    30.33400     0.00000  0.0
     50     51     57     56   5     0.00000    30.33400     0.00000  0.0
     50     51     57     63   5     0.00000    30.33400     0.00000  0.0
     52     51     57     56   5     0.00000    30.33400     0.00000  0.0
     52     51     57     63   5     0.00000    30.33400     0.00000  0.0
     51     52     53     54   5     0.00000    30.33400     0.00000  0.0
     51     52     53     61   5     0.00000    30.33400     0.00000  0.0
     60     52     53     54   5     0.00000    30.33400     0.00000  0.0
     60     52     53     61   5     0.00000    30.33400     0.00000  0.0
     52     53     54     55   5     0.00000    30.33400     0.00000  0.0
     52     53     54     56   5     0.00000    30.33400     0.00000  0.0
     61     53     54     55   5     0.00000    30.33400     0.00000  0.0
     61     53     54     56   5     0.00000    30.33400     0.00000  0.0
     53     54     56     57   5     0.00000    30.33400     0.00000  0.0
     53     54     56     62   5     0.00000    30.33400     0.00000  0.0
     55     54     56     57   5     0.00000    30.33400     0.00000  0.0
     55     54     56     62   5     0.00000    30.33400     0.00000  0.0
     54     56     57     51   5     0.00000    30.33400     0.00000  0.0
     54     56     57     63   5     0.00000    30.33400     0.00000  0.0
     62     56     57     51   5     0.00000    30.33400     0.00000  0.0
     62     56     57     63   5     0.00000    30.33400     0.00000  0.0
     50     58     66     67   5    -0.30962     3.11290    -3.95806  0.0
     50     58     66     74   5     4.74884    -0.63178     1.67360  0.0
     50     58     66     75   5     0.00000     0.00000     1.25520  0.0
     64     58     66     67   5     0.00000     0.00000     3.61498  0.0
     64     58     66     74   5     0.00000     0.00000     1.25520  0.0
     64     58     66     75   5     0.00000     0.00000     1.25520  0.0
     65     58     66     67   5     0.00000     0.00000     3.61498  0.0
     65     58     66     74   5     0.00000     0.00000     1.25520  0.0
     65     58     66     75   5     0.00000     0.00000     1.25520  0.0
     58     66     67     68   5     0.00000     0.34727     0.00000  0.0
     58     66     67     73   5     0.00000     0.34727     0.00000  0.0
     74     66     67     68   5     0.00000     0.34727     0.00000  0.0
     74     66     67     73   5     0.00000     0.34727     0.00000  0.0
     75     66     67     68   5     0.00000     0.00000     0.00000  0.0
     75     66     67     73   5     0.00000     0.00000     0.00000  0.0
     58     66     74     80   5     0.00000     0.00000     1.25520  0.0
     58     66     74     81   5     0.00000     0.00000     1.25520  0.0
     58     66     74     82   5     4.74884    -0.63178     1.67360  0.0
     67     66     74     80   5     0.00000     0.00000     3.61498  0.0
     67     66     74     81   5     0.00000     0.00000     3.61498  0.0
     67     66     74     82   5    -0.30962     3.11290    -3.95806  0.0
     75     66     74     80   5     0.00000     0.00000     1.25520  0.0
     75     66     74     81   5     0.00000     0.00000     1.25520  0.0
     75     66     74     82   5     0.00000     0.00000     1.25520  0.0
     66     67     68     69   5     0.00000    30.33400     0.00000  0.0
     66     67     68     76   5     0.00000    30.33400     0.00000  0.0
     73     67     68     69   5     0.00000    30.33400     0.00000  0.0
     73     67     68     76   5     0.00000    30.33400     0.00000  0.0
     66     67     73     72   5     0.00000    30.33400     0.00000  0.0
     66     67     73     79   5     0.00000    30.33400     0.00000  0.0
     68     67     73     72   5     0.00000    30.33400     0.00000  0.0
     68     67     73     79   5     0.00000    30.33400     0.00000  0.0
     67     68     69     70   5     0.00000    30.33400     0.00000  0.0
     67     68     69     77   5     0.00000    30.33400     0.00000  0.0
     76     68     69     70   5     0.00000    30.33400     0.00000  0.0
     76     68     69     77   5     0.00000    30.33400     0.00000  0.0
     68     69     70     71   5     0.00000    30.33400     0.00000  0.0
     68     69     70     72   5     0.00000    30.33400     0.00000  0.0
     77     69     70     71   5     0.00000    30.33400     0.00000  0.0
     77     69     70     72   5     0.00000    30.33400     0.00000  0.0
     69     70     72     73   5     0.00000    30.33400     0.00000  0.0
     69     70     72     78   5     0.00000    30.33400     0.00000  0.0
     71     70     72     73   5     0.00000    30.33400     0.00000  0.0
     71     70     72     78   5     0.00000    30.33400     0.00000  0.0
     70     72     73     67   5     0.00000    30.33400     0.00000  0.0
     70     72     73     79   5     0.00000    30.33400     0.00000  0.0
     78     72     73     67   5     0.00000    30.33400     0.00000  0.0
     78     72     73     79   5     0.00000    30.33400     0.00000  0.0
     66     74     82     83   5    -0.30962     3.11290    -3.95806  0.0
     66     74     82     90   5     4.74884    -0.63178     1.67360  0.0
     66     74     82     91   5     0.00000     0.00000     1.25520  0.0
     80     74     82     83   5     0.00000     0.00000     3.61498  0.0
     80     74     82     90   5     0.00000     0.00000     1.25520  0.0
     80     74     82     91   5     0.00000     0.00000     1.25520  0.0
     81     74     82     83   5     0.00000     0.00000     3.61498  0.0
     81     74     82     90   5     0.00000     0.00000     1.25520  0.0
     81     74     82     91   5     0.00000     0.00000     1.25520  0.0
     74     82     83     84   5     0.00000     0.34727     0.00000  0.0
     74     82     83     89   5     0.00000     0.34727     0.00000  0.0
     90     82     83     84   5     0.00000     0.34727     0.00000  0.0
     90     82     83     89   5     0.00000     0.34727     0.00000  0.0
     91     82     83     84   5     0.00000     0.00000     0.00000  0.0
     91     82     83     89   5     0.00000     0.00000     0.00000  0.0
     74     82     90     96   5     0.00000     0.00000     1.25520  0.0
     74     82     90     97   5     0.00000     0.00000     1.25520  0.0
     74     82     90     98   5     4.74884    -0.63178     1.67360  0.0
     83     82     90     96   5     0.00000     0.00000     3.61498  0.0
     83     82     90     97   5     0.00000     0.00000     3.61498  0.0
     83     82     90     98   5    -0.30962     3.11290    -3.95806  0.0
     91     82     90     96   5     0.00000     0.00000     1.25520  0.0
     91     82     90     97   5     0.00000     0.00000     1.25520  0.0
     91     82     90     98   5     0.00000     0.00000     1.25520  0.0
     82     83     84     85   5     0.00000    30.33400     0.00000  0.0
     82     83     84     92   5     0.00000    30.33400     0.00000  0.0
     89     83     84     85   5     0.00000    30.33400     0.00000  0.0
     89     83     84     92   5     0.00000    30.33400     0.00000  0.0
     82     83     89     88   5     0.00000    30.33400     0.00000  0.0
     82     83     89     95   5     0.00000    30.33400     0.00000  0.0
     84     83     89     88   5     0.00000    30.33400     0.00000  0.0
     84     83     89     95   5     0.00000    30.33400     0.00000  0.0
     83     84     85     86   5     0.00000    30.33400     0.00000  0.0
     83     84     85     93   5     0.00000    30.33400     0.00000  0.0
     92     84     85     86   5     0.00000    30.33400     0.00000  0.0
     92     84     85     93   5     0.00000    30.33400     0.00000  0.0
     84     85     86     87   5     0.00000    30.33400     0.00000  0.0
     84     85     86     88   5     0.00000    30.33400     0.00000  0.0
     93     85     86     87   5     0.00000    30.33400     0.00000  0.0
     93     85     86     88   5     0.00000    30.33400     0.00000  0.0
     85     86     88     89   5     0.00000    30.33400     0.00000  0.0
     85     86     88     94   5     0.00000    30.33400     0.00000  0.0
     87     86     88     89   5     0.00000    30.33400     0.00000  0.0
     87     86     88     94   5     0.00000    30.33400     0.00000  0.0
     86     88     89     83   5     0.00000    30.33400     0.00000  0.0
     86     88     89     95   5     0.00000    30.33400     0.00000  0.0
     94     88     89     83   5     0.00000    30.33400     0.00000  0.0
     94     88     89     95   5     0.00000    30.33400     0.00000  0.0
     82     90     98     99   5    -0.30962     3.11290    -3.95806  0.0
     82     90     98    106   5     4.74884    -0.63178     1.67360  0.0
     82     90     98    107   5     0.00000     0.00000     1.25520  0.0
     96     90     98     99   5     0.00000     0.00000     3.61498  0.0
     96     90     98    106   5     0.00000     0.00000     1.25520  0.0
     96     90     98    107   5     0.00000     0.00000     1.25520  0.0
     97     90     98     99   5     0.00000     0.00000     3.61498  0.0
     97     90     98    106   5     0.00000     0.00000     1.25520  0.0
     97     90     98    107   5     0.00000     0.00000     1.25520  0.0
     90     98     99    100   5     0.00000     0.34727     0.00000  0.0
     90     98     99    105   5     0.00000     0.34727     0.00000  0.0
    106     98     99    100   5     0.00000     0.34727     0.00000  0.0
    106     98     99    105   5     0.00000     0.34727     0.00000  0.0
    107     98     99    100   5     0.00000     0.00000     0.00000  0.0
    107     98     99    105   5     0.00000     0.00000     0.00000  0.0
     90     98    106    112   5     0.00000     0.00000     1.25520  0.0
     90     98    106    113   5     0.00000     0.00000     1.25520  0.0
     90     98    106    114   5     4.74884    -0.63178     1.67360  0.0
     99     98    106    112   5     0.00000     0.00000     3.61498  0.0
     99     98    106    113   5     0.00000     0.00000     3.61498  0.0
     99     98    106    114   5    -0.30962     3.11290    -3.95806  0.0
    107     98    106    112   5     0.00000     0.00000     1.25520  0.0
    107     98    106    113   5     0.00000     0.00000     1.25520  0.0
    107     98    106    114   5     0.00000     0.00000     1.25520  0.0
     98     99    100    101   5     0.00000    30.33400     0.00000  0.0
     98     99    100    108   5     0.00000    30.33400     0.00000  0.0
    105     99    100    101   5     0.00000    30.33400     0.00000  0.0
    105     99    100    108   5     0.00000    30.33400     0.00000  0.0
     98     99    105    104   5     0.00000    30.33400     0.00000  0.0
     98     99    105    111   5     0.00000    30.33400     0.00000  0.0
    100     99    105    104   5     0.00000    30.33400     0.00000  0.0
    100     99    105    111   5     0.00000    30.33400     0.00000  0.0
     99    100    101    102   5     0.00000    30.33400     0.00000  0.0
     99    100    101    109   5     0.00000    30.33400     0.00000  0.0
    108    100    101    102   5     0.00000    30.33400     0.00000  0.0
    108    100    101    109   5     0.00000    30.33400     0.00000  0.0
    100    101    102    103   5     0.00000    30.33400     0.00000  0.0
    100    101    102    104   5     0.00000    30.33400     0.00000  0.0
    109    101    102    103   5     0.00000    30.33400     0.00000  0.0
    109    101    102    104   5     0.00000    30.33400     0.00000  0.0
    101    102    104    105   5     0.00000    30.33400     0.00000  0.0
    101    102    104    110   5     0.00000    30.33400     0.00000  0.0
    103    102    104    105   5     0.00000    30.33400     0.00000  0.0
    103    102    104    110   5     0.00000    30.33400     0.00000  0.0
    102    104    105     99   5     0.00000    30.33400     0.00000  0.0
    102    104    105    111   5     0.00000    30.33400     0.00000  0.0
    110    104    105     99   5     0.00000    30.33400     0.00000  0.0
    110    104    105    111   5     0.00000    30.33400     0.00000  0.0
     98    106    114    115   5    -0.30962     3.11290    -3.95806  0.0
     98    106    114    122   5     4.74884    -0.63178     1.67360  0.0
     98    106    114    123   5     0.00000     0.00000     1.25520  0.0
    112    106    114    115   5     0.00000     0.00000     3.61498  0.0
    112    106    114    122   5     0.00000     0.00000     1.25520  0.0
    112    106    114    123   5     0.00000     0.00000     1.25520  0.0
    113    106    114    115   5     0.00000     0.00000     3.61498  0.0
    113    106    114    122   5     0.00000     0.00000     1.25520  0.0
    113    106    114    123   5     0.00000     0.00000     1.25520  0.0
    106    114    115    116   5     0.00000     0.34727     0.00000  0.0
    106    114    115    121   5     0.00000     0.34727     0.00000  0.0
    122    114    115    116   5     0.00000     0.34727     0.00000  0.0
    122    114    115    121   5     0.00000     0.34727     0.00000  0.0
    123    114    115    116   5     0.00000     0.00000     0.00000  0.0
    123    114    115    121   5     0.00000     0.00000     0.00000  0.0
    106    114    122    128   5     0.00000     0.00000     1.25520  0.0
    106    114    122    129   5     0.00000     0.00000     1.25520  0.0
    106    114    122    130   5     4.74884    -0.63178     1.67360  0.0
    115    114    122    128   5     0.00000     0.00000     3.61498  0.0
    115    114    122    129   5     0.00000     0.00000     3.61498  0.0
    115    114    122    130   5    -0.30962     3.11290    -3.95806  0.0
    123    114    122    128   5     0.00000     0.00000     1.25520  0.0
    123    114    122    129   5     0.00000     0.00000     1.25520  0.0
    123    114    122    130   5     0.00000     0.00000     1.25520  0.0
    114    115    116    117   5     0.00000    30.33400     0.00000  0.0
    114    115    116    124   5     0.00000    30.33400     0.00000  0.0
    121    115    116    117   5     0.00000    30.33400     0.00000  0.0
    121    115    116    124   5     0.00000    30.33400     0.00000  0.0
    114    115    121    120   5     0.00000    30.33400     0.00000  0.0
    114    115    121    127   5     0.00000    30.33400     0.00000  0.0
    116    115    121    120   5     0.00000    30.33400     0.00000  0.0
    116    115    121    127   5     0.00000    30.33400     0.00000  0.0
    115    116    117    118   5     0.00000    30.33400     0.00000  0.0
    115    116    117    125   5     0.00000    30.33400     0.00000  0.0
    124    116    117    118   5     0.00000    30.33400     0.00000  0.0
    124    116    117    125   5     0.00000    30.33400     0.00000  0.0
    116    117    118    119   5     0.00000    30.33400     0.00000  0.0
    116    117    118    120   5     0.00000    30.33400     0.00000  0.0
    125    117    118    119   5     0.00000    30.33400     0.00000  0.0
    125    117    118    120   5     0.00000    30.33400     0.00000  0.0
    117    118    120    121   5     0.00000    30.33400     0.00000  0.0
    117    118    120    126   5     0.00000    30.33400     0.00000  0.0
    119    118    120    121   5     0.00000    30.33400     0.00000  0.0
    119    118    120    126   5     0.00000    30.33400     0.00000  0.0
    118    120    121    115   5     0.00000    30.33400     0.00000  0.0
    118    120    121    127   5     0.00000    30.33400     0.00000  0.0
    126    120    121    115   5     0.00000    30.33400     0.00000  0.0
    126    120    121    127   5     0.00000    30.33400     0.00000  0.0
    114    122    130    131   5    -0.30962     3.11290    -3.95806  0.0
    114    122    130    138   5     4.74884    -0.63178     1.67360  0.0
    114    122    130    139   5     0.00000     0.00000     1.25520  0.0
    128    122    130    131   5     0.00000     0.00000     3.61498  0.0
    128    122    130    138   5     0.00000     0.00000     1.25520  0.0
    128    122    130    139   5     0.00000     0.00000     1.25520  0.0
    129    122    130    131   5     0.00000     0.00000     3.61498  0.0
    129    122    130    138   5     0.00000     0.00000     1.25520  0.0
    129    122    130    139   5     0.00000     0.00000     1.25520  0.0
    122    130    131    132   5     0.00000     0.34727     0.00000  0.0
    122    130    131    137   5     0.00000     0.34727     0.00000  0.0
    138    130    131    132   5     0.00000     0.34727     0.00000  0.0
    138    130    131    137   5     0.00000     0.34727     0.00000  0.0
    139    130    131    132   5     0.00000     0.00000     0.00000  0.0
    139    130    131    137   5     0.00000     0.00000     0.00000  0.0
    122    130    138    144   5     0.00000     0.00000     1.25520  0.0
    122    130    138    145   5     0.00000     0.00000     1.25520  0.0
    122    130    138    146   5     4.74884    -0.63178     1.67360  0.0
    131    130    138    144   5     0.00000     0.00000     3.61498  0.0
    131    130    138    145   5     0.00000     0.00000     3.61498  0.0
    131    130    138    146   5    -0.30962     3.11290    -3.95806  0.0
    139    130    138    144   5     0.00000     0.00000     1.25520  0.0
    139    130    138    145   5     0.00000     0.00000     1.25520  0.0
    139    130    138    146   5     0.00000     0.00000     1.25520  0.0
    130    131    132    133   5     0.00000    30.33400     0.00000  0.0
    130    131    132    140   5     0.00000    30.33400     0.00000  0.0
    137    131    132    133   5     0.00000    30.33400     0.00000  0.0
    137    131    132    140   5     0.00000    30.33400     0.00000  0.0
    130    131    137    136   5     0.00000    30.33400     0.00000  0.0
    130    131    137    143   5     0.00000    30.33400     0.00000  0.0
    132    131    137    136   5     0.00000    30.33400     0.00000  0.0
    132    131    137    143   5     0.00000    30.33400     0.00000  0.0
    131    132    133    134   5     0.00000    30.33400     0.00000  0.0
    131    132    133    141   5     0.00000    30.33400     0.00000  0.0
    140    132    133    134   5     0.00000    30.33400     0.00000  0.0
    140    132    133    141   5     0.00000    30.33400     0.00000  0.0
    132    133    134    135   5     0.00000    30.33400     0.00000  0.0
    132    133    134    136   5     0.00000    30.33400     0.00000  0.0
    141    133    134    135   5     0.00000    30.33400     0.00000  0.0
    141    133    134    136   5     0.00000    30.33400     0.00000  0.0
    133    134    136    137   5     0.00000    30.33400     0.00000  0.0
    133    134    136    142   5     0.00000    30.33400     0.00000  0.0
    135    134    136    137   5     0.00000    30.33400     0.00000  0.0
    135    134    136    142   5     0.00000    30.33400     0.00000  0.0
    134    136    137    131   5     0.00000    30.33400     0.00000  0.0
    134    136    137    143   5     0.00000    30.33400     0.00000  0.0
    142    136    137    131   5     0.00000    30.33400     0.00000  0.0
    142    136    137    143   5     0.00000    30.33400     0.00000  0.0
    130    138    146    147   5    -0.30962     3.11290    -3.95806  0.0
    130    138    146    154   5     4.74884    -0.63178     1.67360  0.0
    130    138    146    155   5     0.00000     0.00000     1.25520  0.0
    144    138    146    147   5     0.00000     0.00000     3.61498  0.0
    144    138    146    154   5     0.00000     0.00000     1.25520  0.0
    144    138    146    155   5     0.00000     0.00000     1.25520  0.0
    145    138    146    147   5     0.00000     0.00000     3.61498  0.0
    145    138    146    154   5     0.00000     0.00000     1.25520  0.0
    145    138    146    155   5     0.00000     0.00000     1.25520  0.0
    138    146    147    148   5     0.00000     0.34727     0.00000  0.0
    138    146    147    153   5     0.00000     0.34727     0.00000  0.0
    154    146    147    148   5     0.00000     0.34727     0.00000  0.0
    154    146    147    153   5     0.00000     0.34727     0.00000  0.0
    155    146    147    148   5     0.00000     0.00000     0.00000  0.0
    155    146    147    153   5     0.00000     0.00000     0.00000  0.0
    138    146    154    160   5     0.00000     0.00000     1.25520  0.0
    138    146    154    161   5     0.00000     0.00000     1.25520  0.0
    138    146    154    162   5     4.74884    -0.63178     1.67360  0.0
    147    146    154    160   5     0.00000     0.00000     3.61498  0.0
    147    146    154    161   5     0.00000     0.00000     3.61498  0.0
    147    146    154    162   5    -0.30962     3.11290    -3.95806  0.0
    155    146    154    160   5     0.00000     0.00000     1.25520  0.0
    155    146    154    161   5     0.00000     0.00000     1.25520  0.0
    155    146    154    162   5     0.00000     0.00000     1.25520  0.0
    146    147    148    149   5     0.00000    30.33400     0.00000  0.0
    146    147    148    156   5     0.00000    30.33400     0.00000  0.0
    153    147    148    149   5     0.00000    30.33400     0.00000  0.0
    153    147    148    156   5     0.00000    30.33400     0.00000  0.0
    146    147    153    152   5     0.00000    30.33400     0.00000  0.0
    146    147    153    159   5     0.00000    30.33400     0.00000  0.0
    148    147    153    152   5     0.00000    30.33400     0.00000  0.0
    148    147    153    159   5     0.00000    30.33400     0.00000  0.0
    147    148    149    150   5     0.00000    30.33400     0.00000  0.0
    147    148    149    157   5     0.00000    30.33400     0.00000  0.0
    156    148    149    150   5     0.00000    30.33400     0.00000  0.0
    156    148    149    157   5     0.00000    30.33400     0.00000  0.0
    148    149    150    151   5     0.00000    30.33400     0.00000  0.0
    148    149    150    152   5     0.00000    30.33400     0.00000  0.0
    157    149    150    151   5     0.00000    30.33400     0.00000  0.0
    157    149    150    152   5     0.00000    30.33400     0.00000  0.0
    149    150    152    153   5     0.00000    30.33400     0.00000  0.0
    149    150    152    158   5     0.00000    30.33400     0.00000  0.0
    151    150    152    153   5     0.00000    30.33400     0.00000  0.0
    151    150    152    158   5     0.00000    30.33400     0.00000  0.0
    150    152    153    147   5     0.00000    30.33400     0.00000  0.0
    150    152    153    159   5     0.00000    30.33400     0.00000  0.0
    158    152    153    147   5     0.00000    30.33400     0.00000  0.0
    158    152    153    159   5     0.00000    30.33400     0.00000  0.0
    146    154    162    163   5    -0.30962     3.11290    -3.95806  0.0
    146    154    162    170   5     4.74884    -0.63178     1.67360  0.0
    146    154    162    171   5     0.00000     0.00000     1.25520  0.0
    160    154    162    163   5     0.00000     0.00000     3.61498  0.0
    160    154    162    170   5     0.00000     0.00000     1.25520  0.0
    160    154    162    171   5     0.00000     0.00000     1.25520  0.0
    161    154    162    163   5     0.00000     0.00000     3.61498  0.0
    161    154    162    170   5     0.00000     0.00000     1.25520  0.0
    161    154    162    171   5     0.00000     0.00000     1.25520  0.0
    154    162    163    164   5     0.00000     0.34727     0.00000  0.0
    154    162    163    169   5     0.00000     0.34727     0.00000  0.0
    170    162    163    164   5     0.00000     0.34727     0.00000  0.0
    170    162    163    169   5     0.00000     0.34727     0.00000  0.0
    171    162    163    164   5     0.00000     0.00000     0.00000  0.0
    171    162    163    169   5     0.00000     0.00000     0.00000  0.0
    154    162    170    176   5     0.00000     0.00000     1.25520  0.0
    154    162    170    177   5     0.00000     0.00000     1.25520  0.0
    154    162    170    178   5     4.74884    -0.63178     1.67360  0.0
    163    162    170    176   5     0.00000     0.00000     3.61498  0.0
    163    162    170    177   5     0.00000     0.00000     3.61498  0.0
    163    162    170    178   5    -0.30962     3.11290    -3.95806  0.0
    171    162    170    176   5     0.00000     0.00000     1.25520  0.0
    171    162    170    177   5     0.00000     0.00000     1.25520  0.0
    171    162    170    178   5     0.00000     0.00000     1.25520  0.0
    162    163    164    165   5     0.00000    30.33400     0.00000  0.0
    162    163    164    172   5     0.00000    30.33400     0.00000  0.0
    169    163    164    165   5     0.00000    30.33400     0.00000  0.0
    169    163    164    172   5     0.00000    30.33400     0.00000  0.0
    162    163    169    168   5     0.00000    30.33400     0.00000  0.0
    162    163    169    175   5     0.00000    30.33400     0.00000  0.0
    164    163    169    168   5     0.00000    30.33400     0.00000  0.0
    164    163    169    175   5     0.00000    30.33400     0.00000  0.0
    163    164    165    166   5     0.00000    30.33400     0.00000  0.0
    163    164    165    173   5     0.00000    30.33400     0.00000  0.0
    172    164    165    166   5     0.00000    30.33400     0.00000  0.0
    172    164    165    173   5     0.00000    30.33400     0.00000  0.0
    164    165    166    167   5     0.00000    30.33400     0.00000  0.0
    164    165    166    168   5     0.00000    30.33400     0.00000  0.0
    173    165    166    167   5     0.00000    30.33400     0.00000  0.0
    173    165    166    168   5     0.00000    30.33400     0.00000  0.0
    165    166    168    169   5     0.00000    30.33400     0.00000  0.0
    165    166    168    174   5     0.00000    30.33400     0.00000  0.0
    167    166    168    169   5     0.00000    30.33400     0.00000  0.0
    167    166    168    174   5     0.00000    30.33400     0.00000  0.0
    166    168    169    163   5     0.00000    30.33400     0.00000  0.0
    166    168    169    175   5     0.00000    30.33400     0.00000  0.0
    174    168    169    163   5     0.00000    30.33400     0.00000  0.0
    174    168    169    175   5     0.00000    30.33400     0.00000  0.0
    162    170    178    179   5    -0.30962     3.11290    -3.95806  0.0
    162    170    178    186   5     4.74884    -0.63178     1.67360  0.0
    162    170    178    187   5     0.00000     0.00000     1.25520  0.0
    176    170    178    179   5     0.00000     0.00000     3.61498  0.0
    176    170    178    186   5     0.00000     0.00000     1.25520  0.0
    176    170    178    187   5     0.00000     0.00000     1.25520  0.0
    177    170    178    179   5     0.00000     0.00000     3.61498  0.0
    177    170    178    186   5     0.00000     0.00000     1.25520  0.0
    177    170    178    187   5     0.00000     0.00000     1.25520  0.0
    170    178    179    180   5     0.00000     0.34727     0.00000  0.0
    170    178    179    185   5     0.00000     0.34727     0.00000  0.0
    186    178    179    180   5     0.00000     0.34727     0.00000  0.0
    186    178    179    185   5     0.00000     0.34727     0.00000  0.0
    187    178    179    180   5     0.00000     0.00000     0.00000  0.0
    187    178    179    185   5     0.00000     0.00000     0.00000  0.0
    170    178    186    192   5     0.00000     0.00000     1.25520  0.0
    170    178    186    193   5     0.00000     0.00000     1.25520  0.0
    170    178    186    194   5     4.74884    -0.63178     1.67360  0.0
    179    178    186    192   5     0.00000     0.00000     3.61498  0.0
    179    178    186    193   5     0.00000     0.00000     3.61498  0.0
    179    178    186    194   5    -0.30962     3.11290    -3.95806  0.0
    187    178    186    192   5     0.00000     0.00000     1.25520  0.0
    187    178    186    193   5     0.00000     0.00000     1.25520  0.0
    187    178    186    194   5     0.00000     0.00000     1.25520  0.0
    178    179    180    181   5     0.00000    30.33400     0.00000  0.0
    178    179    180    188   5     0.00000    30.33400     0.00000  0.0
    185    179    180    181   5     0.00000    30.33400     0.00000  0.0
    185    179    180    188   5     0.00000    30.33400     0.00000  0.0
    178    179    185    184   5     0.00000    30.33400     0.00000  0.0
    178    179    185    191   5     0.00000    30.33400     0.00000  0.0
    180    179    185    184   5     0.00000    30.33400     0.00000  0.0
    180    179    185    191   5     0.00000    30.33400     0.00000  0.0
    179    180    181    182   5     0.00000    30.33400     0.00000  0.0
    179    180    181    189   5     0.00000    30.33400     0.00000  0.0
    188    180    181    182   5     0.00000    30.33400     0.00000  0.0
    188    180    181    189   5     0.00000    30.33400     0.00000  0.0
    180    181    182    183   5     0.00000    30.33400     0.00000  0.0
    180    181    182    184   5     0.00000    30.33400     0.00000  0.0
    189    181    182    183   5     0.00000    30.33400     0.00000  0.0
    189    181    182    184   5     0.00000    30.33400     0.00000  0.0
    181    182    184    185   5     0.00000    30.33400     0.00000  0.0
    181    182    184    190   5     0.00000    30.33400     0.00000  0.0
    183    182    184    185   5     0.00000    30.33400     0.00000  0.0
    183    182    184    190   5     0.00000    30.33400     0.00000  0.0
    182    184    185    179   5     0.00000    30.33400     0.00000  0.0
    182    184    185    191   5     0.00000    30.33400     0.00000  0.0
    190    184    185    179   5     0.00000    30.33400     0.00000  0.0
    190    184    185    191   5     0.00000    30.33400     0.00000  0.0
    178    186    194    195   5    -0.30962     3.11290    -3.95806  0.0
    178    186    194    202   5     4.74884    -0.63178     1.67360  0.0
    178    186    194    203   5     0.00000     0.00000     1.25520  0.0
    192    186    194    195   5     0.00000     0.00000     3.61498  0.0
    192    186    194    202   5     0.00000     0.00000     1.25520  0.0
    192    186    194    203   5     0.00000     0.00000     1.25520  0.0
    193    186    194    195   5     0.00000     0.00000     3.61498  0.0
    193    186    194    202   5     0.00000     0.00000     1.25520  0.0
    193    186    194    203   5     0.00000     0.00000     1.25520  0.0
    186    194    195    196   5     0.00000     0.34727     0.00000  0.0
    186    194    195    201   5     0.00000     0.34727     0.00000  0.0
    202    194    195    196   5     0.00000     0.34727     0.00000  0.0
    202    194    195    201   5     0.00000     0.34727     0.00000  0.0
    203    194    195    196   5     0.00000     0.00000     0.00000  0.0
    203    194    195    201   5     0.00000     0.00000     0.00000  0.0
    186    194    202    208   5     0.00000     0.00000     1.25520  0.0
    186    194    202    209   5     0.00000     0.00000     1.25520  0.0
    186    194    202    210   5     4.74884    -0.63178     1.67360  0.0
    195    194    202    208   5     0.00000     0.00000     3.61498  0.0
    195    194    202    209   5     0.00000     0.00000     3.61498  0.0
    195    194    202    210   5    -0.30962     3.11290    -3.95806  0.0
    203    194    202    208   5     0.00000     0.00000     1.25520  0.0
    203    194    202    209   5     0.00000     0.00000     1.25520  0.0
    203    194    202    210   5     0.00000     0.00000     1.25520  0.0
    194    195    196    197   5     0.00000    30.33400     0.00000  0.0
    194    195    196    204   5     0.00000    30.33400     0.00000  0.0
    201    195    196    197   5     0.00000    30.33400     0.00000  0.0
    201    195    196    204   5     0.00000    30.33400     0.00000  0.0
    194    195    201    200   5     0.00000    30.33400     0.00000  0.0
    194    195    201    207   5     0.00000    30.33400     0.00000  0.0
    196    195    201    200   5     0.00000    30.33400     0.00000  0.0
    196    195    201    207   5     0.00000    30.33400     0.00000  0.0
    195    196    197    198   5     0.00000    30.33400     0.00000  0.0
    195    196    197    205   5     0.00000    30.33400     0.00000  0.0
    204    196    197    198   5     0.00000    30.33400     0.00000  0.0
    204    196    197    205   5     0.00000    30.33400     0.00000  0.0
    196    197    198    199   5     0.00000    30.33400     0.00000  0.0
    196    197    198    200   5     0.00000    30.33400     0.00000  0.0
    205    197    198    199   5     0.00000    30.33400     0.00000  0.0
    205    197    198    200   5     0.00000    30.33400     0.00000  0.0
    197    198    200    201   5     0.00000    30.33400     0.00000  0.0
    197    198    200    206   5     0.00000    30.33400     0.00000  0.0
    199    198    200    201   5     0.00000    30.33400     0.00000  0.0
    199    198    200    206   5     0.00000    30.33400     0.00000  0.0
    198    200    201    195   5     0.00000    30.33400     0.00000  0.0
    198    200    201    207   5     0.00000    30.33400     0.00000  0.0
    206    200    201    195   5     0.00000    30.33400     0.00000  0.0
    206    200    201    207   5     0.00000    30.33400     0.00000  0.0
    194    202    210    211   5    -0.30962     3.11290    -3.95806  0.0
    194    202    210    218   5     4.74884    -0.63178     1.67360  0.0
    194    202    210    219   5     0.00000     0.00000     1.25520  0.0
    208    202    210    211   5     0.00000     0.00000     3.61498  0.0
    208    202    210    218   5     0.00000     0.00000     1.25520  0.0
    208    202    210    219   5     0.00000     0.00000     1.25520  0.0
    209    202    210    211   5     0.00000     0.00000     3.61498  0.0
    209    202    210    218   5     0.00000     0.00000     1.25520  0.0
    209    202    210    219   5     0.00000     0.00000     1.25520  0.0
    202    210    211    212   5     0.00000     0.34727     0.00000  0.0
    202    210    211    217   5     0.00000     0.34727     0.00000  0.0
    218    210    211    212   5     0.00000     0.34727     0.00000  0.0
    218    210    211    217   5     0.00000     0.34727     0.00000  0.0
    219    210    211    212   5     0.00000     0.00000     0.00000  0.0
    219    210    211    217   5     0.00000     0.00000     0.00000  0.0
    202    210    218    224   5     0.00000     0.00000     1.25520  0.0
    202    210    218    225   5     0.00000     0.00000     1.25520  0.0
    202    210    218    226   5     4.74884    -0.63178     1.67360  0.0
    211    210    218    224   5     0.00000     0.00000     3.61498  0.0
    211    210    218    225   5     0.00000     0.00000     3.61498  0.0
    211    210    218    226   5    -0.30962     3.11290    -3.95806  0.0
    219    210    218    224   5     0.00000     0.00000     1.25520  0.0
    219    210    218    225   5     0.00000     0.00000     1.25520  0.0
    219    210    218    226   5     0.00000     0.00000     1.25520  0.0
    210    211    212    213   5     0.00000    30.33400     0.00000  0.0
    210    211    212    220   5     0.00000    30.33400     0.00000  0.0
    217    211    212    213   5     0.00000    30.33400     0.00000  0.0
    217    211    212    220   5     0.00000    30.33400     0.00000  0.0
    210    211    217    216   5     0.00000    30.33400     0.00000  0.0
    210    211    217    223   5     0.00000    30.33400     0.00000  0.0
    212    211    217    216   5     0.00000    30.33400     0.00000  0.0
    212    211    217    223   5     0.00000    30.33400     0.00000  0.0
    211    212    213    214   5     0.00000    30.33400     0.00000  0.0
    211    212    213    221   5     0.00000    30.33400     0.00000  0.0
    220    212    213    214   5     0.00000    30.33400     0.00000  0.0
    220    212    213    221   5     0.00000    30.33400     0.00000  0.0
    212    213    214    215   5     0.00000    30.33400     0.00000  0.0
    212    213    214    216   5     0.00000    30.33400     0.00000  0.0
    221    213    214    215   5     0.00000    30.33400     0.00000  0.0
    221    213    214    216   5     0.00000    30.33400     0.00000  0.0
    213    214    216    217   5     0.00000    30.33400     0.00000  0.0
    213    214    216    222   5     0.00000    30.33400     0.00000  0.0
    215    214    216    217   5     0.00000    30.33400     0.00000  0.0
    215    214    216    222   5     0.00000    30.33400     0.00000  0.0
    214    216    217    211   5     0.00000    30.33400     0.00000  0.0
    214    216    217    223   5     0.00000    30.33400     0.00000  0.0
    222    216    217    211   5     0.00000    30.33400     0.00000  0.0
    222    216    217    223   5     0.00000    30.33400     0.00000  0.0
    210    218    226    227   5    -0.30962     3.11290    -3.95806  0.0
    210    218    226    234   5     4.74884    -0.63178     1.67360  0.0
    210    218    226    235   5     0.00000     0.00000     1.25520  0.0
    224    218    226    227   5     0.00000     0.00000     3.61498  0.0
    224    218    226    234   5     0.00000     0.00000     1.25520  0.0
    224    218    226    235   5     0.00000     0.00000     1.25520  0.0
    225    218    226    227   5     0.00000     0.00000     3.61498  0.0
    225    218    226    234   5     0.00000     0.00000     1.25520  0.0
    225    218    226    235   5     0.00000     0.00000     1.25520  0.0
    218    226    227    228   5     0.00000     0.34727     0.00000  0.0
    218    226    227    233   5     0.00000     0.34727     0.00000  0.0
    234    226    227    228   5     0.00000     0.34727     0.00000  0.0
    234    226    227    233   5     0.00000     0.34727     0.00000  0.0
    235    226    227    228   5     0.00000     0.00000     0.00000  0.0
    235    226    227    233   5     0.00000     0.00000     0.00000  0.0
    218    226    234    240   5     0.00000     0.00000     1.25520  0.0
    218    226    234    241   5     0.00000     0.00000     1.25520  0.0
    218    226    234    242   5     4.74884    -0.63178     1.67360  0.0
    227    226    234    240   5     0.00000     0.00000     3.61498  0.0
    227    226    234    241   5     0.00000     0.00000     3.61498  0.0
    227    226    234    242   5    -0.30962     3.11290    -3.95806  0.0
    235    226    234    240   5     0.00000     0.00000     1.25520  0.0
    235    226    234    241   5     0.00000     0.00000     1.25520  0.0
    235    226    234    242   5     0.00000     0.00000     1.25520  0.0
    226    227    228    229   5     0.00000    30.33400     0.00000  0.0
    226    227    228    236   5     0.00000    30.33400     0.00000  0.0
    233    227    228    229   5     0.00000    30.33400     0.00000  0.0
    233    227    228    236   5     0.00000    30.33400     0.00000  0.0
    226    227    233    232   5     0.00000    30.33400     0.00000  0.0
    226    227    233    239   5     0.00000    30.33400     0.00000  0.0
    228    227    233    232   5     0.00000    30.33400     0.00000  0.0
    228    227    233    239   5     0.00000    30.33400     0.00000  0.0
    227    228    229    230   5     0.00000    30.33400     0.00000  0.0
    227    228    229    237   5     0.00000    30.33400     0.00000  0.0
    236    228    229    230   5     0.00000    30.33400     0.00000  0.0
    236    228    229    237   5     0.00000    30.33400     0.00000  0.0
    228    229    230    231   5     0.00000    30.33400     0.00000  0.0
    228    229    230    232   5     0.00000    30.33400     0.00000  0.0
    237    229    230    231   5     0.00000    30.33400     0.00000  0.0
    237    229    230    232   5     0.00000    30.33400     0.00000  0.0
    229    230    232    233   5     0.00000    30.33400     0.00000  0.0
    229    230    232    238   5     0.00000    30.33400     0.00000  0.0
    231    230    232    233   5     0.00000    30.33400     0.00000  0.0
    231    230    232    238   5     0.00000    30.33400     0.00000  0.0
    230    232    233    227   5     0.00000    30.33400     0.00000  0.0
    230    232    233    239   5     0.00000    30.33400     0.00000  0.0
    238    232    233    227   5     0.00000    30.33400     0.00000  0.0
    238    232    233    239   5     0.00000    30.33400     0.00000  0.0
    226    234    242    243   5    -0.30962     3.11290    -3.95806  0.0
    226    234    242    250   5     4.74884    -0.63178     1.67360  0.0
    226    234    242    251   5     0.00000     0.00000     1.25520  0.0
    240    234    242    243   5     0.00000     0.00000     3.61498  0.0
    240    234    242    250   5     0.00000     0.00000     1.25520  0.0
    240    234    242    251   5     0.00000     0.00000     1.25520  0.0
    241    234    242    243   5     0.00000     0.00000     3.61498  0.0
    241    234    242    250   5     0.00000     0.00000     1.25520  0.0
    241    234    242    251   5     0.00000     0.00000     1.25520  0.0
    234    242    243    244   5     0.00000     0.34727     0.00000  0.0
    234    242    243    249   5     0.00000     0.34727     0.00000  0.0
    250    242    243    244   5     0.00000     0.34727     0.00000  0.0
    250    242    243    249   5     0.00000     0.34727     0.00000  0.0
    251    242    243    244   5     0.00000     0.00000     0.00000  0.0
    251    242    243    249   5     0.00000     0.00000     0.00000  0.0
    234    242    250    256   5     0.00000     0.00000     1.25520  0.0
    234    242    250    257   5     0.00000     0.00000     1.25520  0.0
    234    242    250    258   5     4.74884    -0.63178     1.67360  0.0
    243    242    250    256   5     0.00000     0.00000     3.61498  0.0
    243    242    250    257   5     0.00000     0.00000     3.61498  0.0
    243    242    250    258   5    -0.30962     3.11290    -3.95806  0.0
    251    242    250    256   5     0.00000     0.00000     1.25520  0.0
    251    242    250    257   5     0.00000     0.00000     1.25520  0.0
    251    242    250    258   5     0.00000     0.00000     1.25520  0.0
    242    243    244    245   5     0.00000    30.33400     0.00000  0.0
    242    243    244    252   5     0.00000    30.33400     0.00000  0.0
    249    243    244    245   5     0.00000    30.33400     0.00000  0.0
    249    243    244    252   5     0.00000    30.33400     0.00000  0.0
    242    243    249    248   5     0.00000    30.33400     0.00000  0.0
    242    243    249    255   5     0.00000    30.33400     0.00000  0.0
    244    243    249    248   5     0.00000    30.33400     0.00000  0.0
    244    243    249    255   5     0.00000    30.33400     0.00000  0.0
    243    244    245    246   5     0.00000    30.33400     0.00000  0.0
    243    244    245    253   5     0.00000    30.33400     0.00000  0.0
    252    244    245    246   5     0.00000    30.33400     0.00000  0.0
    252    244    245    253   5     0.00000    30.33400     0.00000  0.0
    244    245    246    247   5     0.00000    30.33400     0.00000  0.0
    244    245    246    248   5     0.00000    30.33400     0.00000  0.0
    253    245    246    247   5     0.00000    30.33400     0.00000  0.0
    253    245    246    248   5     0.00000    30.33400     0.00000  0.0
    245    246    248    249   5     0.00000    30.33400     0.00000  0.0
    245    246    248    254   5     0.00000    30.33400     0.00000  0.0
    247    246    248    249   5     0.00000    30.33400     0.00000  0.0
    247    246    248    254   5     0.00000    30.33400     0.00000  0.0
    246    248    249    243   5     0.00000    30.33400     0.00000  0.0
    246    248    249    255   5     0.00000    30.33400     0.00000  0.0
    254    248    249    243   5     0.00000    30.33400     0.00000  0.0
    254    248    249    255   5     0.00000    30.33400     0.00000  0.0
    242    250    258    259   5    -0.30962     3.11290    -3.95806  0.0
    242    250    258    266   5     4.74884    -0.63178     1.67360  0.0
    242    250    258    267   5     0.00000     0.00000     1.25520  0.0
    256    250    258    259   5     0.00000     0.00000     3.61498  0.0
    256    250    258    266   5     0.00000     0.00000     1.25520  0.0
    256    250    258    267   5     0.00000     0.00000     1.25520  0.0
    257    250    258    259   5     0.00000     0.00000     3.61498  0.0
    257    250    258    266   5     0.00000     0.00000     1.25520  0.0
    257    250    258    267   5     0.00000     0.00000     1.25520  0.0
    250    258    259    260   5     0.00000     0.34727     0.00000  0.0
    250    258    259    265   5     0.00000     0.34727     0.00000  0.0
    266    258    259    260   5     0.00000     0.34727     0.00000  0.0
    266    258    259    265   5     0.00000     0.34727     0.00000  0.0
    267    258    259    260   5     0.00000     0.00000     0.00000  0.0
    267    258    259    265   5     0.00000     0.00000     0.00000  0.0
    250    258    266    272   5     0.00000     0.00000     1.25520  0.0
    250    258    266    273   5     0.00000     0.00000     1.25520  0.0
    250    258    266    274   5     4.74884    -0.63178     1.67360  0.0
    259    258    266    272   5     0.00000     0.00000     3.61498  0.0
    259    258    266    273   5     0.00000     0.00000     3.61498  0.0
    259    258    266    274   5    -0.30962     3.11290    -3.95806  0.0
    267    258    266    272   5     0.00000     0.00000     1.25520  0.0
    267    258    266    273   5     0.00000     0.00000     1.25520  0.0
    267    258    266    274   5     0.00000     0.00000     1.25520  0.0
    258    259    260    261   5     0.00000    30.33400     0.00000  0.0
    258    259    260    268   5     0.00000    30.33400     0.00000  0.0
    265    259    260    261   5     0.00000    30.33400     0.00000  0.0
    265    259    260    268   5     0.00000    30.33400     0.00000  0.0
    258    259    265    264   5     0.00000    30.33400     0.00000  0.0
    258    259    265    271   5     0.00000    30.33400     0.00000  0.0
    260    259    265    264   5     0.00000    30.33400     0.00000  0.0
    260    259    265    271   5     0.00000    30.33400     0.00000  0.0
    259    260    261    262   5     0.00000    30.33400     0.00000  0.0
    259    260    261    269   5     0.00000    30.33400     0.00000  0.0
    268    260    261    262   5     0.00000    30.33400     0.00000  0.0
    268    260    261    269   5     0.00000    30.33400     0.00000  0.0
    260    261    262    263   5     0.00000    30.33400     0.00000  0.0
    260    261    262    264   5     0.00000    30.33400     0.00000  0.0
    269    261    262    263   5     0.00000    30.33400     0.00000  0.0
    269    261    262    264   5     0.00000    30.33400     0.00000  0.0
    261    262    264    265   5     0.00000    30.33400     0.00000  0.0
    261    262    264    270   5     0.00000    30.33400     0.00000  0.0
    263    262    264    265   5     0.00000    30.33400     0.00000  0.0
    263    262    264    270   5     0.00000    30.33400     0.00000  0.0
    262    264    265    259   5     0.00000    30.33400     0.00000  0.0
    262    264    265    271   5     0.00000    30.33400     0.00000  0.0
    270    264    265    259   5     0.00000    30.33400     0.00000  0.0
    270    264    265    271   5     0.00000    30.33400     0.00000  0.0
    258    266    274    275   5    -0.30962     3.11290    -3.95806  0.0
    258    266    274    282   5     4.74884    -0.63178     1.67360  0.0
    258    266    274    283   5     0.00000     0.00000     1.25520  0.0
    272    266    274    275   5     0.00000     0.00000     3.61498  0.0
    272    266    274    282   5     0.00000     0.00000     1.25520  0.0
    272    266    274    283   5     0.00000     0.00000     1.25520  0.0
    273    266    274    275   5     0.00000     0.00000     3.61498  0.0
    273    266    274    282   5     0.00000     0.00000     1.25520  0.0
    273    266    274    283   5     0.00000     0.00000     1.25520  0.0
    266    274    275    276   5     0.00000     0.34727     0.00000  0.0
    266    274    275    281   5     0.00000     0.34727     0.00000  0.0
    282    274    275    276   5     0.00000     0.34727     0.00000  0.0
    282    274    275    281   5     0.00000     0.34727     0.00000  0.0
    283    274    275    276   5     0.00000     0.00000     0.00000  0.0
    283    274    275    281   5     0.00000     0.00000     0.00000  0.0
    266    274    282    288   5     0.00000     0.00000     1.25520  0.0
    266    274    282    289   5     0.00000     0.00000     1.25520  0.0
    266    274    282    290   5     4.74884    -0.63178     1.67360  0.0
    275    274    282    288   5     0.00000     0.00000     3.61498  0.0
    275    274    282    289   5     0.00000     0.00000     3.61498  0.0
    275    274    282    290   5    -0.30962     3.11290    -3.95806  0.0
    283    274    282    288   5     0.00000     0.00000     1.25520  0.0
    283    274    282    289   5     0.00000     0.00000     1.25520  0.0
    283    274    282    290   5     0.00000     0.00000     1.25520  0.0
    274    275    276    277   5     0.00000    30.33400     0.00000  0.0
    274    275    276    284   5     0.00000    30.33400     0.00000  0.0
    281    275    276    277   5     0.00000    30.33400     0.00000  0.0
    281    275    276    284   5     0.00000    30.33400     0.00000  0.0
    274    275    281    280   5     0.00000    30.33400     0.00000  0.0
    274    275    281    287   5     0.00000    30.33400     0.00000  0.0
    276    275    281    280   5     0.00000    30.33400     0.00000  0.0
    276    275    281    287   5     0.00000    30.33400     0.00000  0.0
    275    276    277    278   5     0.00000    30.33400     0.00000  0.0
    275    276    277    285   5     0.00000    30.33400     0.00000  0.0
    284    276    277    278   5     0.00000    30.33400     0.00000  0.0
    284    276    277    285   5     0.00000    30.33400     0.00000  0.0
    276    277    278    279   5     0.00000    30.33400     0.00000  0.0
    276    277    278    280   5     0.00000    30.33400     0.00000  0.0
    285    277    278    279   5     0.00000    30.33400     0.00000  0.0
    285    277    278    280   5     0.00000    30.33400     0.00000  0.0
    277    278    280    281   5     0.00000    30.33400     0.00000  0.0
    277    278    280    286   5     0.00000    30.33400     0.00000  0.0
    279    278    280    281   5     0.00000    30.33400     0.00000  0.0
    279    278    280    286   5     0.00000    30.33400     0.00000  0.0
    278    280    281    275   5     0.00000    30.33400     0.00000  0.0
    278    280    281    287   5     0.00000    30.33400     0.00000  0.0
    286    280    281    275   5     0.00000    30.33400     0.00000  0.0
    286    280    281    287   5     0.00000    30.33400     0.00000  0.0
    274    282    290    291   5    -0.30962     3.11290    -3.95806  0.0
    274    282    290    298   5     4.74884    -0.63178     1.67360  0.0
    274    282    290    299   5     0.00000     0.00000     1.25520  0.0
    288    282    290    291   5     0.00000     0.00000     3.61498  0.0
    288    282    290    298   5     0.00000     0.00000     1.25520  0.0
    288    282    290    299   5     0.00000     0.00000     1.25520  0.0
    289    282    290    291   5     0.00000     0.00000     3.61498  0.0
    289    282    290    298   5     0.00000     0.00000     1.25520  0.0
    289    282    290    299   5     0.00000     0.00000     1.25520  0.0
    282    290    291    292   5     0.00000     0.34727     0.00000  0.0
    282    290    291    297   5     0.00000     0.34727     0.00000  0.0
    298    290    291    292   5     0.00000     0.34727     0.00000  0.0
    298    290    291    297   5     0.00000     0.34727     0.00000  0.0
    299    290    291    292   5     0.00000     0.00000     0.00000  0.0
    299    290    291    297   5     0.00000     0.00000     0.00000  0.0
    282    290    298    304   5     0.00000     0.00000     1.25520  0.0
    282    290    298    305   5     0.00000     0.00000     1.25520  0.0
    282    290    298    306   5     4.74884    -0.63178     1.67360  0.0
    291    290    298    304   5     0.00000     0.00000     3.61498  0.0
    291    290    298    305   5     0.00000     0.00000     3.61498  0.0
    291    290    298    306   5    -0.30962     3.11290    -3.95806  0.0
    299    290    298    304   5     0.00000     0.00000     1.25520  0.0
    299    290    298    305   5     0.00000     0.00000     1.25520  0.0
    299    290    298    306   5     0.00000     0.00000     1.25520  0.0
    290    291    292    293   5     0.00000    30.33400     0.00000  0.0
    290    291    292    300   5     0.00000    30.33400     0.00000  0.0
    297    291    292    293   5     0.00000    30.33400     0.00000  0.0
    297    291    292    300   5     0.00000    30.33400     0.00000  0.0
    290    291    297    296   5     0.00000    30.33400     0.00000  0.0
    290    291    297    303   5     0.00000    30.33400     0.00000  0.0
    292    291    297    296   5     0.00000    30.33400     0.00000  0.0
    292    291    297    303   5     0.00000    30.33400     0.00000  0.0
    291    292    293    294   5     0.00000    30.33400     0.00000  0.0
    291    292    293    301   5     0.00000    30.33400     0.00000  0.0
    300    292    293    294   5     0.00000    30.33400     0.00000  0.0
    300    292    293    301   5     0.00000    30.33400     0.00000  0.0
    292    293    294    295   5     0.00000    30.33400     0.00000  0.0
    292    293    294    296   5     0.00000    30.33400     0.00000  0.0
    301    293    294    295   5     0.00000    30.33400     0.00000  0.0
    301    293    294    296   5     0.00000    30.33400     0.00000  0.0
    293    294    296    297   5     0.00000    30.33400     0.00000  0.0
    293    294    296    302   5     0.00000    30.33400     0.00000  0.0
    295    294    296    297   5     0.00000    30.33400     0.00000  0.0
    295    294    296    302   5     0.00000    30.33400     0.00000  0.0
    294    296    297    291   5     0.00000    30.33400     0.00000  0.0
    294    296    297    303   5     0.00000    30.33400     0.00000  0.0
    302    296    297    291   5     0.00000    30.33400     0.00000  0.0
    302    296    297    303   5     0.00000    30.33400     0.00000  0.0
    290    298    306    307   5    -0.30962     3.11290    -3.95806  0.0
    290    298    306    314   5     4.74884    -0.63178     1.67360  0.0
    290    298    306    315   5     0.00000     0.00000     1.25520  0.0
    304    298    306    307   5     0.00000     0.00000     3.61498  0.0
    304    298    306    314   5     0.00000     0.00000     1.25520  0.0
    304    298    306    315   5     0.00000     0.00000     1.25520  0.0
    305    298    306    307   5     0.00000     0.00000     3.61498  0.0
    305    298    306    314   5     0.00000     0.00000     1.25520  0.0
    305    298    306    315   5     0.00000     0.00000     1.25520  0.0
    298    306    307    308   5     0.00000     0.34727     0.00000  0.0
    298    306    307    313   5     0.00000     0.34727     0.00000  0.0
    314    306    307    308   5     0.00000     0.34727     0.00000  0.0
    314    306    307    313   5     0.00000     0.34727     0.00000  0.0
    315    306    307    308   5     0.00000     0.00000     0.00000  0.0
    315    306    307    313   5     0.00000     0.00000     0.00000  0.0
    298    306    314    320   5     0.00000     0.00000     1.25520  0.0
    298    306    314    321   5     0.00000     0.00000     1.25520  0.0
    298    306    314    322   5     0.00000     0.00000     1.25520  0.0
    307    306    314    320   5     0.00000     0.00000     3.61498  0.0
    307    306    314    321   5     0.00000     0.00000     3.61498  0.0
    307    306    314    322   5     0.00000     0.00000     3.61498  0.0
    315    306    314    320   5     0.00000     0.00000     1.25520  0.0
    315    306    314    321   5     0.00000     0.00000     1.25520  0.0
    315    306    314    322   5     0.00000     0.00000     1.25520  0.0
    306    307    308    309   5     0.00000    30.33400     0.00000  0.0
    306    307    308    316   5     0.00000    30.33400     0.00000  0.0
    313    307    308    309   5     0.00000    30.33400     0.00000  0.0
    313    307    308    316   5     0.00000    30.33400     0.00000  0.0
    306    307    313    312   5     0.00000    30.33400     0.00000  0.0
    306    307    313    319   5     0.00000    30.33400     0.00000  0.0
    308    307    313    312   5     0.00000    30.33400     0.00000  0.0
    308    307    313    319   5     0.00000    30.33400     0.00000  0.0
    307    308    309    310   5     0.00000    30.33400     0.00000  0.0
    307    308    309    317   5     0.00000    30.33400     0.00000  0.0
    316    308    309    310   5     0.00000    30.33400     0.00000  0.0
    316    308    309    317   5     0.00000    30.33400     0.00000  0.0
    308    309    310    311   5     0.00000    30.33400     0.00000  0.0
    308    309    310    312   5     0.00000    30.33400     0.00000  0.0
    317    309    310    311   5     0.00000    30.33400     0.00000  0.0
    317    309    310    312   5     0.00000    30.33400     0.00000  0.0
    309    310    312    313   5     0.00000    30.33400     0.00000  0.0
    309    310    312    318   5     0.00000    30.33400     0.00000  0.0
    311    310    312    313   5     0.00000    30.33400     0.00000  0.0
    311    310    312    318   5     0.00000    30.33400     0.00000  0.0
    310    312    313    307   5     0.00000    30.33400     0.00000  0.0
    310    312    313    319   5     0.00000    30.33400     0.00000  0.0
    318    312    313    307   5     0.00000    30.33400     0.00000  0.0
    318    312    313    319   5     0.00000    30.33400     0.00000  0.0

[ dihedrals ]
; Improper dihedrals
; h   i   j   k   funct
      1      3      2      8   5     0.00000    33.47200     0.00000  0.0
      2      4      3     11   5     0.00000     9.20480     0.00000  0.0
      3      5      4     12   5     0.00000     9.20480     0.00000  0.0
      4      6      5      7   5     0.00000    33.47200     0.00000  0.0
      5      8      7     13   5     0.00000     9.20480     0.00000  0.0
      2      7      8     14   5     0.00000     9.20480     0.00000  0.0
     18     20     19     25   5     0.00000    33.47200     0.00000  0.0
     19     21     20     28   5     0.00000     9.20480     0.00000  0.0
     20     22     21     29   5     0.00000     9.20480     0.00000  0.0
     21     23     22     24   5     0.00000    33.47200     0.00000  0.0
     22     25     24     30   5     0.00000     9.20480     0.00000  0.0
     19     24     25     31   5     0.00000     9.20480     0.00000  0.0
     34     36     35     41   5     0.00000    33.47200     0.00000  0.0
     35     37     36     44   5     0.00000     9.20480     0.00000  0.0
     36     38     37     45   5     0.00000     9.20480     0.00000  0.0
     37     39     38     40   5     0.00000    33.47200     0.00000  0.0
     38     41     40     46   5     0.00000     9.20480     0.00000  0.0
     35     40     41     47   5     0.00000     9.20480     0.00000  0.0
     50     52     51     57   5     0.00000    33.47200     0.00000  0.0
     51     53     52     60   5     0.00000     9.20480     0.00000  0.0
     52     54     53     61   5     0.00000     9.20480     0.00000  0.0
     53     55     54     56   5     0.00000    33.47200     0.00000  0.0
     54     57     56     62   5     0.00000     9.20480     0.00000  0.0
     51     56     57     63   5     0.00000     9.20480     0.00000  0.0
     66     68     67     73   5     0.00000    33.47200     0.00000  0.0
     67     69     68     76   5     0.00000     9.20480     0.00000  0.0
     68     70     69     77   5     0.00000     9.20480     0.00000  0.0
     69     71     70     72   5     0.00000    33.47200     0.00000  0.0
     70     73     72     78   5     0.00000     9.20480     0.00000  0.0
     67     72     73     79   5     0.00000     9.20480     0.00000  0.0
     82     84     83     89   5     0.00000    33.47200     0.00000  0.0
     83     85     84     92   5     0.00000     9.20480     0.00000  0.0
     84     86     85     93   5     0.00000     9.20480     0.00000  0.0
     85     87     86     88   5     0.00000    33.47200     0.00000  0.0
     86     89     88     94   5     0.00000     9.20480     0.00000  0.0
     83     88     89     95   5     0.00000     9.20480     0.00000  0.0
     98    100     99    105   5     0.00000    33.47200     0.00000  0.0
     99    101    100    108   5     0.00000     9.20480     0.00000  0.0
    100    102    101    109   5     0.00000     9.20480     0.00000  0.0
    101    103    102    104   5     0.00000    33.47200     0.00000  0.0
    102    105    104    110   5     0.00000     9.20480     0.00000  0.0
     99    104    105    111   5     0.00000     9.20480     0.00000  0.0
    114    116    115    121   5     0.00000    33.47200     0.00000  0.0
    115    117    116    124   5     0.00000     9.20480     0.00000  0.0
    116    118    117    125   5     0.00000     9.20480     0.00000  0.0
    117    119    118    120   5     0.00000    33.47200     0.00000  0.0
    118    121    120    126   5     0.00000     9.20480     0.00000  0.0
    115    120    121    127   5     0.00000     9.20480     0.00000  0.0
    130    132    131    137   5     0.00000    33.47200     0.00000  0.0
    131    133    132    140   5     0.00000     9.20480     0.00000  0.0
    132    134    133    141   5     0.00000     9.20480     0.00000  0.0
    133    135    134    136   5     0.00000    33.47200     0.00000  0.0
    134    137    136    142   5     0.00000     9.20480     0.00000  0.0
    131    136    137    143   5     0.00000     9.20480     0.00000  0.0
    146    148    147    153   5     0.00000    33.47200     0.00000  0.0
    147    149    148    156   5     0.00000     9.20480     0.00000  0.0
    148    150    149    157   5     0.00000     9.20480     0.00000  0.0
    149    151    150    152   5     0.00000    33.47200     0.00000  0.0
    150    153    152    158   5     0.00000     9.20480     0.00000  0.0
    147    152    153    159   5     0.00000     9.20480     0.00000  0.0
    162    164    163    169   5     0.00000    33.47200     0.00000  0.0
    163    165    164    172   5     0.00000     9.20480     0.00000  0.0
    164    166    165    173   5     0.00000     9.20480     0.00000  0.0
    165    167    166    168   5     0.00000    33.47200     0.00000  0.0
    166    169    168    174   5     0.00000     9.20480     0.00000  0.0
    163    168    169    175   5     0.00000     9.20480     0.00000  0.0
    178    180    179    185   5     0.00000    33.47200     0.00000  0.0
    179    181    180    188   5     0.00000     9.20480     0.00000  0.0
    180    182    181    189   5     0.00000     9.20480     0.00000  0.0
    181    183    182    184   5     0.00000    33.47200     0.00000  0.0
    182    185    184    190   5     0.00000     9.20480     0.00000  0.0
    179    184    185    191   5     0.00000     9.20480     0.00000  0.0
    194    196    195    201   5     0.00000    33.47200     0.00000  0.0
    195    197    196    204   5     0.00000     9.20480     0.00000  0.0
    196    198    197    205   5     0.00000     9.20480     0.00000  0.0
    197    199    198    200   5     0.00000    33.47200     0.00000  0.0
    198    201    200    206   5     0.00000     9.20480     0.00000  0.0
    195    200    201    207   5     0.00000     9.20480     0.00000  0.0
    210    212    211    217   5     0.00000    33.47200     0.00000  0.0
    211    213    212    220   5     0.00000     9.20480     0.00000  0.0
    212    214    213    221   5     0.00000     9.20480     0.00000  0.0
    213    215    214    216   5     0.00000    33.47200     0.00000  0.0
    214    217    216    222   5     0.00000     9.20480     0.00000  0.0
    211    216    217    223   5     0.00000     9.20480     0.00000  0.0
    226    228    227    233   5     0.00000    33.47200     0.00000  0.0
    227    229    228    236   5     0.00000     9.20480     0.00000  0.0
    228    230    229    237   5     0.00000     9.20480     0.00000  0.0
    229    231    230    232   5     0.00000    33.47200     0.00000  0.0
    230    233    232    238   5     0.00000     9.20480     0.00000  0.0
    227    232    233    239   5     0.00000     9.20480     0.00000  0.0
    242    244    243    249   5     0.00000    33.47200     0.00000  0.0
    243    245    244    252   5     0.00000     9.20480     0.00000  0.0
    244    246    245    253   5     0.00000     9.20480     0.00000  0.0
    245    247    246    248   5     0.00000    33.47200     0.00000  0.0
    246    249    248    254   5     0.00000     9.20480     0.00000  0.0
    243    248    249    255   5     0.00000     9.20480     0.00000  0.0
    258    260    259    265   5     0.00000    33.47200     0.00000  0.0
    259    261    260    268   5     0.00000     9.20480     0.00000  0.0
    260    262    261    269   5     0.00000     9.20480     0.00000  0.0
    261    263    262    264   5     0.00000    33.47200     0.00000  0.0
    262    265    264    270   5     0.00000     9.20480     0.00000  0.0
    259    264    265    271   5     0.00000     9.20480     0.00000  0.0
    274    276    275    281   5     0.00000    33.47200     0.00000  0.0
    275    277    276    284   5     0.00000     9.20480     0.00000  0.0
    276    278    277    285   5     0.00000     9.20480     0.00000  0.0
    277    279    278    280   5     0.00000    33.47200     0.00000  0.0
    278    281    280    286   5     0.00000     9.20480     0.00000  0.0
    275    280    281    287   5     0.00000     9.20480     0.00000  0.0
    290    292    291    297   5     0.00000    33.47200     0.00000  0.0
    291    293    292    300   5     0.00000     9.20480     0.00000  0.0
    292    294    293    301   5     0.00000     9.20480     0.00000  0.0
    293    295    294    296   5     0.00000    33.47200     0.00000  0.0
    294    297    296    302   5     0.00000     9.20480     0.00000  0.0
    291    296    297    303   5     0.00000     9.20480     0.00000  0.0
    306    308    307    313   5     0.00000    33.47200     0.00000  0.0
    307    309    308    316   5     0.00000     9.20480     0.00000  0.0
    308    310    309    317   5     0.00000     9.20480     0.00000  0.0
    309    311    310    312   5     0.00000    33.47200     0.00000  0.0
    310    313    312    318   5     0.00000     9.20480     0.00000  0.0
    307    312    313    319   5     0.00000     9.20480     0.00000  0.0
